/*--------------------------------*- C++ -*----------------------------------*\
  =========                 |
  \\      /  F ield         | OpenFOAM: The Open Source CFD Toolbox
   \\    /   O peration     | Website:  https://openfoam.org
    \\  /    A nd           | Version:  13
     \\/     M anipulation  |
\*---------------------------------------------------------------------------*/
FoamFile
{
    format      ascii;
    class       volScalarField;
    location    "700";
    object      k;
}
// * * * * * * * * * * * * * * * * * * * * * * * * * * * * * * * * * * * * * //

dimensions      [0 2 -2 0 0 0 0];

internalField   nonuniform List<scalar> 
169916
(
0.364693
0.367543
0.371104
0.375321
0.379973
0.384677
0.389018
0.392669
0.395452
0.39733
0.398352
0.398449
0.39764
0.396269
0.368464
0.372617
0.377956
0.38447
0.391718
0.398889
0.405468
0.411014
0.41522
0.418009
0.419514
0.419909
0.419281
0.418317
0.372415
0.378259
0.386066
0.39584
0.406709
0.417519
0.427704
0.436529
0.443137
0.447327
0.449483
0.450148
0.450361
0.450881
0.451851
0.453218
0.454897
0.456793
0.458788
0.460732
0.462456
0.463775
0.37073
0.376299
0.384278
0.395325
0.409192
0.424791
0.429992
0.446271
0.464156
0.478636
0.487645
0.491888
0.504262
0.502845
0.50468
0.507386
0.50984
0.511933
0.512978
0.512734
0.510715
0.506454
0.500136
0.372698
0.379663
0.390203
0.405103
0.423844
0.432662
0.461584
0.498279
0.532311
0.556523
0.566259
0.564418
0.561771
0.563134
0.566214
0.567422
0.565986
0.557774
0.544373
0.527356
0.508316
0.488613
0.469274
0.373543
0.381722
0.394896
0.414403
0.425021
0.460934
0.507517
0.575749
0.614654
0.680272
0.703002
0.705495
0.692695
0.719543
0.801737
0.725905
0.659246
0.605176
0.562837
0.52812
0.50008
0.477626
0.459765
0.445644
0.372765
0.381417
0.395863
0.405875
0.440141
0.502184
0.551692
0.680889
0.803774
0.993673
1.10001
1.35463
1.31508
1.00236
0.882164
0.782383
0.698845
0.640284
0.597281
0.564687
0.53988
0.520986
0.506818
0.496307
0.486885
0.370187
0.378209
0.392677
0.403202
0.445072
0.531146
0.624337
0.859472
1.06926
1.33686
1.34688
1.16286
0.909387
0.793075
0.673129
0.634717
0.602958
0.578226
0.560908
0.54946
0.542312
0.538281
0.536466
0.536148
0.366123
0.372399
0.384342
0.390545
0.421431
0.482755
0.53737
0.666017
0.720755
0.755533
0.749559
0.710759
0.668853
0.636618
0.617639
0.621467
0.611297
0.605081
0.602247
0.6018
0.602908
0.605083
0.608003
0.611445
0.615309
0.619618
0.361383
0.365415
0.373056
0.384923
0.390857
0.412414
0.442364
0.473975
0.499036
0.524467
0.545678
0.558735
0.566663
0.570551
0.557146
0.559625
0.561352
0.563279
0.565792
0.568962
0.572729
0.576991
0.581702
0.586821
0.592334
0.598279
0.356747
0.359007
0.363218
0.369757
0.379057
0.388892
0.393824
0.409066
0.42564
0.442871
0.459413
0.473437
0.477135
0.481703
0.484288
0.48507
0.485128
0.485207
0.485729
0.486939
0.488951
0.491786
0.495419
0.499818
0.504978
0.510939
0.352757
0.353949
0.356445
0.360429
0.366045
0.373042
0.381163
0.390089
0.399153
0.407411
0.414284
0.419612
0.423794
0.426296
0.427377
0.427617
0.427501
0.427355
0.427396
0.427768
0.428558
0.429821
0.431601
0.433941
0.436889
0.440502
0.349801
0.350443
0.352126
0.354957
0.358959
0.364066
0.370117
0.376646
0.382983
0.388375
0.392512
0.395388
0.397161
0.398037
0.398331
0.398315
0.39819
0.398102
0.398169
0.398472
0.399068
0.39999
0.401262
0.402904
0.404936
0.407376
0.348197
0.348583
0.349882
0.352122
0.355277
0.359232
0.363791
0.368615
0.373168
0.376917
0.37961
0.38126
0.382139
0.382506
0.382552
0.382421
0.382223
0.382128
0.382206
0.38252
0.383094
0.383933
0.385038
0.386401
0.388013
0.389848
0.347703
0.348061
0.349249
0.351251
0.353972
0.357256
0.360863
0.364483
0.367763
0.37041
0.372264
0.373309
0.373731
0.373622
0.373213
0.37276
0.372444
0.372398
0.372686
0.373172
0.373851
0.374712
0.375735
0.376898
0.378172
0.348122
0.348635
0.349918
0.351916
0.354477
0.357382
0.360386
0.363234
0.36572
0.367721
0.369138
0.369925
0.370137
0.369835
0.36941
0.369081
0.368969
0.369135
0.36954
0.370079
0.370737
0.371494
0.372324
0.373197
0.374077
0.349282
0.350081
0.351617
0.353783
0.356371
0.359121
0.361773
0.364134
0.366112
0.367684
0.368814
0.369465
0.369573
0.369282
0.368931
0.368689
0.36862
0.368733
0.368999
0.36937
0.369779
0.370201
0.37062
0.371005
0.371305
0.351996
0.35389
0.356349
0.359094
0.361824
0.364298
0.366391
0.368093
0.369438
0.370431
0.371055
0.371228
0.37102
0.370695
0.370389
0.370135
0.369915
0.369693
0.369429
0.369109
0.368743
0.368336
0.367894
0.367434
0.35618
0.359006
0.361998
0.364803
0.367209
0.369166
0.370729
0.371963
0.372899
0.37353
0.37376
0.373542
0.373073
0.372481
0.371814
0.371074
0.370251
0.369338
0.368356
0.367349
0.366355
0.365391
0.364476
0.358065
0.361216
0.364457
0.367377
0.369783
0.371681
0.373172
0.374349
0.375254
0.375883
0.3761
0.375767
0.375048
0.374105
0.373028
0.371854
0.370594
0.369259
0.367882
0.366519
0.36521
0.363975
0.362836
0.362434
0.365832
0.368835
0.371258
0.373136
0.374596
0.375747
0.376641
0.377276
0.37749
0.377098
0.37625
0.375133
0.373861
0.372487
0.371029
0.369506
0.367956
0.366437
0.364989
0.363635
0.362395
0.362422
0.365814
0.36881
0.371226
0.373098
0.374554
0.375699
0.376588
0.377216
0.377414
0.37701
0.37615
0.375022
0.373742
0.37236
0.370897
0.369369
0.367817
0.366296
0.364848
0.363494
0.362255
0.361196
0.364425
0.367329
0.369719
0.371601
0.373077
0.374235
0.375118
0.375721
0.375879
0.375494
0.374728
0.373743
0.372628
0.371421
0.370135
0.36878
0.36739
0.366018
0.364704
0.363466
0.362328
0.361317
0.358983
0.361963
0.364752
0.367141
0.369079
0.370621
0.37183
0.372736
0.373328
0.373469
0.373166
0.372617
0.371947
0.371206
0.370402
0.369525
0.368569
0.367554
0.366526
0.365516
0.364542
0.363624
0.362792
0.356327
0.359064
0.36178
0.364237
0.36631
0.367985
0.369297
0.370254
0.370836
0.370915
0.370616
0.370202
0.369804
0.369457
0.36915
0.36885
0.368519
0.368145
0.367738
0.367302
0.36684
0.366366
0.365906
0.353762
0.356345
0.359085
0.361721
0.364058
0.366002
0.36753
0.368611
0.369211
0.369216
0.368835
0.368396
0.368064
0.367904
0.367926
0.368111
0.368413
0.368789
0.369188
0.369587
0.369946
0.370224
0.37041
0.354455
0.357354
0.360343
0.363164
0.365612
0.367565
0.36893
0.369666
0.369784
0.3694
0.368896
0.368486
0.368288
0.368365
0.368728
0.369227
0.369847
0.370568
0.371364
0.372209
0.373058
0.373905
0.374713
0.353943
0.357219
0.360808
0.364403
0.367652
0.370259
0.372083
0.373106
0.373513
0.373384
0.372954
0.372473
0.37212
0.372027
0.372276
0.37273
0.373379
0.37421
0.375205
0.376342
0.377595
0.378916
0.380342
0.355233
0.359173
0.363703
0.368514
0.373051
0.376791
0.379503
0.381198
0.382136
0.382568
0.382673
0.382592
0.382454
0.38238
0.382469
0.382785
0.383355
0.384189
0.385288
0.386648
0.388262
0.390113
0.392105
0.358892
0.363974
0.369965
0.376612
0.38303
0.388481
0.392702
0.395705
0.397632
0.39867
0.399115
0.399234
0.399228
0.399251
0.399419
0.399819
0.40051
0.40153
0.402908
0.404671
0.406846
0.409459
0.412546
0.399007
0.407273
0.414232
0.419759
0.424217
0.427041
0.428466
0.429049
0.429257
0.429418
0.429758
0.430434
0.431543
0.433148
0.435298
0.438043
0.441439
0.44555
0.450459
0.413576
0.42613
0.437248
0.446109
0.475958
0.480492
0.48325
0.48438
0.484859
0.48536
0.486271
0.487821
0.490123
0.493204
0.497046
0.501624
0.506929
0.512994
0.519915
0.482668
0.501085
0.514789
0.521784
0.52383
0.552429
0.55421
0.555591
0.557351
0.559554
0.562195
0.565298
0.568899
0.573021
0.577538
0.582412
0.587684
0.593463
0.583723
0.614481
0.607525
0.604036
0.598124
0.617585
0.607358
0.600812
0.597328
0.595954
0.595889
0.596662
0.598006
0.599743
0.601796
0.604203
0.607132
0.769839
0.830808
0.739663
0.670812
0.677725
0.639464
0.608826
0.583754
0.565127
0.552196
0.543552
0.538009
0.534677
0.532899
0.532184
0.532254
1.50851
1.18749
1.01401
0.800415
0.710301
0.648474
0.603644
0.570257
0.544717
0.525063
0.510012
0.498718
0.490522
0.482865
0.476125
0.798511
0.722777
0.655149
0.600548
0.558067
0.523917
0.496427
0.474466
0.457003
0.443193
0.432351
0.423649
0.416561
0.36503
0.36804
0.371814
0.376234
0.380954
0.385559
0.38967
0.393033
0.395553
0.397262
0.398246
0.398619
0.398332
0.397641
0.369123
0.373667
0.379568
0.386563
0.393849
0.400907
0.407208
0.412306
0.416008
0.418391
0.419696
0.420275
0.420542
0.420492
0.373646
0.380379
0.389473
0.400209
0.411364
0.42277
0.433042
0.440987
0.446199
0.449056
0.450375
0.451238
0.451891
0.452446
0.452971
0.453485
0.454016
0.454622
0.4554
0.456173
0.456891
0.457518
0.371923
0.378479
0.388303
0.401868
0.418285
0.423842
0.442992
0.463712
0.479911
0.488999
0.4916
0.489868
0.487747
0.490146
0.490344
0.490708
0.490799
0.490952
0.490951
0.490382
0.489185
0.487404
0.485176
0.374521
0.38327
0.396979
0.41681
0.426561
0.462551
0.507845
0.546858
0.56437
0.557408
0.539901
0.522868
0.510944
0.503715
0.51229
0.51078
0.509157
0.508007
0.505883
0.500871
0.494571
0.487351
0.479613
0.376043
0.386969
0.404634
0.415466
0.459548
0.531533
0.596974
0.711343
0.772456
0.766506
0.758576
0.679878
0.630244
0.678422
0.654749
0.719919
0.677788
0.641213
0.610094
0.583376
0.560996
0.543435
0.530288
0.520839
0.375818
0.387314
0.39522
0.427325
0.498658
0.577763
0.854165
1.14724
1.2466
1.07112
0.942198
0.799375
0.753778
0.725335
0.709259
0.701124
0.69835
0.698997
0.701624
0.705021
0.373359
0.384479
0.392593
0.428824
0.487506
0.663626
1.05295
0.864653
0.791239
0.861112
0.8608
0.868469
0.878589
0.889435
0.899752
0.908779
0.916057
0.92062
0.368778
0.378162
0.395314
0.408238
0.470485
0.575262
0.775388
1.11591
0.957809
0.837299
0.88069
0.882779
0.89524
0.909557
0.920678
0.926957
0.930063
0.930991
0.930454
0.929125
0.927632
0.363337
0.369106
0.379635
0.386867
0.412606
0.455889
0.49844
0.54734
0.5675
0.563249
0.568732
0.59378
0.598716
0.617484
0.637187
0.679524
0.697683
0.716998
0.736228
0.754169
0.770188
0.784118
0.796074
0.806341
0.815389
0.823767
0.358089
0.361157
0.366835
0.375323
0.380645
0.395378
0.413174
0.430968
0.449417
0.46809
0.48584
0.502458
0.516296
0.525144
0.525196
0.527711
0.531223
0.537284
0.546005
0.55721
0.56987
0.583444
0.597505
0.611752
0.626097
0.640685
0.353655
0.355186
0.358197
0.362911
0.369241
0.376766
0.385649
0.396523
0.408973
0.420415
0.429496
0.435989
0.439585
0.440624
0.440278
0.439222
0.438197
0.437582
0.4378
0.438982
0.441248
0.444713
0.449479
0.45553
0.462918
0.471697
0.35046
0.351236
0.353109
0.3562
0.360487
0.36598
0.372592
0.380301
0.388119
0.394623
0.39929
0.402208
0.403783
0.404172
0.40369
0.402716
0.401782
0.401153
0.401019
0.401304
0.402091
0.403422
0.405345
0.407915
0.411182
0.41521
0.348788
0.34926
0.350669
0.353054
0.356409
0.36069
0.365748
0.371199
0.376342
0.380504
0.383262
0.384856
0.385588
0.385575
0.385001
0.384262
0.383625
0.38328
0.383369
0.383888
0.384733
0.385917
0.387448
0.389331
0.391572
0.394133
0.348475
0.348949
0.350277
0.352453
0.355393
0.35898
0.36294
0.366942
0.370606
0.373612
0.375637
0.376687
0.376917
0.376446
0.375751
0.375114
0.374728
0.374717
0.37515
0.375931
0.376948
0.378188
0.379629
0.381247
0.383027
0.349251
0.349961
0.351478
0.353747
0.356611
0.359844
0.363192
0.366345
0.369117
0.371368
0.372949
0.373778
0.373794
0.373356
0.37291
0.372682
0.372789
0.373267
0.374022
0.374952
0.376046
0.377277
0.378609
0.379996
0.381404
0.350869
0.351961
0.353856
0.356432
0.359449
0.362605
0.365604
0.368218
0.370394
0.372186
0.373541
0.374338
0.37441
0.374117
0.37387
0.373844
0.374093
0.374592
0.375265
0.376005
0.376798
0.377626
0.378452
0.379225
0.379928
0.354305
0.356736
0.359798
0.363145
0.366394
0.369266
0.371634
0.373551
0.375121
0.376359
0.377193
0.377443
0.377311
0.377117
0.377
0.376973
0.376993
0.37699
0.376896
0.376709
0.376454
0.376135
0.375754
0.375353
0.359678
0.36332
0.367109
0.370565
0.373436
0.375707
0.377516
0.378987
0.380169
0.381009
0.381302
0.38107
0.38056
0.379921
0.379193
0.378372
0.377437
0.376368
0.375208
0.37403
0.372877
0.371755
0.370705
0.361967
0.366155
0.370399
0.374118
0.377068
0.379309
0.381054
0.382452
0.383565
0.384356
0.384543
0.384025
0.383026
0.381775
0.380386
0.378896
0.377312
0.375638
0.373929
0.372263
0.370675
0.369172
0.367786
0.36776
0.37229
0.376196
0.379224
0.381474
0.383184
0.384527
0.385603
0.386385
0.386537
0.385897
0.384673
0.383146
0.381467
0.379691
0.377832
0.375902
0.373961
0.37208
0.370295
0.368606
0.36705
0.367744
0.372265
0.376159
0.379177
0.38142
0.383126
0.384464
0.385535
0.386309
0.386449
0.385798
0.384564
0.383027
0.381339
0.379555
0.37769
0.375755
0.37381
0.371928
0.370139
0.36845
0.366893
0.366132
0.370357
0.374052
0.376976
0.379196
0.380919
0.382291
0.383372
0.384124
0.384242
0.383666
0.382612
0.381311
0.379876
0.378349
0.376735
0.37504
0.373316
0.371637
0.370042
0.368535
0.367147
0.365928
0.363297
0.367071
0.370506
0.373353
0.375603
0.377389
0.378829
0.37997
0.380752
0.380934
0.380597
0.379984
0.379244
0.37842
0.377515
0.37651
0.375387
0.374188
0.372983
0.371812
0.370681
0.369624
0.368704
0.35978
0.363118
0.366354
0.369209
0.371558
0.373445
0.374976
0.376172
0.376952
0.377094
0.376857
0.376553
0.376316
0.376166
0.376068
0.37596
0.375779
0.375523
0.375218
0.374866
0.374463
0.37405
0.373678
0.356419
0.35943
0.362578
0.365564
0.368152
0.370288
0.372022
0.373314
0.374047
0.374006
0.373614
0.373266
0.373131
0.373261
0.373652
0.374247
0.374941
0.37569
0.37648
0.377276
0.378025
0.378704
0.379267
0.356601
0.359833
0.36317
0.366298
0.369026
0.371219
0.372739
0.373506
0.373409
0.372866
0.372313
0.371971
0.371953
0.372311
0.373009
0.373883
0.37492
0.376097
0.377379
0.378723
0.380093
0.381444
0.382699
0.355376
0.358957
0.3629
0.366888
0.370522
0.373488
0.375482
0.376513
0.376722
0.376223
0.375481
0.374777
0.374302
0.374189
0.374513
0.375231
0.376184
0.377359
0.378737
0.380293
0.382016
0.383893
0.385927
0.35637
0.360629
0.365669
0.371187
0.376381
0.380563
0.383359
0.385009
0.3858
0.385902
0.385391
0.384678
0.384039
0.383669
0.383705
0.384161
0.384944
0.386072
0.387558
0.389417
0.391659
0.394252
0.397177
0.360424
0.365882
0.372581
0.380265
0.388258
0.3948
0.399529
0.402526
0.404247
0.404812
0.404591
0.403938
0.40329
0.402945
0.402931
0.403371
0.404337
0.40589
0.408091
0.41101
0.414716
0.419278
0.424729
0.408604
0.420095
0.429408
0.436448
0.440687
0.442279
0.442522
0.442044
0.441638
0.441706
0.442668
0.444673
0.447833
0.452219
0.457885
0.464896
0.473303
0.483174
0.494629
0.426424
0.442699
0.457084
0.469113
0.478232
0.483006
0.520363
0.523218
0.527224
0.533528
0.542263
0.553314
0.566057
0.579741
0.593966
0.608395
0.622913
0.637629
0.65288
0.501045
0.515474
0.529858
0.545398
0.558897
0.565939
0.666275
0.684234
0.702156
0.719261
0.734822
0.748563
0.760548
0.770999
0.7802
0.788519
0.796412
0.804441
0.967419
1.04369
0.869028
0.750521
0.783136
0.76178
0.902158
0.893776
0.897074
0.903686
0.909338
0.911999
0.912334
0.911195
0.909195
0.906863
0.904697
0.903245
1.11386
0.980364
0.863333
0.822813
0.894823
0.883583
0.881187
0.882806
0.886748
0.891446
0.895991
0.899968
0.903201
0.905097
0.906422
1.18037
1.04249
0.891877
0.832024
0.781141
0.745841
0.725189
0.714149
0.709295
0.708142
0.709338
0.71191
0.715062
0.718412
0.840323
0.702906
0.666402
0.63419
0.605427
0.579073
0.557338
0.540548
0.52815
0.519358
0.513404
0.509634
0.507591
0.363117
0.36558
0.368842
0.372883
0.377413
0.382024
0.386306
0.389946
0.392806
0.394916
0.396388
0.397345
0.397903
0.398331
0.398516
0.366455
0.370223
0.375389
0.381897
0.389011
0.3962
0.402844
0.408413
0.4126
0.415465
0.417291
0.418465
0.419584
0.420487
0.421138
0.370118
0.375749
0.383808
0.393931
0.405075
0.417183
0.428262
0.436953
0.442651
0.445623
0.446887
0.44782
0.448826
0.449993
0.451328
0.452327
0.453064
0.45363
0.454071
0.454425
0.454723
0.454985
0.455231
0.373974
0.382224
0.394307
0.410142
0.416615
0.438135
0.460671
0.47771
0.486864
0.487966
0.483614
0.479212
0.476744
0.476554
0.480568
0.481702
0.482272
0.482402
0.481996
0.481301
0.480418
0.479397
0.478271
0.377651
0.389186
0.406469
0.416295
0.456688
0.510684
0.548426
0.566623
0.561194
0.543643
0.522948
0.505047
0.491693
0.487979
0.488516
0.510021
0.509639
0.5076
0.50413
0.499693
0.494749
0.489577
0.484363
0.380341
0.394881
0.404108
0.444371
0.531193
0.625932
0.737316
0.909912
1.02429
1.15527
1.19826
1.07965
0.843921
0.700016
0.712374
0.667539
0.669644
0.636624
0.608633
0.58421
0.563894
0.546857
0.532667
0.520927
0.381054
0.397425
0.410813
0.47058
0.567869
1.00569
1.04834
0.937449
0.818627
0.772423
0.73951
0.715009
0.696926
0.683534
0.673336
0.665239
0.657564
0.378702
0.394371
0.409038
0.476025
0.631926
0.872492
1.16792
1.34335
1.14619
1.05372
0.997054
0.957577
0.926391
0.900067
0.876272
0.853527
0.373183
0.385648
0.396207
0.451233
0.561091
0.979454
1.29682
1.38214
1.35126
1.31539
1.27692
1.23776
1.20095
1.16628
1.13366
1.10322
1.0757
1.0512
0.366436
0.375385
0.390688
0.403799
0.455263
0.54034
0.575068
0.646998
0.694839
0.8491
0.80903
0.774558
0.775495
0.872026
0.979121
0.986189
1.03086
1.07412
1.10252
1.11408
1.11335
1.10421
1.09052
1.07504
1.06074
1.04836
0.360302
0.364621
0.372602
0.384117
0.392985
0.413436
0.430625
0.448328
0.47624
0.505882
0.528642
0.564417
0.611911
0.657541
0.695144
0.708589
0.729198
0.754292
0.78092
0.806735
0.829848
0.848403
0.862795
0.873692
0.88231
0.890127
0.355233
0.357318
0.361156
0.366951
0.374083
0.382122
0.391544
0.398549
0.420277
0.445599
0.463566
0.472861
0.469946
0.464762
0.461038
0.458176
0.456845
0.459684
0.466226
0.475425
0.487169
0.501346
0.517369
0.534701
0.553327
0.573209
0.351732
0.352763
0.354978
0.358528
0.363254
0.369285
0.376532
0.381214
0.393924
0.40746
0.417094
0.421978
0.421581
0.419383
0.41679
0.414836
0.41321
0.411717
0.411735
0.413343
0.416436
0.42062
0.425911
0.43236
0.440033
0.350037
0.350713
0.352377
0.355082
0.358854
0.363696
0.369755
0.376885
0.384048
0.390184
0.394095
0.39587
0.39629
0.395513
0.394269
0.393133
0.392449
0.392198
0.392615
0.393947
0.395943
0.39853
0.401724
0.405509
0.409853
0.350158
0.350917
0.352589
0.35518
0.358636
0.36278
0.367578
0.372514
0.377016
0.380938
0.383708
0.385042
0.385128
0.384579
0.3839
0.383444
0.383442
0.383996
0.385142
0.386773
0.388786
0.391155
0.39384
0.396738
0.399855
0.351688
0.352834
0.354888
0.357789
0.36136
0.365316
0.369388
0.37304
0.376182
0.379024
0.381139
0.382209
0.382201
0.381909
0.381855
0.382287
0.383299
0.384781
0.386595
0.388651
0.390925
0.393382
0.395963
0.3986
0.401259
0.353956
0.355734
0.358478
0.362031
0.366054
0.370096
0.373769
0.376772
0.379258
0.381446
0.383245
0.384316
0.38438
0.384302
0.384572
0.385274
0.386389
0.387771
0.389333
0.391035
0.392898
0.394888
0.39689
0.398761
0.400456
0.359072
0.362738
0.367218
0.371961
0.376315
0.379917
0.382682
0.384894
0.386792
0.388413
0.389513
0.389732
0.389654
0.389696
0.389944
0.390368
0.390872
0.391326
0.391628
0.391838
0.391995
0.39207
0.392007
0.391919
0.366941
0.372591
0.378318
0.383283
0.387107
0.389832
0.391806
0.393372
0.394677
0.395442
0.39538
0.394726
0.393868
0.392951
0.391978
0.390923
0.38972
0.388315
0.386839
0.38541
0.384018
0.382626
0.38134
0.370308
0.377063
0.383777
0.38933
0.393315
0.395862
0.397547
0.398767
0.399636
0.399998
0.399508
0.398072
0.396165
0.394104
0.391978
0.389801
0.387536
0.385169
0.382834
0.380624
0.378515
0.376474
0.374588
0.379586
0.386963
0.39296
0.397124
0.399638
0.401195
0.402176
0.402959
0.403258
0.40263
0.400888
0.398542
0.396003
0.393444
0.390878
0.388261
0.385584
0.382986
0.380557
0.378216
0.375929
0.373773
0.37956
0.386917
0.392891
0.39704
0.399551
0.401108
0.402087
0.402863
0.403151
0.402515
0.400764
0.398408
0.395855
0.393281
0.390702
0.388073
0.385388
0.382784
0.380353
0.37801
0.375721
0.373562
0.377033
0.383705
0.389202
0.393133
0.395642
0.397294
0.398458
0.399259
0.399542
0.398985
0.39749
0.395521
0.393399
0.391217
0.388991
0.386686
0.384289
0.381927
0.379695
0.377569
0.375516
0.373619
0.371949
0.372572
0.37827
0.383193
0.386973
0.389665
0.391606
0.393129
0.394363
0.394979
0.394777
0.393986
0.392983
0.391916
0.390796
0.389611
0.388298
0.38681
0.385266
0.38378
0.382344
0.38092
0.379611
0.378509
0.367212
0.371946
0.376285
0.379867
0.382619
0.384802
0.386691
0.388279
0.389263
0.389352
0.389134
0.389009
0.389063
0.38928
0.389586
0.389858
0.39
0.390077
0.390124
0.390111
0.389986
0.389852
0.389759
0.362035
0.366051
0.370085
0.373747
0.376721
0.379153
0.381265
0.382979
0.383974
0.383926
0.383748
0.383895
0.38445
0.385398
0.386691
0.388165
0.389776
0.391553
0.393469
0.395409
0.397221
0.398863
0.400256
0.361376
0.365341
0.369409
0.373043
0.376132
0.378885
0.380906
0.381896
0.381781
0.381369
0.38117
0.381434
0.382228
0.383599
0.385303
0.387245
0.389408
0.391762
0.394254
0.396821
0.399428
0.401929
0.404052
0.358642
0.362784
0.367575
0.372538
0.377036
0.380892
0.383591
0.384887
0.384943
0.384301
0.383465
0.382808
0.382563
0.382872
0.383772
0.385259
0.387124
0.389336
0.391875
0.394651
0.397671
0.400929
0.404332
0.358829
0.363641
0.369773
0.376981
0.384259
0.390416
0.394361
0.396172
0.396636
0.395819
0.394443
0.393104
0.392187
0.391792
0.392131
0.39343
0.395366
0.397924
0.401143
0.40505
0.409599
0.414611
0.420361
0.363221
0.369216
0.377246
0.387486
0.390274
0.397506
0.403524
0.421133
0.42125
0.419379
0.417095
0.41551
0.414172
0.413362
0.414208
0.416714
0.420496
0.425514
0.431777
0.439364
0.448377
0.458718
0.470117
0.410059
0.427029
0.439024
0.474568
0.473633
0.469791
0.466623
0.463896
0.465236
0.470643
0.478808
0.489646
0.503233
0.518243
0.53461
0.552363
0.571335
0.591652
0.613631
0.448924
0.477773
0.499981
0.523101
0.542229
0.551838
0.661697
0.674236
0.69439
0.719446
0.746573
0.773124
0.797587
0.81882
0.836199
0.849508
0.860101
0.869497
0.879237
0.520653
0.558469
0.568124
0.651629
0.717016
0.761212
1.03671
1.05608
1.07725
1.08939
1.09058
1.08344
1.07143
1.0571
1.04221
1.02836
1.01673
1.0079
1.17021
1.17934
1.09208
1.09979
1.33611
1.31406
1.4467
1.37897
1.31986
1.26588
1.21877
1.17761
1.14088
1.10855
1.07993
1.05465
1.03291
1.35257
1.92442
1.54294
1.29745
1.17558
1.09709
1.03922
0.993287
0.955325
0.922644
0.893415
0.866446
0.84097
0.895861
0.978013
0.874662
0.824594
0.788678
0.760907
0.739742
0.72357
0.71081
0.699231
0.688238
0.677875
0.668345
0.86346
0.778003
0.656467
0.626527
0.601151
0.578728
0.56005
0.54437
0.531328
0.520567
0.51179
0.504786
0.499452
0.363554
0.366215
0.36972
0.373892
0.378393
0.382772
0.386644
0.389755
0.392087
0.393782
0.395012
0.395947
0.396798
0.397656
0.398354
0.367256
0.371495
0.377185
0.383849
0.391072
0.398087
0.404225
0.408939
0.412091
0.413985
0.415102
0.416041
0.4173
0.418649
0.419873
0.37153
0.378138
0.386937
0.397445
0.410215
0.422626
0.432689
0.439961
0.442952
0.442659
0.441604
0.442234
0.443618
0.445392
0.447193
0.448825
0.450006
0.450874
0.451533
0.452047
0.45246
0.452811
0.453135
0.376315
0.386193
0.399433
0.405766
0.428192
0.454098
0.474089
0.503432
0.496738
0.486547
0.475329
0.470512
0.465052
0.46454
0.465993
0.474225
0.477194
0.478906
0.479791
0.480097
0.47999
0.479686
0.479314
0.381185
0.395095
0.402842
0.435571
0.493353
0.541993
0.572458
0.578325
0.566256
0.545593
0.52323
0.505341
0.491202
0.488503
0.489644
0.49385
0.528695
0.528272
0.525426
0.521247
0.516572
0.511844
0.507281
0.385149
0.403632
0.418546
0.481868
0.591536
0.741117
1.0196
1.09864
1.08991
1.07224
1.05033
1.06158
1.05706
0.845134
0.769949
0.709448
0.694092
0.654875
0.624003
0.59828
0.576893
0.559215
0.544632
0.532644
0.385348
0.394057
0.433974
0.500747
0.705108
0.926921
0.839374
0.788621
0.726777
0.692416
0.663122
0.638613
0.618526
0.602072
0.588636
0.577679
0.382866
0.391867
0.434389
0.520889
0.521865
1.14098
1.22882
1.03978
0.935305
0.867639
0.81886
0.781868
0.752784
0.729309
0.710108
0.376966
0.384112
0.417113
0.520689
0.670649
0.637617
1.18848
1.38223
1.25335
1.11829
1.05901
1.02696
0.987478
0.945907
0.90447
0.866345
0.83148
0.370347
0.381181
0.390684
0.43198
0.50572
0.603778
0.675835
0.712252
0.757616
0.763876
0.934727
1.26896
1.29461
1.2757
1.0958
1.07524
1.2018
1.23188
1.22088
1.18096
1.13485
1.09066
1.0511
1.01706
0.988216
0.965491
0.362831
0.368785
0.37859
0.387137
0.411215
0.432964
0.446636
0.472202
0.534775
0.606774
0.80981
1.02914
1.09852
1.09888
1.06235
0.959271
0.983189
1.00728
1.02574
1.0359
1.03646
1.03162
1.02156
1.00654
0.990563
0.976726
0.357256
0.360006
0.364846
0.37146
0.378934
0.386685
0.392945
0.414957
0.463387
0.525881
0.561068
0.579014
0.638005
0.622801
0.610669
0.606669
0.60839
0.614064
0.62309
0.634888
0.648616
0.66389
0.68046
0.698728
0.717778
0.736242
0.353596
0.354998
0.357683
0.361693
0.366758
0.372651
0.377223
0.392582
0.417619
0.443077
0.452884
0.450579
0.456238
0.45115
0.447434
0.446895
0.449618
0.455457
0.464169
0.475542
0.485406
0.493604
0.500971
0.508269
0.516023
0.352183
0.353221
0.35533
0.358523
0.36278
0.36783
0.371187
0.381559
0.39463
0.406644
0.415457
0.417802
0.417252
0.417285
0.417401
0.417359
0.418469
0.420788
0.424269
0.428809
0.434324
0.440717
0.447872
0.45466
0.46043
0.353097
0.354358
0.356655
0.359983
0.364238
0.368882
0.371027
0.378052
0.385429
0.392311
0.398893
0.402195
0.406152
0.406009
0.405893
0.405891
0.406758
0.4087
0.411752
0.415634
0.420498
0.426116
0.43199
0.437465
0.442797
0.355536
0.357478
0.360531
0.36461
0.369342
0.374584
0.380165
0.384998
0.388384
0.389263
0.392643
0.395334
0.400613
0.402099
0.403395
0.405698
0.409013
0.413144
0.418022
0.422954
0.42804
0.433322
0.438836
0.444558
0.450369
0.358785
0.361763
0.366075
0.37146
0.377169
0.38283
0.387742
0.391252
0.394035
0.396919
0.399837
0.401641
0.401916
0.403225
0.405378
0.408169
0.411316
0.414989
0.419355
0.424531
0.430526
0.436864
0.442944
0.448248
0.452795
0.36652
0.372555
0.379685
0.386854
0.393282
0.398097
0.401178
0.403459
0.405617
0.407741
0.409198
0.409264
0.409346
0.410196
0.411921
0.414295
0.417002
0.41971
0.422084
0.424238
0.426284
0.428057
0.42936
0.379194
0.388784
0.398121
0.405685
0.410667
0.412968
0.414075
0.414692
0.415463
0.415721
0.414838
0.413328
0.412003
0.410903
0.409857
0.40876
0.407474
0.40594
0.404509
0.403312
0.402141
0.400884
0.384625
0.396646
0.408118
0.416494
0.421009
0.421894
0.421896
0.421503
0.421265
0.420793
0.41921
0.41609
0.412653
0.409377
0.406231
0.403143
0.399984
0.396765
0.393805
0.391103
0.388396
0.385694
0.401163
0.414157
0.423277
0.427783
0.428187
0.427676
0.427584
0.428152
0.428367
0.426846
0.423436
0.419547
0.415964
0.412673
0.409553
0.406382
0.403146
0.400233
0.397657
0.395
0.392186
0.389508
0.401116
0.414065
0.423143
0.427632
0.428039
0.427515
0.42738
0.427889
0.428077
0.426536
0.423113
0.419202
0.415599
0.412303
0.409191
0.406038
0.402821
0.399932
0.397388
0.394766
0.391976
0.389322
0.396603
0.407961
0.416192
0.420582
0.421392
0.421352
0.420918
0.420621
0.42008
0.418447
0.415278
0.411771
0.408431
0.40523
0.402085
0.39886
0.395582
0.392566
0.389808
0.387045
0.384283
0.381764
0.388772
0.398031
0.405482
0.410331
0.412568
0.413643
0.414187
0.414828
0.414901
0.413835
0.412124
0.410559
0.409202
0.407909
0.406599
0.405136
0.403419
0.401805
0.400419
0.399064
0.397637
0.396396
0.39585
0.379701
0.386854
0.393257
0.398037
0.401121
0.403462
0.405558
0.407797
0.409098
0.408961
0.4088
0.409308
0.410589
0.412463
0.414631
0.416773
0.418611
0.420275
0.421918
0.423372
0.424464
0.425454
0.426331
0.371476
0.377161
0.382811
0.387722
0.391206
0.393937
0.396696
0.39946
0.401191
0.401417
0.402672
0.404658
0.407283
0.410229
0.413706
0.417887
0.422875
0.428703
0.434913
0.440917
0.44621
0.450754
0.454292
0.369385
0.374648
0.380259
0.385113
0.388447
0.388835
0.391341
0.393802
0.400311
0.401596
0.402758
0.404855
0.407741
0.411529
0.416049
0.42072
0.425675
0.430942
0.43653
0.44243
0.448465
0.4539
0.457223
0.36428
0.368947
0.371145
0.376972
0.382544
0.387782
0.393033
0.396453
0.406033
0.405646
0.405213
0.404838
0.405121
0.406488
0.408947
0.412386
0.416943
0.422114
0.428062
0.433775
0.439424
0.4449
0.45008
0.362784
0.367842
0.370592
0.378837
0.388359
0.397114
0.404201
0.407256
0.417469
0.417062
0.416827
0.416058
0.416464
0.418252
0.421447
0.426077
0.431811
0.438595
0.446434
0.455036
0.462836
0.469653
0.478605
0.366739
0.372699
0.375976
0.38743
0.405086
0.422021
0.432026
0.432996
0.455735
0.450858
0.447635
0.447549
0.451108
0.458296
0.468926
0.4828
0.494662
0.504689
0.513769
0.522711
0.532039
0.54305
0.55673
0.439573
0.464535
0.487469
0.487264
0.641818
0.6257
0.613482
0.607791
0.608022
0.612731
0.621336
0.633032
0.646834
0.662197
0.678804
0.697169
0.714272
0.733027
0.753712
0.497817
0.555439
0.713127
0.872781
0.885539
0.833933
0.776637
0.826036
0.87045
0.912818
0.945698
0.964007
0.97471
0.97682
0.970907
0.960814
0.950042
0.940797
0.934114
0.651648
1.00623
1.07523
1.1802
1.11625
1.03712
0.965917
1.1737
1.18708
1.17536
1.14287
1.10295
1.0625
1.02543
0.993537
0.967309
0.943091
0.911239
0.926019
0.939582
1.00532
1.23391
1.12609
1.46044
1.29319
1.30282
1.21032
1.09266
1.03599
1.00998
0.983004
0.949503
0.91354
0.877827
0.844064
0.81242
0.818673
1.4404
1.70102
1.18512
1.0425
0.95178
0.886965
0.838264
0.800266
0.769733
0.744722
0.724084
0.707093
0.698209
0.832747
0.85979
0.74902
0.713728
0.683486
0.658112
0.637301
0.620318
0.606407
0.595047
0.585894
0.578785
0.922467
0.801912
0.668051
0.633577
0.606295
0.583316
0.564067
0.548099
0.534919
0.524114
0.51538
0.508516
0.503421
0.363976
0.366771
0.37045
0.374756
0.379253
0.383442
0.386918
0.389533
0.391418
0.392792
0.393836
0.394741
0.395778
0.396947
0.398044
0.367983
0.372554
0.378721
0.385789
0.393127
0.399871
0.405308
0.408972
0.41113
0.412298
0.412939
0.41372
0.415029
0.41671
0.418408
0.372771
0.380101
0.390018
0.401667
0.414872
0.426471
0.435883
0.440365
0.44083
0.43912
0.43694
0.437075
0.43872
0.44106
0.443417
0.44576
0.447544
0.448961
0.450138
0.451162
0.452099
0.453
0.453901
0.378392
0.389557
0.405424
0.41309
0.438988
0.464116
0.501782
0.496503
0.487622
0.477217
0.46634
0.456446
0.453626
0.453883
0.456334
0.465462
0.469301
0.473458
0.47726
0.479875
0.481856
0.483521
0.485057
0.384403
0.40008
0.41035
0.455947
0.519426
0.559125
0.575888
0.575279
0.558817
0.538038
0.517573
0.498767
0.4872
0.482701
0.484928
0.487895
0.523731
0.525709
0.525698
0.524354
0.522519
0.520697
0.519126
0.388858
0.397524
0.436088
0.533082
0.686038
0.838428
1.0374
1.02341
0.998206
0.973462
0.941948
0.904316
0.97512
0.895762
0.692
0.684009
0.646915
0.638586
0.618698
0.601768
0.587313
0.575176
0.565082
0.556749
0.39098
0.402897
0.455934
0.581448
0.85252
0.762281
0.695539
0.665546
0.642586
0.623108
0.606617
0.592635
0.580735