/*--------------------------------*- C++ -*----------------------------------*\
  =========                 |
  \\      /  F ield         | OpenFOAM: The Open Source CFD Toolbox
   \\    /   O peration     | Website:  https://openfoam.org
    \\  /    A nd           | Version:  13
     \\/     M anipulation  |
\*---------------------------------------------------------------------------*/
FoamFile
{
    format      ascii;
    class       volScalarField;
    location    "700";
    object      omega;
}
// * * * * * * * * * * * * * * * * * * * * * * * * * * * * * * * * * * * * * //

dimensions      [0 0 -1 0 0 0 0];

internalField   nonuniform List<scalar> 
169916
(
18.8091
18.9978
19.2717
19.638
20.0801
20.5502
20.9926
21.3625
21.6367
21.8116
21.8975
21.9138
21.8786
21.8138
19.0699
19.4179
19.9437
20.6826
21.5954
22.5497
23.4621
24.2514
24.8478
25.2278
25.4165
25.4662
25.4344
25.3867
19.409
20.0129
20.9852
22.4226
24.2384
26.139
28.1226
30.0143
31.4875
32.3992
32.8201
32.9995
33.0769
33.1988
33.517
34.0849
34.9354
36.0891
37.5488
39.2936
41.2859
43.4794
19.2634
19.8245
20.8261
22.5455
25.1674
28.6597
29.6399
33.6641
38.8557
43.4356
46.4748
48.0507
63.3574
63.24
64.8336
67.4878
71.0177
75.2506
79.9039
84.7007
89.3561
93.6226
97.3666
19.4641
20.2736
21.8543
24.7068
29.2975
31.3927
40.8678
57.6573
77.1503
93.455
102.457
105.765
107.174
109.183
164.381
170.935
176.549
179.975
181.195
180.37
177.84
174.007
169.263
19.5798
20.6358
22.9181
27.4776
30.0922
43.0207
67.1045
131.573
162.87
229.557
265.371
320.588
318.126
325.977
382.655
345.402
311.537
282.109
257.005
235.195
216.374
200.147
186.125
173.957
19.5344
20.6954
23.3532
25.5781
36.6836
68.873
105.53
272.458
462.494
676.923
733.274
823.436
662.963
512.307
431.188
345.815
297.813
261.906
233.859
211.338
192.959
177.742
165.017
154.257
144.784
19.3085
20.338
22.9741
25.3199
40.5616
94.0809
186.123
782.646
1041.87
962.265
756.973
633.178
429.214
331.55
254.708
224.176
199.936
180.62
165.431
153.279
143.357
135.118
128.176
122.255
18.9766
19.6722
21.5723
22.5258
31.4471
59.8118
93.9834
241.899
332.2
347.271
339.527
266.814
218.668
176.73
153.097
161.186
149.602
140.146
132.391
125.913
120.415
115.701
111.634
108.109
105.053
102.42
18.6589
19.0061
19.9301
21.7652
22.7052
27.5523
36.6545
49.013
59.0319
70.5982
80.3942
83.6646
84.3381
82.854
84.7452
84.2053
83.1975
82.1395
81.1494
80.2501
79.4443
78.7341
78.129
77.6361
77.2636
77.026
18.4259
18.5634
18.9249
19.6357
20.877
22.2614
22.9937
25.7821
29.2227
33.1298
36.9778
40.042
40.6343
41.2704
41.8348
41.9867
42.0075
42.0597
42.2178
42.5145
42.9576
43.5379
44.2413
45.0563
45.979
47.0165
18.2774
18.3171
18.4742
18.8019
19.3602
20.1485
21.1702
22.3952
23.6996
24.8621
25.7745
26.4324
26.9182
27.1499
27.1988
27.1626
27.1071
27.0728
27.0845
27.1596
27.3105
27.5467
27.8773
28.3124
28.862
29.5368
18.1887
18.1862
18.2652
18.458
18.7922
19.2848
19.9366
20.6868
21.4199
21.999
22.3861
22.6049
22.6964
22.6995
22.6546
22.5897
22.5235
22.4688
22.436
22.4325
22.4653
22.5404
22.6634
22.8404
23.0779
23.3823
18.1417
18.1223
18.1687
18.3022
18.5367
18.8749
19.3021
19.7743
20.2109
20.5355
20.7267
20.8057
20.8155
20.7869
20.7385
20.682
20.6262
20.5788
20.5464
20.5342
20.5459
20.5843
20.6518
20.7503
20.8814
21.0443
18.1267
18.105
18.142
18.2517
18.438
18.6925
18.9904
19.2919
19.551
19.7344
19.8335
19.8604
19.8424
19.802
19.7523
19.7016
19.6561
19.6206
19.5985
19.5916
19.6012
19.6278
19.6715
19.7316
19.8064
18.1379
18.1252
18.1687
18.2764
18.4433
18.6511
18.872
19.0752
19.2382
19.3503
19.4081
19.4164
19.3918
19.3522
19.3091
19.2695
19.2372
19.2146
19.2026
19.201
19.2097
19.2282
19.2553
19.2892
19.3277
18.1707
18.1767
18.2404
18.3631
18.5307
18.7175
18.8948
19.0415
19.1496
19.2201
19.2541
19.2544
19.2307
19.1959
19.1601
19.1282
19.1024
19.083
19.0694
19.0606
19.0554
19.0532
19.0532
19.054
19.0557
18.2522
18.3479
18.4997
18.6832
18.8658
19.0215
19.139
19.2204
19.2718
19.2967
19.2973
19.2791
19.2509
19.2203
19.1912
19.1648
19.1404
19.1169
19.0932
19.0686
19.0435
19.0182
18.9926
18.9668
18.4733
18.664
18.874
19.0637
19.2115
19.316
19.3861
19.4306
19.4542
19.4591
19.4475
19.4241
19.3944
19.3621
19.3286
19.294
19.2577
19.2193
19.1792
19.1388
19.0987
19.059
19.0199
18.585
18.813
19.0521
19.2549
19.4035
19.5039
19.5705
19.6137
19.6391
19.6485
19.6418
19.62
19.5875
19.549
19.5075
19.4639
19.4184
19.3709
19.3224
19.2742
19.2273
19.1819
19.138
18.9037
19.1615
19.3738
19.5247
19.6248
19.6906
19.7345
19.7624
19.7762
19.774
19.7549
19.7228
19.6833
19.6398
19.594
19.5462
19.4967
19.4462
19.3965
19.3486
19.3027
19.2588
18.9027
19.1597
19.3712
19.5215
19.6209
19.6864
19.7298
19.7573
19.7705
19.7678
19.7483
19.7158
19.6759
19.6321
19.586
19.538
19.4883
19.4379
19.3883
19.3406
19.2949
19.2514
18.8113
19.049
19.25
19.3969
19.4959
19.5612
19.6031
19.6271
19.6351
19.6268
19.6035
19.5698
19.5303
19.4878
19.4434
19.3972
19.3493
19.3004
19.2522
19.2053
19.16
19.1164
19.075
18.6624
18.8709
19.0587
19.2046
19.3074
19.3758
19.4185
19.4401
19.4429
19.4291
19.4035
19.3717
19.3374
19.302
19.2657
19.228
19.1885
19.1476
19.1065
19.0661
19.0262
18.9871
18.9494
18.4985
18.6809
18.8619
19.0156
19.1311
19.2101
19.2589
19.2814
19.2797
19.2592
19.2288
19.196
19.1647
19.136
19.1094
19.0841
19.0587
19.0328
19.0067
18.9805
18.9541
18.9276
18.9016
18.3623
18.5292
18.7146
18.8899
19.0338
19.1384
19.2051
19.2355
19.2327
19.2063
19.1693
19.1312
19.097
19.0688
19.047
19.0313
19.0204
19.0135
19.0097
19.0081
19.0074
19.0075
19.0078
18.4425
18.6493
18.8683
19.0685
19.2273
19.3348
19.3883
19.3933
19.3662
19.3243
19.279
19.2371
19.2023
19.1769
19.1621
19.1575
19.1629
19.1779
19.2012
19.2314
19.2655
19.3042
19.3451
18.4372
18.6907
18.9864
19.2846
19.5399
19.719
19.8153
19.8407
19.822
19.7811
19.7309
19.6795
19.6329
19.5959
19.5719
19.5629
19.57
19.5938
19.6342
19.6907
19.762
19.8439
19.9425
18.5354
18.8718
19.2948
19.7654
20.1999
20.5236
20.7173
20.8012
20.8162
20.7922
20.7474
20.6938
20.6402
20.5943
20.5628
20.5511
20.5627
20.6007
20.6674
20.7649
20.8951
21.0584
21.245
18.79
19.2791
19.9207
20.693
21.4419
22.0324
22.4331
22.6686
22.7767
22.7935
22.7588
22.702
22.6428
22.5952
22.5695
22.5744
22.617
22.7038
22.8411
23.0358
23.2954
23.6276
24.0411
23.688
24.8549
25.7892
26.493
27.0374
27.3266
27.426
27.4338
27.42
27.4286
27.4881
27.6189
27.8357
28.1495
28.5708
29.1104
29.7796
30.5904
31.5574
26.1842
28.4946
30.5348
32.0397
40.2308
40.8396
41.4598
41.7177
41.8647
42.0491
42.3384
42.7623
43.3273
44.0238
44.8369
45.7548
46.773
47.8969
49.1454
45.8412
51.7444
55.5953
56.5548
55.7834
81.3275
80.4197
79.2892
78.2501
77.3212
76.4892
75.7591
75.1441
74.6552
74.2773
74.0103
73.8648
73.8619
106.39
157.925
137.05
123.07
113.683
158.303
146.19
136.404
128.434
121.814
116.216
111.426
107.301
103.73
100.634
97.9611
95.685
352.339
384.867
294.557
232.092
259.272
227.142
201.922
181.675
165.58
152.707
142.224
133.544
126.255
120.062
114.75
110.168
843.034
577.886
459.796
351.495
301.677
264.668
235.853
212.813
193.972
178.341
165.232
154.155
144.738
136.369
128.968
385.935
347.824
313.074
283.015
257.471
235.456
216.473
200.111
185.972
173.699
162.992
153.556
145.167
18.8334
19.041
19.3456
19.7502
20.2202
20.7064
21.1572
21.5318
21.8093
21.9863
22.0715
22.0834
22.0513
22.0064
19.1292
19.5342
20.1629
21.0281
22.0225
23.0936
24.1422
25.0414
25.7009
26.094
26.2507
26.255
26.2325
26.1801
19.5444
20.3085
21.5847
23.4096
25.5249
28.1855
31.0461
33.5448
35.2785
36.1362
36.2979
36.2985
36.252
36.1639
36.0808
36.029
36.0267
36.1182
36.4604
36.9957
37.7016
38.5574
19.386
20.1141
21.5228
24.0281
27.9808
29.1999
35.2818
44.2078
53.1233
59.3626
62.2401
62.3836
61.6898
76.9632
75.3793
74.1304
73.2621
73.0792
73.8314
75.0951
76.6776
78.4316
80.2529
19.6763
20.8382
23.2754
28.1283
30.6349
45.6523
78.3582
124.799
156.127
168.125
166.699
159.698
151.324
142.567
173.522
167.242
163.539
161.989
161.042
159.873
158.385
156.467
154.118
19.8961
21.5621
25.3467
27.9618
45.4008
100.956
193.482
455.202
523.227
508.287
497.054
428.305
364.203
360.698
328.38
343.998
316.126
291.212
268.971
249.049
231.311
215.712
202.046
190.067
19.9305
21.7406
23.2268
32.9556
71.801
172.577
1013.93
961.598
667.418
509.302
430.603
358.913
316.689
284.321
258.838
238.178
221.104
206.766
194.567
184.071
19.6951
21.4049
22.8992
34.4991
64.1512
363.763
660.049
505.55
412.762
343.01
306.11
277.688
254.704
235.542
219.476
205.914
194.406
184.611
19.2414
20.5422
23.9117
27.1439
54.6593
160.668
1014.67
896.111
573.667
412.998
320.12
281.974
253.842
232.11
214.739
200.562
188.82
178.967
170.612
163.481
157.385
18.8035
19.4061
20.9183
22.1471
28.571
45.8622
87.2849
230.491
306.339
312.546
302.187
283.991
221.06
204.621
192.885
177.775
171.605
165.806
160.391
155.325
150.619
146.305
142.396
138.89
135.788
133.099
18.4951
18.7189
19.29
20.3501
21.0661
23.6039
27.872
33.7609
40.6749
47.5006
54.4914
61.2632
66.6892
69.873
75.1233
76.0696
76.726
77.608
78.8267
80.3676
82.0138
83.6812
85.3173
86.8999
88.4432
89.9926
18.3097
18.3769
18.5875
19.0061
19.663
20.5309
21.7009
23.4113
25.6918
27.9094
29.7141
31.6935
33.0528
33.8093
34.2913
34.6327
34.9902
35.4681
36.1443
37.0553
38.2284
39.6774
41.4143
43.4296
45.7106
48.2412
18.2068
18.2129
18.3071
18.524
18.8863
19.4217
20.1469
21.1059
22.1224
22.9259
23.4397
23.8136
24.0537
24.1762
24.2357
24.279
24.3473
24.4729
24.6815
24.9907
25.4213
25.9885
26.7113
27.6102
28.7044
30.0122
18.1576
18.1421
18.1953
18.3393
18.591
18.9633
19.4513
20.0082
20.5289
20.9192
21.1364
21.2339
21.268
21.2667
21.2508
21.2382
21.2456
21.288
21.3797
21.5313
21.7511
22.0493
22.4352
22.9171
23.5019
24.1824
18.1477
18.1313
18.1763
18.2976
18.5015
18.7844
19.1176
19.4591
19.759
19.9809
20.0986
20.1316
20.1186
20.0862
20.0508
20.0244
20.0169
20.0372
20.0934
20.1908
20.3336
20.5268
20.7733
21.0734
21.4233
18.1692
18.1667
18.2251
18.3523
18.5431
18.7782
19.0287
19.2574
19.4441
19.5768
19.6481
19.6628
19.6444
19.6154
19.5911
19.5807
19.5913
19.6274
19.6921
19.7883
19.9187
20.085
20.2861
20.5165
20.7711
18.2161
18.2409
18.3312
18.4873
18.6915
18.9128
19.1184
19.2841
19.4076
19.4973
19.5533
19.5726
19.5656
19.5509
19.5425
19.5471
19.568
19.606
19.6609
19.7318
19.8191
19.9226
20.0404
20.1685
20.3035
18.3458
18.4853
18.6916
18.9312
19.1619
19.3538
19.4973
19.6025
19.6824
19.7412
19.7775
19.7943
19.8031
19.8143
19.833
19.8601
19.8948
19.9346
19.9765
20.0196
20.0648
20.1119
20.1579
20.2017
18.665
18.9391
19.2342
19.4954
19.699
19.8503
19.9678
20.0652
20.1483
20.2159
20.2651
20.3001
20.328
20.354
20.3795
20.4039
20.4255
20.4416
20.453
20.4622
20.469
20.4709
20.4675
18.829
19.1722
19.5297
19.8333
20.0627
20.2339
20.3726
20.4944
20.6053
20.7039
20.7825
20.8362
20.8701
20.8931
20.9103
20.9228
20.93
20.93
20.9239
20.9146
20.9027
20.8859
20.8631
19.3132
19.7132
20.0498
20.3032
20.4947
20.6537
20.7981
20.9371
21.0694
21.1817
21.2624
21.3141
21.3488
21.3744
21.3932
21.4048
21.4072
21.4016
21.3921
21.3795
21.3607
21.3345
19.3116
19.7103
20.0452
20.2972
20.4876
20.6458
20.7892
20.9273
21.0585
21.1697
21.2496
21.3005
21.3345
21.3595
21.3777
21.3889
21.3911
21.3861
21.3776
21.3659
21.3482
21.3232
19.1699
19.5251
19.8258
20.0527
20.2221
20.3593
20.4793
20.5883
20.6848
20.7612
20.8132
20.8454
20.8667
20.8824
20.8937
20.8999
20.8991
20.8924
20.8827
20.8707
20.8539
20.8313
20.8039
18.9373
19.2305
19.4893
19.6907
19.8404
19.9562
20.0517
20.1325
20.197
20.243
20.2747
20.2994
20.322
20.3441
20.3654
20.3841
20.3978
20.407
20.4142
20.4194
20.4201
20.4154
20.4065
18.6906
18.9291
19.1583
19.3483
19.4901
19.5929
19.6702
19.727
19.7613
19.776
19.7828
19.7919
19.8079
19.832
19.8633
19.8997
19.938
19.9774
20.0184
20.061
20.1023
20.1415
20.1784
18.4869
18.6903
18.9105
19.1143
19.2771
19.3965
19.4812
19.5323
19.5476
19.5372
19.5196
19.5081
19.509
19.5257
19.5594
19.6098
19.6761
19.7582
19.8563
19.9684
20.0904
20.2186
20.3481
18.543
18.7778
19.0269
19.2527
19.4346
19.5615
19.6277
19.6383
19.616
19.5827
19.5535
19.5372
19.54
19.5671
19.6213
19.7049
19.8203
19.9692
20.1509
20.361
20.5943
20.845
21.0979
18.5014
18.7836
19.1147
19.4544
19.7509
19.9683
20.0827
20.1141
20.0996
20.0652
20.0266
19.9955
19.9816
19.9936
20.0391
20.1244
20.2524
20.428
20.6542
20.9313
21.2569
21.6315
22.058
18.5901
18.9597
19.4453
20.013
20.542
20.9349
21.1562
21.2585
21.296
21.2964
21.2808
21.2677
21.2732
21.3123
21.3981
21.5421
21.7522
22.0388
22.4118
22.8802
23.4523
24.1219
24.8828
18.8846
19.4149
20.1571
21.1034
22.1592
22.9704
23.494
23.8793
24.1386
24.2838
24.3686
24.4413
24.5416
24.7021
24.9445
25.2919
25.7641
26.3822
27.1677
28.1439
29.3344
30.7589
32.4163
25.6339
27.8682
29.7601
32.0189
33.6776
34.6888
35.3861
35.9238
36.4833
37.1725
38.0806
39.2577
40.7276
42.4944
44.5502
46.8858
49.4865
52.3367
55.4311
29.7528
33.7526
37.5451
41.0643
44.0254
45.8656
73.9111
75.5451
76.8482
78.2576
79.8867
81.7416
83.6947
85.6067
87.4333
89.1596
90.8066
92.4228
94.082
85.4963
95.8022
103.104
107.914
109.897
109.427
166.131
161.085
156.397
152.011
147.883
144.029
140.477
137.244
134.333
131.744
129.488
127.591
553.599
568.141
462.279
351.324
348.456
297.361
317.557
277.608
248.589
226.544
209.205
195.253
183.83
174.334
166.343
159.561
153.786
148.885
1190.97
668.561
499.199
393.219
345.792
306.324
276.171
252.195
232.47
216.126
202.477
191
181.302
173.085
166.125
671.6
544.728
446.697
363.323
319.633
285.795
259.444
238.318
220.987
206.489
194.208
183.696
174.62
166.732
452.068
340.221
313.684
289.614
267.705
247.707
229.948
214.369
200.743
188.81
178.325
169.071
160.873
18.7248
18.8731
19.1119
19.4575
19.8897
20.37
20.8472
21.2727
21.6159
21.8669
22.026
22.101
22.1071
22.1044
22.0819
18.934
19.2327
19.7349
20.4874
21.4214
22.5232
23.684
24.7539
25.6124
26.2084
26.5341
26.6299
26.6844
26.6889
26.6535
19.2236
19.7937
20.8215
22.4129
24.4709
27.4267
30.7547
33.8049
36.1291
37.5497
38.0664
38.1468
38.1043
37.9481
37.8159
37.6395
37.457
37.292
37.1512
37.0448
36.9788
36.9567
36.9804
19.6123
20.6631
22.6602
26.1196
27.5801
35.0167
45.8654
56.2896
64.1414
68.6426
69.9133
69.1458
67.483
65.6589
78.1928
75.8666
73.8371
72.1323
70.7625
69.7009
68.9073
68.341
67.9667
20.0797
21.8815
25.5623
27.9291
44.3881
87.905
132.793
177.1
198.63
201.755
194.114
183.469
169.694
155.502
143.91
159.966
152.273
146.055
140.975
136.752
133.164
130.033
127.228
20.5181
23.1434
25.1017
39.2087
101.348
269.72
515.998
1315.36
663.365
750.804
713.126
555.703
441.577
343.553
328.027
290.352
289.757
265.339
245.402
228.57
214.221
201.77
190.849
181.188
20.7338
23.9304
27.4178
53.3694
152.463
893.769
642.496
477.514
373.394
326.078
291.494
264.779
243.479
226.057
211.507
199.159
188.435
20.4761
23.4369
27.3731
57.5561
319.855
656.243
465.787
323.321
268.701
235.077
211.296
193.924
180.44
169.541
160.4
152.483
19.7636
21.794
24.0524
45.7908
129.545
782.31
559.681
418.457
303.124
268.523
243.001
223.376
207.824
195.069
184.322
175.083
167.043
159.957
19.0623
20.252
22.9966
26.2012
47.0982
141.734
355.421
662.937
809.124
469.448
664.969
474.773
425.422
409.261
360.732
294.575
270.469
250.2
232.639
217.309
204.038
192.558
182.636
174.041
166.645
160.236
18.6159
18.9956
19.9581
21.6861
23.3931
29.0885
38.3713
50.0714
68.2686
92.3744
116.129
143.404
166.655
179.944
184.808
178.185
172.588
167.95
164
160.49
157.193
154.023
150.951
147.995
145.227
142.723
18.3663
18.4831
18.7891
19.361
20.1475
21.1517
22.5787
23.9049
29.508
38.7044
47.2504
62.7829
66.7816
68.2839
68.9612
69.3865
70.1397
71.6032
73.7767
76.5569
79.8088
83.4162
87.1743
90.8852
94.4837
97.9273
18.2405
18.2638
18.3877
18.6514
19.0608
19.6631
20.4967
21.0915
23.1614
25.7801
27.785
30.7604
32.1164
32.9233
33.4955
34.1004
34.8704
35.8864
37.2583
39.004
41.1179
43.576
46.3791
49.5308
53.023
18.19
18.185
18.2552
18.4252
18.7167
19.151
19.7856
20.6397
21.5656
22.4168
22.9453
23.2253
23.6873
24.0808
24.4685
24.9174
25.483
26.2028
27.1139
28.2503
29.6222
31.23
33.0703
35.1387
37.4259
18.1924
18.1907
18.258
18.4115
18.6622
19.0004
19.4386
19.9065
20.3277
20.6942
20.935
21.0428
21.1858
21.3492
21.545
21.8049
22.1629
22.6487
23.2864
24.09
25.0731
26.2321
27.5539
29.0063
30.5559
18.2369
18.2617
18.36
18.541
18.7976
19.104
19.4301
19.7116
19.9451
20.1497
20.2873
20.3473
20.4236
20.5319
20.6995
20.9529
21.3163
21.8045
22.428
23.1938
24.0813
25.0964
26.2187
27.4014
28.63
18.317
18.3908
18.5532
18.8032
19.1105
19.424
19.6998
19.9087
20.0806
20.2384
20.3771
20.4753
20.547
20.649
20.8083
21.0304
21.3206
21.6829
22.1208
22.6347
23.2299
23.91
24.6559
25.4342
26.2186
18.5696
18.8327
19.1971
19.6034
19.9723
20.2658
20.4849
20.6769
20.864
21.0495
21.217
21.3637
21.515
21.6913
21.9023
22.1542
22.448
22.7763
23.1238
23.486
23.8694
24.2689
24.6539
25.0275
19.1696
19.7043
20.2791
20.7927
21.2111
21.5529
21.8545
22.1443
22.4368
22.7173
22.9688
23.1976
23.4181
23.6401
23.8649
24.0916
24.3123
24.5116
24.693
24.8677
25.0315
25.1676
25.2754
19.4842
20.2055
20.9842
21.6746
22.2375
22.7021
23.1244
23.5333
23.9465
24.3519
24.7118
24.9976
25.2221
25.4167
25.5937
25.7559
25.8982
26.0061
26.0861
26.1559
26.2117
26.2391
26.238
20.5156
21.4471
22.2868
22.9825
23.5655
24.1134
24.6723
25.2685
25.8754
26.4139
26.8257
27.1234
27.3633
27.5717
27.7556
27.9085
28.0152
28.088
28.1487
28.1901
28.1941
28.16
20.5121
21.4394
22.2739
22.965
23.5452
24.0909
24.6473
25.2409
25.8452
26.3818
26.7923
27.0891
27.3281
27.536
27.7202
27.8744
27.9849
28.0632
28.1293
28.1763
28.1858
28.1564
20.2017
20.9753
21.6602
22.2194
22.6831
23.1057
23.5146
23.9274
24.3321
24.6918
24.9771
25.2003
25.393
25.5684
25.7293
25.8693
25.9745
26.0523
26.1198
26.1736
26.1985
26.195
26.1733
19.7026
20.2742
20.7842
21.1999
21.5411
21.8428
22.1321
22.4228
22.6991
22.9458
23.169
23.3824
23.596
23.8112
24.0276
24.2375
24.4251
24.5947
24.7579
24.9105
25.0356
25.1326
25.212
19.1972
19.6025
19.9701
20.2623
20.4815
20.6728
20.8655
21.0581
21.2303
21.3795
21.5316
21.7058
21.9111
22.1525
22.4309
22.7386
23.0604
23.3923
23.7405
24.0996
24.4468
24.786
25.1133
18.8039
19.1101
19.4223
19.6965
19.9019
20.0675
20.2166
20.3463
20.4376
20.5035
20.5991
20.7501
20.9616
21.2371
21.5838
22.0042
22.4978
23.0712
23.73
24.4552
25.2112
25.9715
26.7117
18.7994
19.1065
19.4324
19.712
19.9395
20.1343
20.2621
20.3141
20.3743
20.4597
20.597
20.8119
21.124
21.5539
22.1131
22.8074
23.6158
24.5473
25.5851
26.6908
27.8489
29.0162
30.092
18.6638
19.0018
19.439
19.9117
20.3329
20.6889
20.9177
21.0167
21.1422
21.2795
21.442
21.661
21.9678
22.3932
22.9621
23.6915
24.5925
25.6623
26.8925
28.2533
29.7149
31.2952
32.9392
18.7169
19.147
19.7957
20.658
21.602
22.447
22.9778
23.2578
23.7107
24.0901
24.4574
24.8795
25.4118
26.0961
26.9702
28.0634
29.3829
30.938
32.7298
34.7582
37.0159
39.407
41.9946
19.0629
19.6601
20.6412
22.1686
22.509
23.5679
24.5091
30.6208
32.0747
33.0141
33.7298
34.4745
35.3688
36.5112
38.006
39.8817
42.1304
44.7525
47.7457
51.1161
54.8637
58.9174
63.0599
26.118
30.6523
34.6608
65.4711
70.9839
73.616
74.9536
75.7734
76.919
78.6752
81.0948
84.1072
87.5991
91.1614
94.6972
98.148
101.45
104.593
107.611
41.3353
56.9762
73.9005
93.3883
109.138
117.18
182.75
177.363
172.695
168.715
165.219
161.968
158.824
155.7
152.594
149.567
146.703
144.083
141.777
151.883
201.414
204.643
236.812
244.712
241.891
288.069
265.15
245.837
229.085
214.447
201.7
190.65
181.066
172.73
165.473
159.152
153.629
1844.38
1007.21
597.706
541.418
496.439
393.552
308.161
271.989
245.406
224.93
208.748
195.583
184.568
175.202
167.092
159.963
153.64
607.669
438.65
324.082
271.502
238.656
215.046
197.404
183.527
172.223
162.729
154.542
147.324
140.84
654.953
488.87
373.658
325.594
290.135
262.551
240.561
222.641
207.75
195.055
184.097
174.575
166.261
522.656
411.949
291.596
267.212
247.376
230.62
216.337
203.931
193.036
183.384
174.776
167.072
160.174
18.7444
18.9141
19.1842
19.5518
19.9963
20.4701
20.918
21.3049
21.6116
21.8345
21.9743
22.0407
22.07
22.0956
22.1026
18.9897
19.3519
19.9405
20.7376
21.7773
22.9592
24.1138
25.1991
26.0376
26.5826
26.8306
26.8897
26.9527
26.9834
26.9771
19.3546
20.0907
21.2915
23.0184
25.868
29.3361
32.6467
36.872
39.407
40.5938
40.5285
40.6067
40.5423
40.3169
39.975
39.5804
39.1786
38.7945
38.4448
38.1324
37.856
37.6145
37.4067
19.8853
21.2897
23.6849
24.9167
31.6983
43.1323
54.6135
86.691
89.5442
89.2861
87.4706
85.5131
81.0107
75.6599
70.7859
73.446
71.0695
68.9389
67.0629
65.4268
64.0021
62.7607
61.6788
20.5798
23.0496
24.577
35.0242
72.1405
122.951
173.774
194.81
201.056
197.947
188.886
176.905
162.706
147.429
133.607
123.496
134.393
127.829
122.08
117.047
112.634
108.743
105.286
21.306
25.3401
29.6388
59.5974
179.477
488.067
550.918
514.421
433.375
416.44
446.33
549.059
547.612
396.269
340.74
281.205
271.778
241.986
219.459
201.584
186.98
174.785
164.421
155.489
21.3658
23.0773
36.7397
71.2544
715.376
940.656
502.212
385.088
310.486
275.917
249.34
228.169
210.901
196.52
184.345
173.894
21.0363
22.7981
37.5754
88.1818
1004.09
452.39
375.377
289.156
259.919
238.515
221.568
207.603
195.753
185.47
176.399
20.2015
21.3924
31.06
87.5543
739.635
341.877
279.03
259.651
233.041
212.533
200.58
192.091
183.931
176.359
169.412
163.082
157.225
19.4648
21.0552
22.945
36.2321
88.6914
353.323
1009.73
441.941
490.646
612.954
667.613
734.051
553.955
524.783
386.419
324.87
274.556
253.889
236.105
220.185
206.414
194.501
184.118
175.001
166.984
160.007
18.7699
19.3907
20.7088
22.2291
28.1909
39.6111
53.7749
70.5176
112.295
249.626
409.607
444.883
425.406
387.067
346.103
282.041
262.842
246.539
232.379
219.795
208.352
198.107
188.833
180.351
172.746
166.016
18.4389
18.6228
19.058
19.7506
20.623
21.7183
22.8892
28.4886
52.0149
130.196
211.656
225.217
249.361
232.978
216.981
203.499
192.608
184.011
177.351
172.16
167.96
164.442
161.402
158.709
156.156
153.589
18.2887
18.3393
18.5076
18.8212
19.2684
19.8475
20.3971
23.1503
30.2504
46.206
57.2485
63.5536
91.9927
92.67
92.4722
92.4099
92.9415
94.1841
96.0847
98.5293
101.036
103.507
105.942
108.353
110.715
18.2425
18.259
18.363
18.5775
18.9184
19.3736
19.7399
21.2779
23.9201
27.6258
31.147
32.8784
43.2346
46.4715
49.2405
51.7571
54.3609
57.1756
60.2227
63.4912
66.9459
70.5072
74.1211
77.6739
81.0739
18.2687
18.299
18.4149
18.636
18.9681
19.3646
19.5681
20.431
21.4586
22.6826
24.1818
25.1211
28.617
30.4586
32.3443
34.372
36.6895
39.3572
42.3794
45.6837
49.2703
53.007
56.7863
60.4011
63.8677
18.3556
18.4388
18.6257
18.9269
19.3109
19.7758
20.3161
20.7997
21.2042
21.2869
21.6934
22.0807
24.2197
25.8153
27.6325
29.7786
32.32
35.2458
38.5358
41.8803
45.2586
48.7056
52.1553
55.503
58.8123
18.4991
18.6797
19.0093
19.4816
20.0094
20.5445
20.9974
21.3113
21.7559
22.2174
22.7232
23.1493
23.5561
24.6622
26.0748
27.5418
29.1588
31.0031
33.1346
35.5606
38.3088
41.3277
44.4804
47.509
50.3245
19.0211
19.5874
20.3376
21.1479
21.8821
22.4419
22.8586
23.4645
24.0546
24.6644
25.2573
25.8175
26.4569
27.2617
28.291
29.5901
31.16
32.9314
34.7523
36.5596
38.3874
40.2049
41.8079
20.3389
21.5822
22.9809
24.3223
25.4899
26.4624
27.2912
28.0626
28.8953
29.7543
30.5541
31.334
32.1378
32.9858
33.8704
34.8029
35.7389
36.5443
37.2824
38.0323
38.7409
39.3039
21.0734
22.903
25.0651
27.0881
28.7939
30.206
31.4237
32.5205
33.6576
34.8325
35.8827
36.6681
37.2595
37.7716
38.2348
38.6631
39.0329
39.2531
39.4085
39.576
39.709
39.7463
23.7275
26.5129
29.1794
31.4307
33.3325
35.2052
37.182
39.3426
41.366
42.9416
43.9664
44.6065
45.1039
45.5162
45.8777
46.1582
46.2805
46.326
46.3882
46.4046
46.3009
46.1075
23.718
26.4883
29.1362
31.3723
33.2668
35.1343
37.1045
39.2599
41.2822
42.8614
43.8919
44.5368
45.0409
45.4675
45.853
46.1618
46.3088
46.3792
46.4674
46.5085
46.4237
46.2472
22.8965
25.0548
27.0805
28.7914
30.2193
31.4556
32.5697
33.7239
34.9161
35.9791
36.7706
37.3596
37.8702
38.3295
38.7531
39.1123
39.3193
39.4609
39.6126
39.7288
39.7468
39.7035
21.5828
22.9787
24.32
25.4882
26.4708
27.3126
28.093
28.9333
29.7931
30.5831
31.3436
32.1169
32.9275
33.7662
34.642
35.5215
36.2722
36.9501
37.6324
38.2755
38.7776
39.1888
39.6217
20.3408
21.1512
21.8858
22.4472
22.8722
23.4924
24.1771
24.8742
25.5023
26.067
26.6929
27.4631
28.4318
29.6308
31.0559
32.6416
34.2501
35.8496
37.4811
39.1028
40.5558
41.9335
43.2692
19.482
20.0054
20.538
20.9898
21.2991
21.7228
22.1573
22.6287
23.0349
23.4263
24.5095
25.8932
27.3255
28.8936
30.6861
32.7721
35.1489
37.8517
40.8421
43.9661
46.9793
49.7766
52.3365
19.3146
19.7818
20.3272
20.8151
21.2082
21.2255
21.4614
21.7679
23.9012
25.2497
26.8281
28.7501
31.0266
33.7202
36.8123
39.9741
43.2006
46.5306
49.9075
53.2398
56.568
59.7071
62.2535
18.9724
19.3724
19.5686
20.1799
20.7954
21.4496
22.2261
22.7659
28.1766
29.7605
31.4027
33.1989
35.266
37.7001
40.5038
43.6274
47.0676
50.6806
54.3931
57.956
61.3994
64.7776
67.9198
18.9207
19.3777
19.6607
20.7592
22.3308
24.2974
26.4079
27.6628
43.049
45.9791
48.5464
50.909
53.3937
56.1228
59.114
62.349
65.7826
69.3453
72.9868
76.6736
80.2456
83.4748
87.012
19.2711
19.8635
20.245
22.1156
26.7128
33.7693
39.9423
43.0114
90.8135
92.0063
92.3332
92.7219
93.6476
95.2416
97.4648
100.223
102.952
105.584
108.138
110.645
113.088
115.474
117.529
38.5653
57.7557
100.959
117.306
258.304
241.522
225.058
210.785
199.079
189.736
182.424
176.624
171.86
167.81
164.29
161.183
158.076
155.212
152.599
73.3587
171.741
335.033
381.833
371.492
335.342
298.272
278.38
260.056
244.388
230.55
217.816
206.521
196.299
186.932
178.503
171.03
164.43
158.545
318.48
535.976
511.425
467.793
410.617
358.94
311.535
274.391
252.313
234.069
218.325
204.713
192.857
182.509
173.453
165.479
158.203
150.895
824.861
765.073
1123.84
1364.47
711.047
479.319
324.253
276.289
227.744
207.533
194.973
186.438
178.928
171.766
165.106
159.011
153.424
148.221
445.238
282.962
273.628
285.959
257.178
236.101
219.362
205.555
193.847
183.698
174.753
166.777
159.608
1060.12
486.144
397.163
311.716
277.312
250.74
229.521
212.2
197.786
185.588
175.129
166.072
158.176
873.952
425.758
277.553
247.206
224.285
206.104
191.251
178.845
168.3
159.21
151.298
144.373
138.306
18.7454
18.93
19.225
19.6211
20.086
20.5591
20.9897
21.3451
21.6204
21.8181
21.9391
21.9955
22.0383
22.0853
22.1193
19.0209
19.4306
20.1101
21.0235
22.178
23.4001
24.6287
25.6363
26.3573
26.7952
26.9594
27.0083
27.0645
27.1128
27.1335
19.4515
20.321
21.8136
23.9714
27.3441
30.9341
35.7242
38.9375
40.7095
41.3871
41.2535
41.1391
41.0642
40.8579
40.5062
40.0959
39.6151
39.1404
38.7089
38.3171
37.9659
37.6538
37.3789
20.1175
21.8329
25.1343
26.9812
36.6904
49.3472
82.8111
86.8171
87.7729
87.0579
85.2256
82.5923
80.2292
75.2066
69.9804
71.0413
68.5003
66.1539
64.0523
62.1882
60.5382
59.0752
57.7748
21.0412
24.0989
26.5654
45.3585
96.6903
152.343
182.875
195.179
193.415
186.845
178.298
165.81
154.169
140.275
126.49
113.761
125.756
117.828
111.015
105.131
100.022
95.5585
91.6338
21.8679
23.6004
36.5193
102.534
370.295
984.276
467.746
378.255
384.733
382.475
369.581
387.396
541.157
465.971
305.124
273.45
224.061
216.064
194.279
177.022
162.942
151.219
141.297
132.788
22.3898
25.224
46.0879
142.409
559.321
394.733
301.684
261.826
233.185
211.066
193.28
178.586
166.194
155.584
21.9958
25.0226
49.8381
243.531
560.717
393.496
302.235
265.749
239.299
218.599
201.789
187.788
175.858
165.46
20.8612
22.9205
40.738
123.505
357.406
353.687
287.267
257.974
235.545
217.216
201.945
188.95
177.714
167.874
159.125
19.8593
22.0754
25.2506
47.8744
236.932
619.68
219.251
261.37
478.899
573.609
641.714
696.84
586.482
442.697
322.104
280.598
255.196
241.071
226.619
213
200.579
189.338
179.209
170.069
161.742
18.9163
19.771
21.594
23.9359
33.2348
51.4675
64.4172
81.1846
125.423
883.551
560.191
434.113
362.623
320.057
300.713
280.512
260.536
242.814
227.674
215.128
204.135
191.822
180.55
171.181
162.982
18.5117
18.7699
19.347
20.1968
21.1767
22.4609
24.0079
32.5946
142.208
999.428
552.46
423.003
366.3
322.698
289.82
264.468
244.798
229.643
217.3
206.957
198.267
190.721
183.701
176.897
169.91
18.3455
18.436
18.6709
19.052
19.4922
19.875
21.2932
28.2472
114.769
266.422
352.981
452.54
386.89
334.781
295.352
265.078
241.385
222.48
207.13
194.465
183.949
175.24
168.09
162.27
157.389
18.3147
18.371
18.5371
18.8287
19.1922
19.4739
20.6915
26.4983
62.6611
86.6441
125.434
178.586
179.887
256.998
236.904
219.375
204.474
191.953
181.465
172.59
165.021
158.428
152.581
148.112
143.996
18.3829
18.4762
18.6891
19.0433
19.4587
19.7083
20.8353
24.4357
32.637
49.5255
61.3902
74.1173
75.5618
129.171
126.895
125.634
125.39
126.041
127.333
128.192
130.082
131.135
131.452
129.075
125.529
18.5438
18.7454
19.1218
19.6752
20.2531
20.4775
21.4172
23.1467
25.0694
28.5362
34.6196
39.6445
43.5119
79.5599
84.9559
90.5989
96.8239
103.371
110.179
108.657
107.708
108.8
111.308
114.892
118.944
18.8042
19.213
19.927
20.9074
21.8997
22.0459
22.8658
23.7955
28.2331
28.3406
30.03
32.42
34.135
51.3205
58.4213
58.4877
60.7595
65.3858
72.0768
80.8806
90.9469
101.172
110.68
118.413
124.039
19.9098
21.1765
22.8485
24.7694
24.8965
25.7161
26.5794
32.9866
32.7615
33.1581
34.2855
35.5335
37.4893
40.6529
45.3734
51.5578
59.0312
67.5547
76.1234
83.8918
90.7311
96.6771
101.497
22.9743
26.1353
30.38
34.6564
38.2836
41.0179
40.6997
40.8532
41.9122
44.0294
46.3124
48.9109
52.3459
56.6113
61.3652
66.3984
71.5116
75.9653
79.3919
82.7001
85.7624
88.1457
37.0816
43.7206
48.9316
52.8378
52.3386
52.4133
53.5543
55.7884
58.3381
60.4076
61.8477
63.0058
63.9809
64.8976
65.8334
66.4804
66.6356
67.0103
67.4972
67.879
41.8511
51.0274
58.11
63.6239
69.2349
74.9533
81.1075
80.174
80.1631
80.6942
80.7103
80.6204
80.5551
80.6072
80.7922
80.7075
80.2019
79.8662
79.6634
79.2995
78.572
41.7746
50.8899
57.9109
63.4058
69.0051
74.714
80.8813
80.4147
81.3574
82.8274
83.7006
84.4119
85.1308
85.9802
86.9486
87.535
87.6724
87.952
88.3785
88.5119
88.1714
37.1882
43.9472
49.218
53.2319
53.1577
54.1068
56.1842
59.5863
63.3066
66.0623
67.5855
68.6178
69.3924
70.0713
70.7226
70.9914
70.7517
70.6658
70.6569
70.4571
69.9064
26.1577
30.4455
34.7715
38.4115
41.2027
41.361
42.3112
44.0545
46.7213
49.45
51.8999
54.2228
56.5068
58.746
61.0522
63.5483
65.7009
67.215
68.8876
70.6057
72.0733
72.9459
73.9708
22.8634
24.7926
25.4255
26.9339
28.3952
33.2304
35.3356
35.5736
37.0948
39.0344
41.5061
44.9128
49.5689
55.4743
62.3147
69.5575
75.9338
80.986
85.3231
89.1341
92.015
93.7184
95.3115
20.8851
21.8589