/*--------------------------------*- C++ -*----------------------------------*\
  =========                 |
  \\      /  F ield         | OpenFOAM: The Open Source CFD Toolbox
   \\    /   O peration     | Website:  https://openfoam.org
    \\  /    A nd           | Version:  13
     \\/     M anipulation  |
\*---------------------------------------------------------------------------*/
FoamFile
{
    format      ascii;
    class       volScalarField;
    location    "700";
    object      p;
}
// * * * * * * * * * * * * * * * * * * * * * * * * * * * * * * * * * * * * * //

dimensions      [0 2 -2 0 0 0 0];

internalField   nonuniform List<scalar> 
169916
(
10.0174
7.26881
3.96979
0.269389
-3.51972
-6.95139
-9.61185
-11.2949
-12.0553
-12.0454
-11.3976
-10.2246
-8.67168
-6.94871
11.4004
8.19057
4.11494
-0.686553
-5.77278
-10.4071
-13.957
-15.9649
-16.5866
-16.1325
-14.8294
-12.8557
-10.4144
-7.86145
13.4662
9.80556
4.77813
-1.5683
-8.53713
-14.8287
-19.5895
-22.0611
-22.5145
-21.4083
-19.1054
-15.9766
-12.2575
-8.55517
-5.51448
-3.25448
-1.67024
-0.629645
-0.0149287
0.281341
0.353313
0.278101
18.8915
16.5258
12.5892
6.50241
-2.02225
-12.2741
-18.6952
-25.4827
-28.7509
-29.2504
-27.39
-23.8341
-18.7135
-13.2585
-8.26217
-4.67575
-2.18648
-0.547184
0.436904
0.935616
1.09567
1.03889
0.85739
22.6667
20.951
17.3831
10.8192
0.108546
-11.4609
-25.9949
-37.9492
-43.4224
-42.7614
-37.6938
-30.4641
-22.1468
-14.2243
-6.33183
-3.03972
-0.855454
0.530296
1.28534
1.54992
1.48476
1.23245
0.896227
27.0898
26.7444
24.8402
20.0039
9.15341
-8.02847
-34.0784
-59.2831
-65.9674
-64.7585
-52.4395
-36.6046
-23.7254
-11.8741
-2.50297
0.0639578
0.994478
1.42307
1.54923
1.40769
1.08842
0.688526
0.275739
-0.100094
31.3797
32.7688
33.6794
29.7775
24.5605
8.76857
-19.1706
-68.1925
-92.3638
-128.915
-77.0586
-42.5911
-23.323
-9.96568
-4.60753
-2.5656
-0.719905
0.231386
0.533877
0.434843
0.114737
-0.288511
-0.693565
-1.04823
-1.30138
34.4597
36.9465
39.6481
39.7218
39.8433
34.3485
16.28
-27.9708
-50.1778
-92.3718
-45.2074
-26.9603
-12.3683
-6.77343
-5.08584
-3.17167
-1.73931
-0.982973
-0.771618
-0.893677
-1.16767
-1.4857
-1.78198
-1.99255
35.8043
38.296
40.8545
42.345
43.0206
39.1045
29.1815
7.21305
-18.3947
-69.9679
-80.827
-59.5106
-30.3419
-15.6844
-10.1286
-6.5635
-4.48825
-2.71799
-1.63123
-1.20719
-1.1889
-1.37342
-1.65164
-1.95066
-2.19781
-2.31694
35.7216
37.4904
38.8611
39.0329
38.547
33
22.0648
5.79808
-12.4283
-29.352
-38.5679
-35.8895
-26.094
-16.8664
-10.4314
-7.88083
-5.45514
-3.37214
-2.06548
-1.47021
-1.32917
-1.45007
-1.72058
-2.05822
-2.38632
-2.63039
34.8994
35.8716
36.1953
35.2565
32.2263
26.7635
20.1445
9.09845
-2.55964
-14.0228
-21.9517
-23.7234
-18.4113
-14.6308
-11.5415
-8.81566
-6.25752
-4.18632
-2.83117
-2.12335
-1.88357
-1.96045
-2.243
-2.64116
-3.07562
-3.47481
33.8485
34.1764
33.8098
32.3409
29.3207
24.556
17.9449
10.0618
1.40646
-6.96976
-13.0892
-15.6697
-15.3705
-13.2518
-10.8276
-8.47244
-6.35382
-4.6597
-3.50862
-2.87953
-2.67153
-2.77403
-3.09241
-3.54987
-4.08324
-4.63789
32.8363
32.6798
31.8539
30.0985
27.1672
22.9361
17.4204
10.8236
3.6435
-3.21274
-8.47122
-11.278
-11.7993
-10.8812
-9.40245
-7.80041
-6.29583
-5.05189
-4.18156
-3.71213
-3.60089
-3.77903
-4.17855
-4.74032
-5.41361
-6.15312
31.9786
31.4602
30.3055
28.3579
25.4798
21.602
16.7625
11.14
5.15055
-0.529496
-5.09007
-7.94627
-9.07218
-8.96936
-8.22095
-7.22536
-6.22324
-5.37926
-4.80271
-4.53849
-4.57656
-4.87829
-5.39876
-6.0941
-6.9229
-7.84529
31.3146
30.5178
29.1096
26.9992
24.119
20.4523
16.064
11.1369
6.02277
1.21779
-2.7627
-5.52316
-6.96573
-7.36258
-7.14304
-6.65038
-6.10499
-5.65346
-5.39218
-5.3699
-5.59374
-6.04834
-6.71018
-7.55002
-8.53147
30.8437
29.8269
28.2111
25.9456
23.0155
19.4605
15.389
10.9938
6.56517
2.44692
-1.04813
-3.66425
-5.28861
-6.05161
-6.25905
-6.19275
-6.04495
-5.94419
-5.97637
-6.1883
-6.59552
-7.19885
-7.99329
-8.96082
-10.0699
30.5446
29.3541
27.5634
25.1459
22.1306
18.6167
14.7619
10.7648
6.85264
3.2474
0.129555
-2.34776
-4.0848
-5.12588
-5.67065
-5.9437
-6.11592
-6.30332
-6.58204
-6.99478
-7.56033
-8.2891
-9.18892
-10.2525
-11.4556
29.0611
27.1241
24.5607
21.439
17.918
14.208
10.5107
6.98953
3.76485
0.926633
-1.43592
-3.24361
-4.49523
-5.30593
-5.84363
-6.26078
-6.66797
-7.13627
-7.70486
-8.3913
-9.20936
-10.1775
-11.3029
-12.5651
26.8495
24.1573
20.9251
17.3673
13.7449
10.261
7.02017
4.06196
1.41528
-0.86892
-2.73023
-4.14212
-5.15336
-5.87957
-6.46084
-7.0118
-7.60348
-8.27216
-9.03377
-9.90502
-10.9149
-12.0796
-13.378
26.6962
23.9078
20.5845
16.9833
13.406
10.0564
6.99592
4.20851
1.68339
-0.55335
-2.45406
-3.97583
-5.11907
-5.95824
-6.62834
-7.25552
-7.91527
-8.64194
-9.44915
-10.3549
-11.3929
-12.5825
-13.9032
23.779
20.4048
16.7764
13.2173
9.93235
6.9604
4.25767
1.79449
-0.417229
-2.33676
-3.91254
-5.11938
-6.01028
-6.71931
-7.38073
-8.0728
-8.82764
-9.6571
-10.5797
-11.6307
-12.831
-14.1608
23.7673
20.3916
16.7625
13.2036
9.91942
6.94813
4.24621
1.78444
-0.425255
-2.3424
-3.91581
-5.12059
-6.00973
-6.71708
-7.377
-8.06789
-8.82201
-9.65119
-10.5737
-11.6249
-12.8256
-14.1566
23.8734
20.5455
16.9417
13.364
10.0155
6.95646
4.17134
1.6504
-0.580483
-2.47419
-3.98889
-5.12582
-5.95957
-6.62459
-7.2471
-7.90326
-8.62773
-9.43414
-10.3402
-11.379
-12.5703
-13.8943
-15.3174
24.1031
20.8639
17.3015
13.6773
10.194
6.95557
4.00214
1.36322
-0.911588
-2.76246
-4.16372
-5.16497
-5.88227
-6.45503
-6.99807
-7.58349
-8.24837
-9.00856
-9.8805
-10.8923
-12.0598
-13.3634
-14.7704
24.4908
21.3602
17.8325
14.1184
10.4202
6.90191
3.68518
0.859979
-1.48793
-3.28182
-4.52086
-5.31993
-5.84712
-6.25426
-6.65203
-7.11302
-7.67754
-8.36284
-9.18209
-10.1536
-11.2836
-12.5523
-13.9299
25.0641
22.0385
18.5161
14.6554
10.6557
6.74586
3.14979
0.048649
-2.4091
-4.12785
-5.15313
-5.68344
-5.94358
-6.10423
-6.28115
-6.55222
-6.9617
-7.52738
-8.25831
-9.16264
-10.2331
-11.4444
-12.7707
22.9159
19.3524
15.2744
10.8761
6.44823
2.33724
-1.14159
-3.73738
-5.34257
-6.0874
-6.2763
-6.19293
-6.0318
-5.9216
-5.94839
-6.16006
-6.57057
-7.17876
-7.97902
-8.95406
-10.0724
-11.3059
-12.6326
24.0168
20.3426
15.9488
11.021
5.90549
1.10274
-2.86471
-5.60657
-7.03192
-7.40837
-7.16301
-6.64472
-6.08074
-5.61952
-5.3555
-5.33561
-5.56558
-6.02799
-6.6983
-7.54665
-8.53789
-9.6356
-10.8093
25.3785
21.4948
16.6525
11.0375
5.04046
-0.660928
-5.21848
-8.0584
-9.16857
-9.04076
-8.25394
-7.21962
-6.19293
-5.34144
-4.76876
-4.51359
-4.56263
-4.87544
-5.4061
-6.1103
-6.94711
-7.87888
-8.86257
27.0702
22.8346
17.3147
10.7389
3.5712
-3.35365
-8.64068
-11.449
-11.9612
-11.0024
-9.45048
-7.77643
-6.22964
-4.97586
-4.11624
-3.66549
-3.57476
-3.77205
-4.18809
-4.76354
-5.44838
-6.1989
-6.9745
1.23777
-7.19048
-13.3241
-15.9266
-15.6496
-13.4754
-10.9276
-8.46278
-6.28826
-4.58461
-3.44871
-2.84261
-2.65782
-2.78114
-3.11724
-3.58933
-4.13539
-4.70245
-5.2433
0.365381
-9.67419
-17.0674
-19.8782
-18.9411
-15.0178
-11.6383
-8.70474
-6.0657
-4.00789
-2.70635
-2.05637
-1.86687
-1.9852
-2.30122
-2.7263
-3.18377
-3.60558
-3.93134
-20.3936
-29.091
-29.6835
-23.7966
-17.2679
-10.896
-7.97254
-5.33651
-3.22835
-1.98312
-1.46405
-1.39217
-1.57153
-1.88823
-2.26036
-2.61465
-2.88184
-2.99561
-48.6615
-46.2161
-29.8951
-17.3588
-11.1967
-6.57299
-4.24292
-2.45839
-1.4552
-1.11869
-1.17733
-1.43036
-1.76566
-2.10955
-2.39277
-2.54428
-2.49261
-68.2049
-32.1919
-14.7612
-8.85175
-5.12689
-2.81911
-1.36131
-0.717477
-0.605181
-0.801503
-1.14213
-1.51783
-1.86058
-2.11021
-2.20251
-2.07109
-27.2385
-10.9082
-5.0764
-2.61071
-0.505085
0.532464
0.79428
0.637408
0.26191
-0.198084
-0.656661
-1.05824
-1.35341
-1.49009
-1.41504
-2.62527
0.196446
1.26579
1.68871
1.75598
1.55273
1.17636
0.723216
0.262852
-0.154317
-0.483957
-0.683747
-0.713675
9.9878
7.19714
3.83653
0.0719965
-3.73415
-7.0845
-9.58207
-11.1191
-11.8208
-11.8513
-11.31
-10.2539
-8.77482
-7.05785
11.3602
8.0679
3.85485
-1.11129
-6.26802
-10.8032
-13.9719
-15.6472
-16.1531
-15.8141
-14.7655
-13.0336
-10.7222
-8.13421
13.4337
9.62276
4.30465
-2.37209
-9.49289
-15.6853
-19.6963
-21.5076
-21.7394
-20.9208
-19.1855
-16.4648
-13.0014
-9.20496
-5.85747
-3.35216
-1.66001
-0.589052
0.0275896
0.313792
0.370922
0.279318
18.9991
16.5662
12.3779
5.73777
-3.64261
-10.7086
-20.0184
-25.604
-27.9768
-28.0516
-26.6653
-24.0558
-19.9231
-14.4838
-9.33006
-5.12439
-2.22472
-0.436594
0.58507
1.07337
1.2002
1.10347
0.88439
22.9592
21.2466
17.3896
10.0609
0.036283
-14.9081
-30.4181
-40.0191
-41.6188
-39.8231
-36.6743
-31.892
-24.6324
-15.7219
-7.65025
-3.0431
-0.515338
0.836913
1.53752
1.76663
1.66644
1.37787
1.00587
27.6973
27.6079
25.8892
18.6649
7.29325
-17.558
-41.7261
-63.5363
-66.7667
-57.2788
-46.6983
-40.9048
-28.0834
-13.2743
-4.84894
1.30544
2.57557
2.71347
2.44453
1.96973
1.41439
0.85197
0.323371
-0.134242
32.317
34.2987
32.6339
32.8615
25.0878
4.54577
-46.0308
-29.3463
-8.35494
-1.19248
-0.938838
-0.580298
0.598684
0.721949
0.336932
-0.164291
-0.667257
-1.13791
-1.53815
-1.81627
35.5445
38.8009
39.8541
44.3301
41.6022
35.641
-10.4067
-6.30023
-5.77077
-3.97835
-1.79461
-1.04208
-1.01657
-1.24292
-1.56675
-1.9184
-2.24194
-2.46963
36.7804
39.9587
43.6961
46.0354
47.186
43.9766
19.9806
-49.1441
-17.6628
-11.6328
-9.88955
-5.83292
-3.20666
-1.99696
-1.66335
-1.7172
-1.93333
-2.2267
-2.5323
-2.77297
-2.87152
36.4655
38.6572
40.5913
41.6473
40.7843
33.243
22.4943
5.70209
-12.2426
-27.0768
-39.843
-46.1432
-30.6687
-18.3228
-13.2169
-9.76267
-6.36944
-3.68977
-2.22165
-1.64043
-1.54458
-1.70891
-2.02136
-2.39872
-2.76241
-3.03253
35.432
36.6354
37.2058
36.372
34.8565
29.0935
20.7395
10.263
-1.23431
-13.6676
-22.8563
-25.6667
-22.7544
-17.4303
-12.8644
-9.84895
-6.66842
-4.17735
-2.66614
-1.94274
-1.75043
-1.90235
-2.26716
-2.74326
-3.24483
-3.69617
34.2402
34.7012
34.4639
33.0593
29.9466
25.2171
18.8556
10.9833
1.92583
-7.50293
-14.2479
-17.0888
-16.5331
-14.1959
-11.6208
-8.91993
-6.44238
-4.51858
-3.27101
-2.62833
-2.44907
-2.59738
-2.96525
-3.47269
-4.05928
-4.67101
33.152
33.0783
32.3341
30.6391
27.7265
23.5163
18.0482
11.3298
3.7711
-3.74564
-9.44816
-12.4002
-12.7046
-11.5762
-9.87417
-8.02042
-6.30775
-4.92429
-3.98084
-3.48875
-3.38667
-3.59135
-4.02608
-4.62897
-5.35
-6.14577
32.2643
31.7988
30.6954
28.7887
25.933
22.0568
17.169
11.3497
4.97693
-1.12593
-5.96978
-8.84982
-9.75266
-9.39729
-8.44347
-7.28562
-6.16224
-5.23651
-4.61605
-4.34028
-4.38945
-4.71745
-5.27428
-6.01286
-6.892
-7.87229
31.6005
30.836
29.4512
27.3491
24.4588
20.754
16.267
11.1401
5.75743
0.725128
-3.42375
-6.21394
-7.49462
-7.65986
-7.26638
-6.65759
-6.03328
-5.5323
-5.24872
-5.22646
-5.46628
-5.9494
-6.65079
-7.53993
-8.57592
31.1503
30.1497
28.5286
26.2297
23.2405
19.6013
15.4128
10.8692
6.30014
2.08734
-1.51885
-4.18643
-5.71186
-6.28388
-6.33957
-6.17876
-5.97565
-5.84813
-5.87628
-6.10083
-6.53111
-7.16456
-8.00091
-9.02106
-10.188
30.8873
29.6999
27.8732
25.3747
22.2442
18.6023
14.6238
10.5267
6.56139
2.93892
-0.218797
-2.73276
-4.41895
-5.32955
-5.75448
-5.95429
-6.09124
-6.26829
-6.55508
-6.98727
-7.57499
-8.32913
-9.26737
-10.3832
-11.6417
29.4423
27.4385
24.7422
21.4448
17.7553
13.9266
10.1816
6.67388
3.48239
0.647258
-1.73386
-3.52265
-4.7002
-5.4259
-5.90466
-6.29438
-6.69864
-7.18179
-7.77348
-8.47698
-9.30614
-10.2993
-11.4697
-12.7778
27.1754
24.3014
20.8324
17.0674
13.338
9.85289
6.67197
3.77636
1.16003
-1.12824
-2.99574
-4.38347
-5.33961
-6.00789
-6.55481
-7.09737
-7.69792
-8.38232
-9.14925
-10.0162
-11.0408
-12.2459
-13.5857
27.0356
24.0274
20.4172
16.5756
12.8984
9.58105
6.61358
3.91098
1.43282
-0.802755
-2.7306
-4.26679
-5.37368
-6.14145
-6.75726
-7.36376
-8.02604
-8.76422
-9.57174
-10.4669
-11.5143
-12.7417
-14.1012
23.8841
20.1964
16.3094
12.6532
9.41776
6.55618
3.95241
1.54563
-0.66347
-2.6225
-4.23095
-5.40824
-6.21788
-6.86105
-7.49638
-8.18896
-8.95362
-9.7811
-10.6904
-11.7486
-12.9847
-14.3525
23.8713
20.1819
16.2948
12.6397
9.40548
6.54429
3.94089
1.53541
-0.671568
-2.6279
-4.23363
-5.40891
-6.21685
-6.85813
-7.49164
-8.18283
-8.94659
-9.77349
-10.6826
-11.7411
-12.9779
-14.3469
23.9903
20.3746
16.5309
12.8549
9.53944
6.57287
3.87181
1.39785
-0.831401
-2.75093
-4.27859
-5.37906
-6.14153
-6.75159
-7.35256
-8.01057
-8.74618
-9.55265
-10.4478
-11.4963
-12.7257
-14.0889
-15.5473
24.2437
20.7667
16.9971
13.267
9.78315
6.60431
3.71331
1.10533
-1.17382
-3.02918
-4.40352
-5.3489
-6.0081
-6.54549
-7.07847
-7.67161
-8.35178
-9.11746
-9.98512
-11.0113
-12.2198
-13.5655
-15.0112
24.6685
21.361
17.6642
13.831
10.0848
6.5803
3.39945
0.581484
-1.78538
-3.55981
-4.7229
-5.43697
-5.9059
-6.28489
-6.67758
-7.15173
-7.73891
-8.4411
-9.27154
-10.268
-11.4432
-12.7588
-14.1835
25.2889
22.1465
18.4946
14.5085
10.4075
6.44517
2.83585
-0.298506
-2.78789
-4.45368
-5.34827
-5.76051
-5.94941
-6.07525
-6.24012
-6.51725
-6.94639
-7.53462
-8.29082
-9.2339
-10.3571
-11.6247
-13.0135
23.1357
19.4863
15.2891
10.7407
6.17263
1.97084
-1.60895
-4.24859
-5.75354
-6.30879
-6.34898
-6.17382
-5.95974
-5.82295
-5.84389
-6.06884
-6.50349
-7.14178
-7.98366
-9.01103
-10.187
-11.4921
-12.9167
24.3515
20.6375
16.1437
11.0194
5.63518
0.60723
-3.51468
-6.27992
-7.54632
-7.69285
-7.2751
-6.6432
-6.00348
-5.49467
-5.2087
-5.19008
-5.43718
-5.92878
-6.63868
-7.53621
-8.58159
-9.7421
-10.9995
25.8257
21.9416
17.0504
11.2583
4.85802
-1.24521
-6.0562
-8.92327
-9.82657
-9.45157
-8.46341
-7.27214
-6.13034
-5.20212
-4.58851
-4.32294
-4.38305
-4.72128
-5.28679
-6.03242
-6.91738
-7.90519
-8.95084
27.62
23.3988
17.9149
11.2821
3.65035
-3.88897
-9.56028
-12.527
-12.8402
-11.6694
-9.89364
-7.972
-6.22618
-4.84335
-3.9187
-3.45061
-3.37147
-3.59529
-4.04515
-4.65912
-5.38874
-6.19254
-7.02397
1.77449
-7.68558
-14.4025
-17.2693
-16.7854
-14.4124
-11.7128
-8.90741
-6.38539
-4.4609
-3.23031
-2.60831
-2.44903
-2.61514
-2.99799
-3.51743
-4.11438
-4.73647
-5.33088
1.27998
-9.71477
-17.9364
-21.1963
-20.2235
-16.7661
-12.8554
-9.64108
-6.45245
-4.03035
-2.59689
-1.93685
-1.79215
-1.97985
-2.37205
-2.8693
-3.38923
-3.85983
-4.21539
-19.3829
-29.7391
-32.4001
-27.4038
-18.8802
-13.6279
-9.6923
-6.12154
-3.49692
-2.14913
-1.67356
-1.65827
-1.88236
-2.23655
-2.64135
-3.02308
-3.30968
-3.42775
-43.4298
-63.8256
-56.2925
-37.8414
-17.7947
-13.2352
-9.88974
-5.4836
-2.85599
-1.76195
-1.54235
-1.69384
-1.99036
-2.34542
-2.69742
-2.97461
-3.10392
-3.01305
-62.3458
-15.4927
-10.3323
-7.96062
-3.41504
-1.29588
-0.67635
-0.767116
-1.09825
-1.50671
-1.92245
-2.29424
-2.55935
-2.65155
-2.50367
-8.75116
-2.63017
-2.28296
-0.177728
1.00157
1.07926
0.628322
0.0552908
-0.514598
-1.04255
-1.4915
-1.8126
-1.95327
-1.85983
-1.93839
1.44082
2.84814
2.99466
2.6712
2.12794
1.50594
0.884022
0.305385
-0.19403
-0.575592
-0.799977
-0.828633
12.1711
9.93447
7.0685
3.59656
-0.271287
-4.06503
-7.22503
-9.43507
-10.732
-11.3408
-11.4396
-11.079
-10.2376
-8.90716
-7.22115
13.7808
11.2801
7.83058
3.35767
-1.8705
-7.09086
-11.2341
-13.7749
-14.9337
-15.2732
-15.1261
-14.5042
-13.2332
-11.1879
-8.61453
16.0307
13.3509
9.2321
3.39244
-3.88298
-11.2002
-16.6453
-19.467
-20.2482
-20.1678
-19.786
-18.985
-17.2198
-14.1254
-10.294
-6.55386
-3.67487
-1.77379
-0.62356
0.0121583
0.294932
0.339646
0.231712
19.1709
16.5873
11.8722
4.21091
-3.30178
-14.1407
-21.7253
-25.3292
-25.9467
-25.4653
-24.9325
-24.0479
-21.6327
-17.0124
-11.1694
-6.27433
-2.80976
-0.745727
0.397829
0.940427
1.08866
0.997356
0.775317
23.466
21.7199
17.3438
9.2046
-4.54624
-23.6967
-36.6859
-39.8156
-36.2201
-33.2451
-32.5359
-32.5946
-29.3778
-21.3524
-11.7583
-4.68513
-1.10742
0.497955
1.23519
1.47121
1.38214
1.11244
0.762874
28.7872
29.2288
24.8764
19.2071
-2.65342
-35.1503
-63.4261
-69.9407
-53.0553
-39.5996
-43.061
-45.7522
-38.6577
-23.7729
-9.28778
-2.47429
1.29455
2.36299
2.30902
1.83379
1.25864
0.683532
0.140112
-0.335487
34.0172
37.4155
37.0195
37.6594
25.3936
-28.2981
-4.29271
-2.20607
-2.29121
0.462871
0.887263
0.356782
-0.22812
-0.720704
-1.16458
-1.55184
-1.82693
37.4955
42.5251
46.0313
53.7764
56.4153
-13.924
-11.9961
-6.6744
-2.78246
-1.59775
-1.7459
-2.15072
-2.48367
-2.7755
-3.02167
-3.15759
38.4667
42.8776
46.868
54.3793
59.1228
-33.5979
-20.6862
-14.2495
-7.54335
-3.76488
-2.26992
-2.0239
-2.19352
-2.47777
-2.83198
-3.20306
-3.49146
-3.61012
37.7497
40.6687
43.494
46.1754
43.1944
32.7137
16.2063
7.83493
-1.21395
-22.8847
-41.4874
-44.2654
-40.9696
-24.2681
-18.0616
-11.7611
-7.07625
-3.89805
-2.34216
-1.79276
-1.73222
-1.92054
-2.25775
-2.66859
-3.08709
-3.42717
36.3545
37.9632
38.9374
38.2415
36.625
29.3272
21.6843
14.2476
2.72224
-14.3809
-24.8233
-27.7201
-25.7434
-20.6391
-15.0193
-10.8863
-6.76005
-3.77198
-2.07877
-1.36685
-1.30305
-1.62537
-2.15455
-2.76696
-3.3747
-3.90649
34.9292
35.6286
35.6205
34.3428
31.2612
26.7667
21.2003
14.6074
4.6765
-8.28282
-16.8533
-19.0305
-18.5688
-16.0763
-12.9035
-9.44242
-6.3182
-4.00449
-2.58895
-1.93038
-1.82211
-2.07186
-2.54151
-3.15002
-3.84717
-4.58196
33.7228
33.8047
33.2206
31.6679
28.8941
24.897
19.7997
13.9244
5.41468
-4.05583
-11.1676
-14.0326
-14.1364
-12.7723
-10.558
-8.17865
-6.07107
-4.45076
-3.40155
-2.89192
-2.82359
-3.08718
-3.59179
-4.27199
-5.0848
32.8
32.4404
31.4459
29.646
26.8969
23.1261
18.2189
12.0486
4.75938
-2.21378
-7.70294
-10.4985
-10.9965
-10.2291
-8.82402
-7.29016
-5.91066
-4.83177
-4.13745
-3.8446
-3.91621
-4.29615
-4.9239
-5.74617
-6.72384
32.157
31.464
30.1364
28.0718
25.2014
21.4783
16.8112
11.3294
5.38112
-0.108212
-4.7201
-7.60166
-8.55829
-8.26024
-7.48385
-6.59879
-5.7945
-5.19196
-4.86689
-4.8452
-5.11645
-5.66286
-6.45101
-7.44039
-8.58519
31.7692
30.8128
29.1916
26.8391
23.7485
19.9588
15.5272
10.6549
5.81395
1.48106
-2.35776
-5.17878
-6.50918
-6.68032
-6.42967
-6.07125
-5.75661
-5.58598
-5.61948
-5.87287
-6.34674
-7.05696
-7.99876
-9.13917
-10.4272
31.6028
30.4352
28.5457
25.8863
22.5203
18.6184
14.3676
10.0328
5.98678
2.41245
-0.828427
-3.48854
-5.07289
-5.67671
-5.84278
-5.89589
-5.97412
-6.15383
-6.47957
-6.96543
-7.60093
-8.41364
-9.44428
-10.6802
-12.0427
30.2742
28.1438
25.164
21.4816
17.441
13.3593
9.51425
6.0682
2.99829
0.164548
-2.29869
-4.06306
-5.06687
-5.60984
-5.97732
-6.32878
-6.75005
-7.2861
-7.9419
-8.67357
-9.50648
-10.547
-11.8164
-13.2018
27.9295
24.6538
20.6392
16.4219
12.5018
9.06118
6.05338
3.29457
0.730682
-1.59888
-3.5153
-4.86767
-5.70602
-6.25106
-6.73274
-7.26352
-7.88936
-8.61624
-9.38126
-10.2115
-11.2596
-12.5597
-13.9709
27.8375
24.3345
20.0435
15.6663
11.8361
8.66746
5.95235
3.42203
1.02539
-1.24144
-3.28204
-4.90239
-5.93001
-6.51512
-7.00253
-7.55916
-8.22779
-9.00112
-9.79915
-10.6448
-11.7078
-13.0271
-14.455
24.1641
19.7248
15.2547
11.4594
8.4248
5.85437
3.47054
1.17071
-1.06468
-3.18593
-4.94716
-6.06552
-6.65946
-7.14178
-7.71087
-8.40203
-9.19458
-10.0039
-10.8572
-11.9273
-13.2511
-14.6836
24.1489
19.7073
15.2387
11.4474
8.41474
5.84319
3.45858
1.15988
-1.07305
-3.19077
-4.94877
-6.06591
-6.65842
-7.13845
-7.70562
-8.39553
-9.18675
-9.99465
-10.8475
-11.9182
-13.243
-14.6767
24.2907
19.9912
15.6143
11.7909
8.62588
5.90855
3.37744
0.985148
-1.27412
-3.30294
-4.91211
-5.93508
-6.51529
-6.99526
-7.5454
-8.20968
-8.97983
-9.77569
-10.6208
-11.685
-13.0068
-14.4391
-15.9349
24.5879
20.5621
16.3419
12.4245
8.98666
5.97845
3.2225
0.66963
-1.65281
-3.55326
-4.88637
-5.71368
-6.2495
-6.71873
-7.23586
-7.85202
-8.5743
-9.3383
-10.1684
-11.2181
-12.523
-13.9428
-15.4333
25.0819
21.3866
17.338
13.2501
9.40263
5.95945
2.90483
0.109949
-2.34641
-4.09984
-5.08606
-5.61977
-5.97947
-6.31733
-6.72048
-7.24288
-7.89222
-8.62193
-9.45498
-10.4981
-11.7732
-13.1691
-14.6581
25.7914
22.4099
18.4961
14.2318
9.88687
5.84433
2.29425
-0.905122
-3.53064
-5.0911
-5.67893
-5.83918
-5.8869
-5.95461
-6.11522
-6.42526
-6.90759
-7.54243
-8.35712
-9.39363
-10.6375
-12.0123
-13.5151
23.6331
19.8295
15.3808
10.4944
5.65529
1.34388
-2.45009
-5.23085
-6.53695
-6.68807
-6.42859
-6.06178
-5.74303
-5.56124
-5.57832
-5.83031
-6.30564
-7.01951
-7.96749
-9.11538
-10.4126
-11.8862
-13.5627
25.0844
21.3474
16.6652
11.1841
5.24932
-0.23494
-4.79415
-7.64314
-8.58825
-8.27392
-7.47783
-6.57403
-5.76048
-5.1502
-4.82001
-4.80022
-5.07657
-5.63142
-6.42827
-7.42693
-8.57917
-9.89914
-11.3865
26.7781
22.9905
18.0638
11.9726
4.58858
-2.36914
-7.7479
-10.5235
-11.0515
-10.2749
-8.84138
-7.27798
-5.8839
-4.80262
-4.11212
-3.82596
-3.90519
-4.29217
-4.92584
-5.75192
-6.73299
-7.84694
-9.04691
28.7695
24.7334
19.4898
12.95
5.50264
-2.93592
-9.14767
-14.0828
-14.2231
-12.815
-10.5402
-8.11227
-5.98968
-4.38064
-3.35152
-2.86339
-2.81492
-3.09423
-3.60961
-4.29621
-5.11331
-6.03103
-6.99052
4.80633
-6.32146
-14.0492
-19.1512
-18.8251
-16.2461
-12.8814
-9.32333
-6.19009
-3.90214
-2.51365
-1.87993
-1.79658
-2.07016
-2.56034
-3.18576
-3.89752
-4.64517
-5.36333
3.94444
-11.3141
-20.5376
-22.9966
-22.5626
-18.9882
-14.8425
-10.4986
-6.4491
-3.60977
-2.04112
-1.41505
-1.40928
-1.77067
-2.32554
-2.95646
-3.57985
-4.12797
-4.53303
-15.4136
-31.1764
-32.2642
-30.6886
-22.4988
-16.7912
-11.2143
-6.46174
-3.50494
-2.19203
-1.83698
-1.91245
-2.189
-2.57975
-3.01829
-3.44267
-3.78573
-3.96436
-47.8652
-65.7822
-47.9713
-25.2098
-20.8041
-13.1957
-6.99701
-3.23557
-1.89649
-1.83684
-2.16095
-2.55816
-2.98897
-3.41343
-3.74506
-3.89623
-3.78997
-20.8743
-13.9664
-6.19537
-2.43463
-1.31947
-1.56214
-2.07047
-2.49149
-2.84889
-3.14446
-3.31852
-3.30387
-3.03621
-11.0863
-6.67039
-1.73381
0.99947
1.36826
0.749341
0.054506
-0.539428
-1.06362
-1.51321
-1.8378
-1.97791
-1.87214
-5.38508
-2.08294
1.62574
2.71127
2.62235
2.08017
1.42996
0.786139
0.185052
-0.338821
-0.740218
-0.971891
-0.98791
12.1562
9.87997
6.93188
3.33368
-0.612352
-4.32498
-7.23399
-9.12253
-10.1675
-10.687
-10.8595
-10.6906
-10.0948
-8.96807
-7.35655
13.7684
11.1864
7.54595
2.76914
-2.69756
-7.7997
-11.4352
-13.3203
-13.9664
-14.1645
-14.1878
-13.9495
-13.1959
-11.564
-9.07372
16.0606
13.241
8.75279
2.22996
-5.52467
-12.7217
-17.2418
-18.8858
-18.6691
-18.4164
-18.4321
-18.4114
-17.7546
-15.3916
-11.3969
-7.25328
-3.94541
-1.752
-0.465042
0.211835
0.494023
0.519916
0.383541
19.3478
16.5951
11.3844
4.35306
-6.6288
-17.0507
-23.1089
-25.1914
-22.9923
-22.0918
-22.4819
-22.7053
-22.9515
-19.9993
-14.0808
-7.40724
-3.29174
-0.799812
0.548855
1.16524
1.33225
1.235
0.993318
24.0101
22.341
16.6434
7.2307
-12.2921
-33.0936
-40.361
-35.0182
-28.907
-26.2634
-26.2662
-30.3614
-34.3356
-29.5262
-17.6614
-7.94092
-1.49752
0.791711
1.74177
1.99907
1.88834
1.58955
1.20722
29.922
31.0334
26.9535
15.7842
-14.7233
-64.8269
-83.2621
-52.3108
-22.9269
-21.0809
-19.8844
-39.7492
-60.5629
-40.8287
-18.4362
-6.47442
0.521774
2.83399
3.17264
2.74277
2.13299
1.51797
0.92883
0.397821
35.7519
36.7778
43.0891
39.8498
18.4409
-15.0741
-5.62855
-1.57067
1.5657
2.18567
1.45019
0.608627
-0.0591334
-0.626583
-1.11054
-1.45657
39.5562
43.5316
54.6559
64.8409
-20.9989
-15.3738
-8.04634
-2.66859
-0.57818
-0.821114
-1.46647
-1.9948
-2.47658
-2.91903
-3.22732
40.2926
44.7181
54.4826
64.5761
65.2402
-22.0698
-16.3612
-9.66655
-3.83747
-1.84136
-1.62269
-1.85959
-2.14314
-2.49052
-2.89074
-3.25778
-3.47979
39.2197
43.0305
47.4909
50.7174
45.93
23.7181
15.0609
23.6761
13.8736
-41.8519
-32.1439
-36.9491
-36.1119
-25.5729
-21.0683
-15.0199
-6.77942
-3.37092
-1.98473
-1.68341
-1.83462
-2.17524
-2.61511
-3.07598
-3.505
-3.83612
37.4262
39.5118
40.9087
41.8308
37.3749
29.9588
25.8921
23.4637
10.893
-19.4005
-28.405
-30.6216
-29.3225
-24.5471
-18.6254
-10.7169
-5.87992
-2.65077
-0.82999
-0.186753
-0.409491
-1.11086
-2.01938
-2.9586
-3.81959
-4.54701
35.7575
36.7432
36.9895
35.7656
33.0426
29.396
25.7028
21.1421
8.63482
-14.6571
-23.1978
-23.8827
-20.6921
-17.8185
-13.527
-9.25207
-5.49739
-2.80407
-1.20062
-0.5474
-0.587929
-1.04443
-1.72264
-2.54835
-3.50163
-4.52423
34.447
34.7274
34.3527
33.0035
30.5494
27.1848
23.606
17.8529
5.787
-8.4744
-16.9158
-16.8231
-16.0587
-14.3475
-11.3638
-8.19788
-5.51831
-3.55845
-2.35
-1.80146
-1.77072
-2.11744
-2.7262
-3.5268
-4.49132
33.5219
33.3082
32.47
30.8513
28.3662
25.0172
21.4502
15.1802
5.73415
-3.12505
-10.6455
-12.9215
-12.02
-11.06
-9.18938
-7.18225
-5.44198
-4.14019
-3.33987
-3.01891
-3.11763
-3.56935
-4.293
-5.22065
-6.3125
32.9511
32.3655
31.1271
29.1427
26.3836
22.8106
19.1831
13.2369
6.15621
-0.137623
-6.21128
-9.72115
-9.54569
-8.80428
-7.64599
-6.43109
-5.38582
-4.65113
-4.2782
-4.26474
-4.56769
-5.20459
-6.12723
-7.26975
-8.42523
32.6981
31.8148
30.1975
27.7744
24.5651
20.5891
15.7904
10.2399
5.1633
1.46886
-3.20022
-6.74196
-7.41
-7.00545
-6.35589
-5.73439
-5.27362
-5.07552
-5.1623
-5.51507
-5.95791
-6.7513
-7.87151
-9.22383
-10.6432
32.7164
31.5904
29.6045
26.6815
22.9421
18.6324
13.9859
9.19935
5.1212
1.77805
-1.65396
-4.7608
-6.01942
-6.05972
-5.83701
-5.67799
-5.63976
-5.84242
-6.2695
-6.88415
-7.55698
-8.45678
-9.67787
-11.1665
-12.6668
31.6227
29.2897
25.8111
21.4436
16.8091
12.3927
8.43959
5.19785
2.4406
-0.400397
-3.12388
-4.83984
-5.50128
-5.75466
-5.96769
-6.2641
-6.74518
-7.42553
-8.25159
-9.01705
-9.83255
-10.9819
-12.4707
29.1892
25.1821
20.1163
15.0524
10.9129
7.6995
5.19499
2.75167
0.303466
-2.17071
-4.23916
-5.56227
-6.21133
-6.58809
-7.00299
-7.53496
-8.23648
-9.0939
-9.81584
-10.5379
-11.6504
-13.1572
29.2013
24.7816
19.1383
13.7345
9.77235
7.06315
5.02021
2.87194
0.648121
-1.71767
-4.05332
-5.95478
-6.81092
-7.07767
-7.39532
-7.88879
-8.59814
-9.48324
-10.2095
-10.9155
-12.0323
-13.5548
24.5633
18.6218
13.0159
9.12586
6.65827
4.76742
2.87448
0.814289
-1.4604
-3.92638
-6.11952
-7.08943
-7.30075
-7.5692
-8.05586
-8.78283
-9.67659
-10.4023
-11.1075
-12.2288
-13.7493
-15.21
24.5434
18.5982
12.9991
9.12032
6.65533
4.75737
2.85997
0.800425
-1.47103
-3.92862
-6.11687
-7.08801
-7.29742
-7.5607
-8.04376
-8.77015
-9.66207
-10.3851
-11.091
-12.2142
-13.7359
-15.1963
24.7263
19.0652
13.6696
9.72981
7.02956
4.97095
2.81501
0.593906
-1.76135
-4.07075
-5.95561
-6.81408
-7.07334
-7.37592
-7.85788
-8.56326
-9.44407
-10.1684
-10.8758
-11.9953
-13.5197
-14.9814
25.1026
20.0173
14.956
10.8287
7.62355
5.1072
2.65826
0.217221
-2.24576
-4.27745
-5.57168
-6.21303
-6.57991
-6.97511
-7.48433
-8.1735
-9.02551
-9.74804
-10.4683
-11.5809
-13.0919
-14.5483
-16.003
25.7154
21.3286
16.6876
12.2604
8.30373
5.05394
2.30455
-0.463229
-3.17745
-4.86802
-5.50525
-5.75891
-5.97171
-6.24952
-6.69889
-7.35992
-8.17779
-8.93955
-9.75092
-10.901
-12.3937
-13.8591
-15.3657
26.5704
22.8089
18.4899
13.8154
9.00038
4.91948
1.62016
-1.72357
-4.772
-6.00274
-6.02251
-5.81688
-5.666
-5.61434
-5.77488
-6.18435
-6.79973
-7.46721
-8.36727
-9.59338
-11.0896
-12.6104
-14.2606
24.436
20.4422
15.6063
10.0035
4.91877
1.77982
-2.14786
-5.47423
-7.4194
-6.98934
-6.33434
-5.71065
-5.26631
-5.03468
-5.11869
-5.48646
-5.91293
-6.70018
-7.82281
-9.18108
-10.6088
-12.3571
-14.5476
26.2575
22.667
17.7575
12.0618
5.9566
0.626929
-4.59681
-8.22591
-9.52138
-8.76603
-7.59513
-6.37509
-5.34362
-4.59954
-4.23174
-4.22416
-4.53004
-5.17485
-6.10739
-7.26857
-8.4189
-9.93813
-11.8526
28.2417
24.8761
20.0017
13.8045
5.71181
-1.62251
-8.30303
-11.4217
-12.0207
-11.0748
-9.19672
-7.17969
-5.44343
-4.14777
-3.35436
-3.03978
-3.14317
-3.59635
-4.31708
-5.23961
-6.32218
-7.60607
-9.03343
30.4219
27.0331
22.2579
16.1162
5.67929
-5.79874
-13.7067
-14.8526
-15.925
-14.1539
-11.1664
-8.03361
-5.4102
-3.50911
-2.3438
-1.82475
-1.81392
-2.16921
-2.77574
-3.5673
-4.52319
-5.63284
-6.81784
6.82859
-8.85352
-19.6083
-19.7033
-21.18
-18.0544
-13.5398
-9.17383
-5.47557
-2.8505
-1.27878
-0.637789
-0.685756
-1.14613
-1.81938
-2.63894
-3.59005
-4.61004
-5.59923
10.4226
-15.9942
-22.4256
-26.285
-25.8658
-22.4781
-16.6883
-10.6026
-5.95672
-2.90697
-1.18535
-0.5687
-0.779552
-1.4509
-2.32219
-3.23482
-4.08489
-4.80175
-5.30633
-22.4318
-34.8172
-33.1697
-31.4995
-25.681
-19.7141
-13.1842
-6.68011
-3.55261
-2.37559
-2.23471
-2.47554
-2.84132
-3.27325
-3.70784
-4.0883
-4.36785
-4.49067
-54.2041
-27.0246
-37.2572
-38.308
-26.9468
-23.613
-15.6769
-9.12583
-3.813
-1.95494
-1.89588
-2.25537
-2.60656
-2.97601
-3.36682
-3.71134
-3.91482
-3.88723
-22.6138
-15.4001
-9.06896
-2.57101
-0.480537
-0.779253
-1.50635
-2.09797
-2.61728
-3.08602
-3.42445
-3.54735
-3.38624
-20.1867
-10.2547
-4.66252
1.76096
2.30909
1.47634
0.536957
-0.208347
-0.824938
-1.33922
-1.7061
-1.86624
-1.75878
-15.3894
-4.78797
0.768657
3.03622
3.31637
2.81809
2.14284
1.47371
0.843409
0.280654
-0.165288
-0.441109
-0.495035
12.1459
9.85048
6.85718
3.19316
-0.776303
-4.38279
-7.05758
-8.65084
-9.48257
-9.94271
-10.1789
-10.1573
-9.76167
-8.83672
-7.33737
13.7478
11.1088
7.34569
2.37797
-3.22293
-8.16984
-11.3705
-12.6038
-12.8977
-13.0637
-13.2228
-13.2405
-12.8642
-11.6512
-9.34232
16.0518
13.1105
8.36263
1.34087
-6.77405
-13.7373
-17.5556
-17.653
-16.9563
-16.8018
-17.0594
-17.4867
-17.6287
-16.1061
-12.2535
-7.78888
-4.11415
-1.6674
-0.275858
0.416703
0.676492
0.662907
0.478507
19.4099
16.4393
10.7484
2.50742
-9.3388
-19.4681
-26.047
-22.5984
-20.1805
-19.5011
-20.0057
-21.8857
-22.8526
-22.3452
-16.5815
-8.4322
-3.6211
-0.702046
0.800214
1.4501
1.60372
1.4674
1.17214
24.2924
22.4128
16.0218
4.22371
-20.186
-39.546
-39.8695
-29.7461
-24.7066
-22.8291
-22.3372
-25.2897
-34.1179
-36.7183
-23.7809
-10.6795
-1.70234
1.33694
2.4371
2.66424
2.48315
2.10203
1.63109
30.8364
29.3207
28.346
9.83172
-37.6107
-79.0469
-79.0778
-21.3685
-21.2267
-21.2775
-18.4357
-18.0193
-56.0205
-76.0153
-35.1088
-9.40825
-1.14986
3.52107
4.36914
3.9789
3.24583
2.49338
1.77165
1.10888
37.5436
40.3938
47.5665
45.6287
-8.75582
-0.126001
3.2137
4.47619
3.82747
2.74172
1.78061
0.94051
0.201705
-0.38239
41.6433
48.1299
62.697
80.6778
-14.0933
-5.39241
-1.11274
1.13797
0.953553
0.191061
-0.471245
-1.07467
-1.64432
-2.10329
42.0721
48.7421
60.9849
76.24
-15.9218
-8.6184
-2.4918
-0.424976
-0.570776
-1.18457
-1.73128
-2.26477
-2.79681
-3.26256
-3.56528
40.5113
45.1337
51.4353
52.9534
39.4921
19.4072
27.1672
43.7143
49.0894
-42.7639
-37.6062
-33.6878
-26.8053
-21.694
-13.1682
-3.38495
-0.236506
1.08223
1.1176
0.527025
-0.313158
-1.28474
-2.27036
-3.14651
-3.84091
38.3609
40.8603
42.5656
43.6415
37.5978
31.5201
32.7376
38.4955
44.2782
-42.2433
-32.4838
-30.8215
-25.3253
-18.5457
-8.25475
-3.40594
-0.777262
0.97335
1.6865
1.42356
0.604562
-0.459212
-1.58735
-2.66671
-3.64008
36.5229