/*--------------------------------*- C++ -*----------------------------------*\
  =========                 |
  \\      /  F ield         | OpenFOAM: The Open Source CFD Toolbox
   \\    /   O peration     | Website:  https://openfoam.org
    \\  /    A nd           | Version:  13
     \\/     M anipulation  |
\*---------------------------------------------------------------------------*/
FoamFile
{
    format      ascii;
    class       volScalarField;
    location    "100";
    object      nut;
}
// * * * * * * * * * * * * * * * * * * * * * * * * * * * * * * * * * * * * * //

dimensions      [0 2 -1 0 0 0 0];

internalField   nonuniform List<scalar> 
171634
(
0.0190299
0.0190161
0.0190025
0.0189889
0.0189753
0.0189618
0.0189481
0.0189344
0.0189206
0.0189067
0.0188927
0.0188786
0.0188645
0.0188503
0.0188361
0.0188219
0.0188077
0.0187937
0.0187797
0.0187658
0.018752
0.0187383
0.0190306
0.0190169
0.0190033
0.0189898
0.0189763
0.0189628
0.0189492
0.0189356
0.0189218
0.0189079
0.0188939
0.0188799
0.0188657
0.0188515
0.0188373
0.0188231
0.0188089
0.0187948
0.0187808
0.0187668
0.0187531
0.0187394
0.0190321
0.0190185
0.0190051
0.0189917
0.0189784
0.018965
0.0189516
0.018938
0.0189243
0.0189104
0.0188965
0.0188824
0.0188682
0.018854
0.0188397
0.0188255
0.0188113
0.0187971
0.018783
0.0187691
0.0187552
0.0187416
0.0190343
0.019021
0.0190078
0.0189947
0.0189816
0.0189684
0.0189551
0.0189417
0.0189281
0.0189143
0.0189004
0.0188863
0.0188721
0.0188579
0.0188435
0.0188292
0.0188149
0.0188007
0.0187866
0.0187725
0.0187587
0.018745
0.0190375
0.0190245
0.0190117
0.0189989
0.0189861
0.0189732
0.0189602
0.0189469
0.0189335
0.0189198
0.018906
0.0188919
0.0188777
0.0188634
0.0188491
0.0188347
0.0188203
0.018806
0.0187917
0.0187777
0.0187637
0.01875
0.0190417
0.0190292
0.0190169
0.0190046
0.0189922
0.0189798
0.0189671
0.0189541
0.0189409
0.0189274
0.0189136
0.0188996
0.0188854
0.0188711
0.0188566
0.0188422
0.0188277
0.0188133
0.018799
0.0187848
0.0187708
0.018757
0.0190471
0.0190353
0.0190237
0.019012
0.0190003
0.0189884
0.0189762
0.0189636
0.0189507
0.0189375
0.0189239
0.01891
0.0188958
0.0188814
0.0188669
0.0188523
0.0188378
0.0188233
0.0188089
0.0187946
0.0187806
0.0187667
0.0190541
0.0190432
0.0190325
0.0190217
0.0190108
0.0189996
0.0189881
0.0189762
0.0189638
0.0189509
0.0189375
0.0189238
0.0189097
0.0188953
0.0188808
0.0188662
0.0188515
0.0188369
0.0188224
0.0188082
0.0187941
0.0187803
0.019063
0.0190533
0.0190438
0.0190342
0.0190245
0.0190144
0.0190039
0.0189928
0.0189811
0.0189687
0.0189558
0.0189423
0.0189284
0.0189142
0.0188997
0.018885
0.0188703
0.0188557
0.0188412
0.0188269
0.0188129
0.0187991
0.0190742
0.0190662
0.0190584
0.0190506
0.0190425
0.0190339
0.0190248
0.0190149
0.0190042
0.0189927
0.0189805
0.0189675
0.018954
0.01894
0.0189256
0.0189111
0.0188965
0.0188819
0.0188675
0.0188533
0.0188393
0.0188258
0.0190887
0.0190829
0.0190775
0.019072
0.0190663
0.01906
0.0190529
0.0190448
0.0190357
0.0190255
0.0190143
0.0190022
0.0189893
0.0189757
0.0189617
0.0189475
0.0189331
0.0189187
0.0189045
0.0188905
0.0188769
0.0188636
0.0191073
0.0191047
0.0191026
0.0191006
0.0190983
0.0190952
0.0190912
0.0190859
0.0190791
0.019071
0.0190614
0.0190506
0.0190387
0.019026
0.0190127
0.0189989
0.018985
0.018971
0.0189572
0.0189436
0.0189304
0.0189176
0.0191314
0.0191333
0.019136
0.0191391
0.0191418
0.0191437
0.0191442
0.019143
0.0191399
0.0191348
0.0191278
0.019119
0.0191087
0.0190972
0.0190848
0.0190718
0.0190585
0.0190451
0.0190318
0.0190188
0.0190062
0.018994
0.0191628
0.0191713
0.0191812
0.0191917
0.019202
0.0192112
0.0192185
0.0192233
0.0192253
0.0192245
0.019221
0.019215
0.0192067
0.0191967
0.0191854
0.0191732
0.0191605
0.0191476
0.0191347
0.0191222
0.01911
0.0190983
0.0192043
0.0192222
0.0192423
0.0192636
0.0192845
0.0193037
0.01932
0.0193326
0.0193411
0.0193454
0.0193458
0.0193425
0.0193362
0.0193273
0.0193166
0.0193046
0.0192918
0.0192787
0.0192656
0.0192527
0.0192403
0.0192283
0.0192587
0.0192891
0.019322
0.0193555
0.0193877
0.0194167
0.0194416
0.0194613
0.0194753
0.0194837
0.0194867
0.019485
0.0194793
0.0194702
0.0194586
0.0194454
0.0194311
0.0194164
0.0194016
0.019387
0.0193728
0.0193591
0.0193257
0.0187571
0.0180038
0.017613
0.0176215
0.0180622
0.0189595
0.0195466
0.0195632
0.0195733
0.0195772
0.0195755
0.0195691
0.0195586
0.0195451
0.0195295
0.0195126
0.019495
0.0194771
0.0194593
0.0194418
0.0194246
0.0169908
0.0158182
0.0149692
0.0144706
0.0143593
0.0146667
0.0154079
0.0165742
0.0181715
0.0194887
0.0194937
0.0194925
0.0194859
0.0194746
0.0194598
0.0194423
0.0194232
0.0194029
0.0193819
0.0193604
0.0193387
0.0193165
0.014403
0.0131739
0.012254
0.0116647
0.0114429
0.0116275
0.0122747
0.0133614
0.0148458
0.016747
0.0191037
0.0191008
0.0190936
0.0190821
0.0190667
0.0190482
0.0190271
0.0190038
0.0189786
0.0189515
0.0189224
0.018891
0.0181536
0.0181369
0.0181156
0.0180884
0.0180544
0.0180123
0.0179603
0.0178963
0.0164702
0.0164499
0.0164088
0.0163403
0.0162376
0.0160947
0.0159069
0.0156719
0.019189
0.0191916
0.0192131
0.0184216
0.0192079
0.0192
0.0191976
0.0192081
0.0192414
0.0163496
0.013047
0.0192097
0.0192037
0.0192051
0.0192221
0.0192649
0.0150196
0.0120913
0.019211
0.0192062
0.0192098
0.0192304
0.0185294
0.0143733
0.0116094
0.00991704
0.019211
0.0192062
0.0192098
0.0192304
0.0185301
0.014374
0.0116105
0.009919
0.0192376
0.019228
0.0192185
0.0192097
0.0192037
0.0192051
0.0192221
0.0192648
0.0150195
0.0120923
0.0102902
0.0192473
0.0192375
0.0192276
0.0192176
0.0192079
0.0191999
0.0191975
0.019208
0.0192413
0.016346
0.0130453
0.0110063
0.0192472
0.0192373
0.0192273
0.0192168
0.0192059
0.0191956
0.0191888
0.0191915
0.019213
0.0184117
0.0144718
0.0119916
0.0192473
0.0192374
0.0192274
0.0192166
0.0192048
0.0191925
0.0191817
0.0191772
0.0191872
0.0192217
0.016142
0.0130346
0.0192475
0.019238
0.0192281
0.0192175
0.0192054
0.0191919
0.0191784
0.0191686
0.0191698
0.0191925
0.0176773
0.013833
0.0114908
0.0192577
0.0192481
0.019239
0.0192299
0.0192199
0.0192084
0.019195
0.0191807
0.0191685
0.019165
0.0191813
0.0185168
0.0140902
0.0113987
0.0192681
0.019258
0.019249
0.0192408
0.0192327
0.0192242
0.0192144
0.0192029
0.0191901
0.019179
0.0191759
0.0191925
0.0181513
0.0136177
0.0108385
0.0192681
0.0192585
0.0192502
0.0192431
0.0192367
0.0192305
0.0192237
0.019216
0.019208
0.0192022
0.0192058
0.0192311
0.0165244
0.012413
0.00982613
0.0192681
0.0192591
0.0192517
0.019246
0.0192418
0.0192387
0.0192365
0.019235
0.0192352
0.0192405
0.0192587
0.0188104
0.01399
0.0105616
0.00837866
0.00698575
0.0061684
0.00539681
0.00495517
0.0192681
0.0192596
0.0192532
0.0192492
0.0192476
0.0192485
0.0192523
0.0192596
0.0192724
0.0192951
0.018976
0.0147482
0.0109798
0.00814903
0.00633588
0.0050617
0.00519095
0.00632865
0.00438868
0.0192679
0.01926
0.0192546
0.0192523
0.0192536
0.0192592
0.0192701
0.0192885
0.0193175
0.018222
0.0148215
0.0113464
0.00822823
0.00570787
0.00433794
0.00553231
0.00368796
0.0034588
0.0031897
0.00277231
0.0192674
0.01926
0.0192556
0.019255
0.0192591
0.0192694
0.0192881
0.0193185
0.0181053
0.0150553
0.0119463
0.00898034
0.00632123
0.00425859
0.00462064
0.00245045
0.00198651
0.00179094
0.00341404
0.00245626
0.00210893
0.0192666
0.0192595
0.0192559
0.0192566
0.0192632
0.0192778
0.0193035
0.0190871
0.0160479
0.0130685
0.0102232
0.00761567
0.00535083
0.00363952
0.00317629
0.00169396
0.00115293
0.00134077
0.000678339
0.00179996
0.00151711
0.00193602
0.0192654
0.0192584
0.0192552
0.0192568
0.0192651
0.0192827
0.0193134
0.017934
0.0149016
0.0120414
0.00940568
0.00706572
0.00509102
0.00365688
0.00291321
0.00177672
0.00131867
0.0010246
0.000959271
0.000909192
0.0010532
0.00101082
0.0192637
0.0192566
0.0192534
0.0192553
0.0192642
0.0192832
0.0193163
0.0175004
0.0145198
0.0117743
0.00930182
0.00715196
0.00536067
0.00396942
0.00308396
0.00285426
0.00208229
0.0023063
0.00176028
0.0016759
0.00166007
0.00161798
0.00152168
0.0017945
0.00202476
0.0192616
0.0192541
0.0192505
0.019252
0.0192605
0.0192791
0.0193117
0.0176801
0.0147704
0.0121185
0.00977101
0.00775417
0.00610137
0.00480401
0.00402272
0.00357064
0.00311066
0.00242919
0.00217932
0.00241772
0.00297164
0.00362699
0.0034428
0.00331972
0.00341158
0.00330357
0.00319065
0.00309173
0.00299772
0.00291344
0.00284165
0.00278364
0.00273979
0.00270988
0.00269338
0.00268735
0.00269255
0.00270905
0.00273662
0.00277565
0.00282642
0.00288858
0.0192591
0.019251
0.0192466
0.0192471
0.0192543
0.0192709
0.0193006
0.0183771
0.0155278
0.0129629
0.0107024
0.00876992
0.00717377
0.00590401
0.00494905
0.00447079
0.00403153
0.00475676
0.00328429
0.00366735
0.0046011
0.00616887
0.00750249
0.00786424
0.00779037
0.00743192
0.00701056
0.00698457
0.00660376
0.00622139
0.00585976
0.00552865
0.00523072
0.00496626
0.00473339
0.00452917
0.00435033
0.00419369
0.00405638
0.00393603
0.00383085
0.00373977
0.003663
0.0192563
0.0192474
0.019242
0.0192411
0.0192463
0.0192598
0.019285
0.0193252
0.0167103
0.0142027
0.0120041
0.0101139
0.00853741
0.00725999
0.00626261
0.00560216
0.00546139
0.00511245
0.00565107
0.00648551
0.00772209
0.00936697
0.0113252
0.0134869
0.0134441
0.0133632
0.0128202
0.0124769
0.0121951
0.0118956
0.0115867
0.0112738
0.0108307
0.0102883
0.00975639
0.00924529
0.00876026
0.00830262
0.00787099
0.00746243
0.00707334
0.00670009
0.00634134
0.0192654
0.0192533
0.0192436
0.0192369
0.0192343
0.019237
0.0192469
0.0192667
0.0192995
0.018245
0.0157783
0.0136133
0.0117511
0.0101854
0.00890949
0.00791993
0.00723961
0.00698689
0.00728319
0.00783796
0.00873937
0.0100581
0.0118612
0.0141678
0.01641
0.0163946
0.0163825
0.0163639
0.0163296
0.0162716
0.0161823
0.0160546
0.0158823
0.0156617
0.0153915
0.0150726
0.0147073
0.014299
0.013851
0.0133658
0.0128455
0.0122777
0.0110996
0.0100491
0.0192631
0.0192502
0.0192396
0.0192316
0.0192272
0.0192273
0.0192335
0.0192476
0.0192724
0.0193097
0.0176661
0.0155243
0.0136799
0.0121301
0.01087
0.00990284
0.00924969
0.00895022
0.00904035
0.00956676
0.0105714
0.0120562
0.0140392
0.016616
0.0181472
0.0181335
0.0181192
0.0181022
0.0180808
0.0180538
0.0180202
0.0179787
0.0179276
0.0178647
0.0177873
0.0176926
0.017577
0.0174368
0.0172674
0.0170633
0.0168181
0.0165244
0.0161747
0.0156244
0.0192607
0.0192472
0.0192356
0.0192263
0.0192201
0.0192177
0.0192203
0.0192291
0.0192463
0.0192738
0.0193126
0.0177367
0.015918
0.0143926
0.0131659
0.0122467
0.0116559
0.0114308
0.0116112
0.0122556
0.013351
0.0148705
0.0168457
0.0190905
0.0190841
0.0190734
0.0190587
0.0190405
0.0190192
0.0189954
0.0189695
0.0189415
0.0189114
0.0188789
0.0188436
0.0188049
0.0187619
0.0187136
0.0186583
0.0185942
0.0185186
0.0184279
0.0183176
0.0181818
0.0192585
0.0192443
0.0192317
0.0192212
0.0192133
0.0192086
0.0192078
0.0192121
0.0192226
0.0192409
0.0192687
0.0193058
0.0184461
0.0169725
0.0158025
0.0149552
0.0144569
0.014345
0.0146526
0.0153987
0.0165823
0.0182226
0.0194849
0.0194882
0.0194852
0.0194767
0.0194637
0.0194473
0.0194283
0.0194077
0.019386
0.0193637
0.0193408
0.0193176
0.019294
0.01927
0.0192455
0.0192202
0.0191942
0.0191672
0.0191389
0.019109
0.0190766
0.019041
0.0192563
0.0192415
0.0192281
0.0192164
0.019207
0.0192001
0.0191965
0.0191968
0.0192018
0.0192125
0.0192301
0.0192553
0.0192881
0.0193271
0.0187335
0.0179826
0.0175937
0.0176046
0.0180499
0.0189586
0.0195471
0.0195631
0.0195726
0.0195756
0.0195731
0.0195656
0.0195542
0.0195399
0.0195235
0.0195059
0.0194876
0.019469
0.0194506
0.0194324
0.0194145
0.019397
0.0193799
0.0193632
0.019347
0.0193314
0.0193165
0.0193026
0.0192898
0.0192782
0.0192543
0.0192389
0.0192247
0.019212
0.0192012
0.0191925
0.0191864
0.0191834
0.0191839
0.0191887
0.0191983
0.0192132
0.0192339
0.01926
0.0192906
0.0193236
0.0193573
0.0193896
0.0194187
0.0194435
0.0194631
0.0194769
0.019485
0.0194876
0.0194855
0.0194792
0.0194697
0.0194576
0.0194439
0.0194293
0.0194142
0.0193991
0.0193842
0.0193697
0.0193557
0.0193423
0.0193295
0.0193174
0.019306
0.0192954
0.0192858
0.0192773
0.0192702
0.0192644
0.0192525
0.0192365
0.0192216
0.0192081
0.019196
0.0191858
0.0191776
0.0191718
0.0191688
0.0191689
0.0191725
0.0191797
0.0191907
0.0192055
0.0192235
0.0192439
0.0192653
0.0192864
0.0193057
0.0193221
0.0193347
0.0193432
0.0193474
0.0193476
0.0193441
0.0193375
0.0193285
0.0193175
0.0193052
0.0192923
0.019279
0.0192657
0.0192527
0.0192401
0.0192281
0.0192167
0.0192059
0.0191958
0.0191865
0.0191779
0.0191703
0.0191637
0.0191581
0.0191536
0.0192509
0.0192344
0.0192189
0.0192045
0.0191915
0.0191799
0.01917
0.019162
0.0191562
0.0191527
0.0191517
0.0191532
0.0191574
0.0191639
0.0191725
0.0191826
0.0191932
0.0192037
0.019213
0.0192204
0.0192253
0.0192273
0.0192265
0.0192229
0.0192168
0.0192085
0.0191984
0.019187
0.0191746
0.0191618
0.0191488
0.0191359
0.0191233
0.0191111
0.0190994
0.0190883
0.0190777
0.0190679
0.0190587
0.0190503
0.0190426
0.0190358
0.0190298
0.0190246
0.0192494
0.0192325
0.0192164
0.0192014
0.0191875
0.0191748
0.0191635
0.0191538
0.0191457
0.0191394
0.019135
0.0191324
0.0191316
0.0191324
0.0191344
0.0191373
0.0191405
0.0191434
0.0191453
0.019146
0.0191448
0.0191417
0.0191367
0.0191296
0.0191208
0.0191105
0.019099
0.0190865
0.0190735
0.0190601
0.0190467
0.0190334
0.0190204
0.0190078
0.0189956
0.018984
0.0189729
0.0189624
0.0189526
0.0189433
0.0189348
0.0189269
0.0189196
0.0189131
0.0192481
0.0192308
0.0192143
0.0191987
0.019184
0.0191704
0.019158
0.0191468
0.019137
0.0191285
0.0191215
0.0191159
0.0191115
0.0191082
0.0191057
0.0191037
0.0191019
0.0190996
0.0190967
0.0190927
0.0190875
0.0190808
0.0190727
0.0190632
0.0190524
0.0190405
0.0190278
0.0190144
0.0190007
0.0189867
0.0189728
0.018959
0.0189454
0.0189323
0.0189195
0.0189072
0.0188954
0.0188841
0.0188734
0.0188632
0.0188536
0.0188445
0.018836
0.018828
0.0192469
0.0192293
0.0192124
0.0191963
0.019181
0.0191667
0.0191533
0.019141
0.0191298
0.0191197
0.0191107
0.0191028
0.0190958
0.0190895
0.0190839
0.0190785
0.0190732
0.0190676
0.0190613
0.0190543
0.0190463
0.0190373
0.0190272
0.019016
0.0190039
0.018991
0.0189775
0.0189636
0.0189493
0.018935
0.0189206
0.0189064
0.0188925
0.0188789
0.0188657
0.0188528
0.0188404
0.0188285
0.018817
0.0188061
0.0187955
0.0187855
0.0187758
0.0187666
0.0192459
0.0192281
0.0192108
0.0191943
0.0191785
0.0191635
0.0191494
0.0191362
0.0191239
0.0191125
0.019102
0.0190923
0.0190834
0.019075
0.0190671
0.0190594
0.0190516
0.0190437
0.0190352
0.0190261
0.0190163
0.0190057
0.0189943
0.0189821
0.0189692
0.0189557
0.0189417
0.0189274
0.0189129
0.0188984
0.0188839
0.0188695
0.0188553
0.0188415
0.0188279
0.0188147
0.0188019
0.0187895
0.0187775
0.0187659
0.0187547
0.0187439
0.0187334
0.0187233
0.0192451
0.019227
0.0192095
0.0191926
0.0191764
0.0191609
0.0191462
0.0191322
0.019119
0.0191066
0.019095
0.019084
0.0190736
0.0190637
0.0190541
0.0190447
0.0190352
0.0190256
0.0190156
0.0190052
0.0189941
0.0189825
0.0189702
0.0189574
0.018944
0.0189301
0.0189159
0.0189015
0.0188869
0.0188723
0.0188577
0.0188433
0.018829
0.0188151
0.0188014
0.018788
0.0187749
0.0187622
0.0187499
0.0187378
0.0187261
0.0187148
0.0187037
0.0186928
0.0192443
0.019226
0.0192083
0.0191911
0.0191746
0.0191587
0.0191435
0.0191289
0.0191151
0.0191019
0.0190893
0.0190774
0.0190659
0.0190548
0.019044
0.0190333
0.0190227
0.0190119
0.0190008
0.0189893
0.0189775
0.0189651
0.0189523
0.0189391
0.0189254
0.0189114
0.0188971
0.0188826
0.018868
0.0188535
0.0188389
0.0188245
0.0188103
0.0187963
0.0187825
0.018769
0.0187558
0.0187429
0.0187303
0.018718
0.018706
0.0186942
0.0186826
0.0186712
0.0192437
0.0192253
0.0192073
0.0191899
0.0191731
0.0191569
0.0191412
0.0191262
0.0191118
0.019098
0.0190848
0.0190721
0.0190598
0.0190478
0.0190361
0.0190245
0.019013
0.0190013
0.0189895
0.0189773
0.0189649
0.0189521
0.0189389
0.0189254
0.0189115
0.0188974
0.0188831
0.0188687
0.0188542
0.0188397
0.0188253
0.0188109
0.0187967
0.0187828
0.018769
0.0187555
0.0187422
0.0187292
0.0187164
0.0187039
0.0186916
0.0186795
0.0186676
0.0186558
0.0192432
0.0192246
0.0192065
0.0191889
0.0191719
0.0191554
0.0191394
0.019124
0.0191092
0.0190949
0.0190812
0.0190679
0.0190549
0.0190423
0.01903
0.0190177
0.0190055
0.0189932
0.0189808
0.0189682
0.0189553
0.0189422
0.0189288
0.0189151
0.0189012
0.018887
0.0188728
0.0188584
0.018844
0.0188296
0.0188152
0.018801
0.0187869
0.018773
0.0187592
0.0187457
0.0187324
0.0187193
0.0187064
0.0186938
0.0186813
0.018669
0.0186568
0.0186447
0.0192427
0.019224
0.0192058
0.0191881
0.0191709
0.0191542
0.019138
0.0191223
0.0191072
0.0190925
0.0190783
0.0190646
0.0190512
0.0190381
0.0190252
0.0190125
0.0189998
0.0189871
0.0189742
0.0189613
0.0189481
0.0189348
0.0189212
0.0189074
0.0188934
0.0188793
0.0188651
0.0188508
0.0188365
0.0188222
0.0188079
0.0187938
0.0187797
0.0187659
0.0187522
0.0187386
0.0187253
0.0187122
0.0186992
0.0186865
0.0186738
0.0186614
0.018649
0.0186367
0.0192424
0.0192236
0.0192053
0.0191875
0.0191701
0.0191532
0.0191368
0.019121
0.0191056
0.0190907
0.0190762
0.0190621
0.0190484
0.0190349
0.0190217
0.0190086
0.0189955
0.0189825
0.0189694
0.0189562
0.0189428
0.0189293
0.0189156
0.0189018
0.0188878
0.0188737
0.0188595
0.0188452
0.018831
0.0188168
0.0188026
0.0187886
0.0187746
0.0187608
0.0187471
0.0187336
0.0187203
0.0187071
0.0186941
0.0186813
0.0186686
0.018656
0.0186435
0.018631
0.0192421
0.0192233
0.0192049
0.019187
0.0191695
0.0191526
0.019136
0.01912
0.0191045
0.0190893
0.0190747
0.0190604
0.0190464
0.0190327
0.0190192
0.0190058
0.0189925
0.0189793
0.018966
0.0189526
0.0189391
0.0189255
0.0189117
0.0188978
0.0188838
0.0188698
0.0188556
0.0188414
0.0188272
0.0188131
0.018799
0.018785
0.0187711
0.0187573
0.0187437
0.0187302
0.0187169
0.0187037
0.0186907
0.0186778
0.018665
0.0186523
0.0186397
0.0186271
0.019242
0.0192231
0.0192047
0.0191867
0.0191692
0.0191521
0.0191355
0.0191194
0.0191037
0.0190885
0.0190737
0.0190592
0.0190451
0.0190312
0.0190175
0.019004
0.0189906
0.0189772
0.0189637
0.0189503
0.0189367
0.018923
0.0189092
0.0188953
0.0188813
0.0188672
0.0188531
0.0188389
0.0188248
0.0188107
0.0187967
0.0187827
0.0187689
0.0187551
0.0187415
0.018728
0.0187147
0.0187015
0.0186885
0.0186756
0.0186627
0.01865
0.0186373
0.0186246
0.0192419
0.019223
0.0192046
0.0191866
0.019169
0.0191519
0.0191353
0.0191191
0.0191034
0.0190881
0.0190732
0.0190587
0.0190445
0.0190305
0.0190168
0.0190032
0.0189897
0.0189762
0.0189627
0.0189492
0.0189355
0.0189218
0.018908
0.0188941
0.0188801
0.018866
0.0188519
0.0188378
0.0188236
0.0188096
0.0187955
0.0187816
0.0187678
0.018754
0.0187404
0.018727
0.0187137
0.0187005
0.0186874
0.0186745
0.0186616
0.0186488
0.0186361
0.0186234
0.0190297
0.0190159
0.0190023
0.0189887
0.0189751
0.0189616
0.0189479
0.0189342
0.0189205
0.0189066
0.0188926
0.0188785
0.0188644
0.0188502
0.018836
0.0188218
0.0188077
0.0187936
0.0187797
0.0187658
0.018752
0.0187384
0.0190304
0.0190167
0.0190031
0.0189896
0.0189761
0.0189626
0.018949
0.0189354
0.0189216
0.0189078
0.0188938
0.0188797
0.0188656
0.0188514
0.0188372
0.018823
0.0188089
0.0187948
0.0187808
0.0187669
0.0187532
0.0187395
0.0190319
0.0190184
0.0190049
0.0189916
0.0189782
0.0189649
0.0189514
0.0189378
0.0189241
0.0189103
0.0188964
0.0188823
0.0188682
0.018854
0.0188397
0.0188255
0.0188113
0.0187972
0.0187831
0.0187692
0.0187554
0.0187418
0.0190342
0.0190209
0.0190077
0.0189946
0.0189815
0.0189683
0.018955
0.0189416
0.018928
0.0189143
0.0189004
0.0188863
0.0188722
0.0188579
0.0188437
0.0188294
0.0188151
0.0188009
0.0187868
0.0187728
0.018759
0.0187453
0.0190375
0.0190246
0.0190117
0.018999
0.0189862
0.0189733
0.0189602
0.018947
0.0189336
0.01892
0.0189061
0.0188921
0.018878
0.0188637
0.0188494
0.018835
0.0188207
0.0188064
0.0187922
0.0187782
0.0187643
0.0187506
0.0190419
0.0190294
0.0190171
0.0190048
0.0189925
0.01898
0.0189673
0.0189544
0.0189412
0.0189277
0.018914
0.0189
0.0188858
0.0188715
0.0188571
0.0188427
0.0188283
0.0188139
0.0187997
0.0187856
0.0187716
0.0187579
0.0190474
0.0190357
0.019024
0.0190124
0.0190006
0.0189887
0.0189765
0.018964
0.0189511
0.0189379
0.0189243
0.0189105
0.0188963
0.018882
0.0188676
0.0188531
0.0188385
0.0188241
0.0188098
0.0187956
0.0187816
0.0187679
0.0190545
0.0190436
0.0190328
0.0190221
0.0190112
0.019
0.0189885
0.0189765
0.0189642
0.0189513
0.018938
0.0189243
0.0189102
0.0188959
0.0188815
0.0188669
0.0188523
0.0188378
0.0188234
0.0188092
0.0187952
0.0187815
0.0190633
0.0190536
0.0190441
0.0190345
0.0190248
0.0190147
0.0190042
0.0189931
0.0189813
0.018969
0.0189561
0.0189427
0.0189289
0.0189147
0.0189002
0.0188857
0.0188711
0.0188565
0.0188421
0.0188279
0.018814
0.0188003
0.0190746
0.0190665
0.0190586
0.0190508
0.0190427
0.0190341
0.0190249
0.019015
0.0190043
0.0189928
0.0189806
0.0189677
0.0189542
0.0189402
0.0189259
0.0189115
0.0188969
0.0188825
0.0188682
0.0188541
0.0188402
0.0188268
0.0190889
0.0190831
0.0190776
0.0190721
0.0190663
0.0190599
0.0190527
0.0190446
0.0190355
0.0190253
0.0190141
0.019002
0.0189891
0.0189756
0.0189617
0.0189475
0.0189332
0.018919
0.0189049
0.018891
0.0188775
0.0188644
0.0191074
0.0191047
0.0191025
0.0191004
0.019098
0.0190948
0.0190907
0.0190852
0.0190784
0.0190702
0.0190606
0.0190498
0.019038
0.0190254
0.0190121
0.0189984
0.0189846
0.0189708
0.0189571
0.0189438
0.0189307
0.0189181
0.0191314
0.0191332
0.0191358
0.0191387
0.0191412
0.0191429
0.0191432
0.0191418
0.0191385
0.0191333
0.0191262
0.0191175
0.0191072
0.0190958
0.0190836
0.0190707
0.0190576
0.0190444
0.0190314
0.0190186
0.0190063
0.0189944
0.0191628
0.019171
0.0191807
0.019191
0.019201
0.0192098
0.0192167
0.0192212
0.019223
0.019222
0.0192185
0.0192124
0.0192044
0.0191946
0.0191835
0.0191716
0.0191592
0.0191466
0.0191342
0.019122
0.0191103
0.019099
0.0192042
0.0192219
0.0192418
0.0192626
0.0192831
0.0193017
0.0193175
0.0193296
0.0193377
0.0193418
0.0193422
0.0193391
0.0193331
0.0193247
0.0193145
0.0193031
0.0192909
0.0192785
0.0192661
0.0192539
0.0192422
0.019231
0.0192588
0.019289
0.0193216
0.0193547
0.0193863
0.0194147
0.0194389
0.0194579
0.0194715
0.0194797
0.019483
0.0194818
0.0194769
0.0194688
0.0194583
0.0194463
0.0194333
0.0194199
0.0194064
0.0193932
0.0193803
0.0193679
0.0193263
0.0187824
0.0180594
0.0177147
0.017784
0.0182922
0.019247
0.0195456
0.0195612
0.019571
0.0195753
0.0195748
0.01957
0.0195616
0.0195505
0.0195373
0.0195229
0.0195079
0.0194926
0.0194773
0.0194623
0.0194475
0.0169486
0.0157909
0.0149725
0.0145269
0.0144916
0.0148858
0.015696
0.0168883
0.0184311
0.0194838
0.0194895
0.0194909
0.0194882
0.0194817
0.0194721
0.01946
0.0194461
0.0194308
0.0194146
0.0193978
0.0193806
0.0193629
0.0142956
0.0130773
0.0121851
0.0116529
0.0115268
0.0118525
0.0126177
0.0137556
0.0151733
0.0168254
0.0187588
0.0190747
0.0190774
0.0190775
0.0190715
0.0190612
0.0190482
0.0190339
0.0190185
0.0190008
0.0189809
0.0189588
0.0180725
0.0180709
0.0180657
0.0180575
0.018047
0.0180305
0.0180065
0.0179747
0.0160916
0.0161152
0.0161309
0.016138
0.0161336
0.0161028
0.016046
0.0159624
0.0192085
0.0192193
0.0192512
0.016884
0.019219
0.0192158
0.0192204
0.0192408
0.0191637
0.0148943
0.0119642
0.0192216
0.019221
0.0192302
0.0192582
0.0174633
0.0136221
0.0109992
0.0192234
0.0192242
0.0192362
0.0192683
0.0166667
0.0130232
0.0105395
0.00901042
0.0192234
0.0192242
0.0192362
0.0192683
0.0166677
0.0130241
0.0105408
0.00901276
0.0192418
0.0192338
0.0192268
0.0192216
0.0192209
0.0192302
0.0192582
0.0174641
0.0136226
0.0110007
0.00938248
0.0192502
0.0192414
0.0192332
0.0192255
0.019219
0.0192157
0.0192203
0.0192408
0.019162
0.0148916
0.0119626
0.0101401
0.0192499
0.019241
0.0192324
0.019224
0.0192159
0.0192096
0.0192085
0.0192192
0.0192511
0.0168745
0.0133984
0.0111996
0.0192498
0.0192408
0.0192321
0.019223
0.0192136
0.0192044
0.019198
0.0191994
0.0192175
0.0192608
0.0151925
0.0123832
0.0192498
0.019241
0.0192323
0.0192231
0.0192129
0.0192019
0.0191916
0.0191858
0.0191923
0.0192216
0.0169651
0.0133832
0.011183
0.0192592
0.0192502
0.0192418
0.0192336
0.0192248
0.0192149
0.0192034
0.0191914
0.0191818
0.0191815
0.0192016
0.0180957
0.0138322
0.0112134
0.0192692
0.0192594
0.0192509
0.0192432
0.019236
0.0192285
0.01922
0.01921
0.0191991
0.0191898
0.0191889
0.0192082
0.0178328
0.013406
0.0106855
0.0192691
0.0192598
0.0192519
0.0192453
0.0192397
0.0192344
0.0192288
0.0192225
0.0192161
0.0192125
0.0192189
0.0192481
0.0159428
0.0120059
0.00957699
0.019269
0.0192602
0.0192532
0.019248
0.0192444
0.0192423
0.0192412
0.0192414
0.0192439
0.0192525
0.0192759
0.0174922
0.0129204
0.00974828
0.0078693
0.00666259
0.00607219
0.00543965
0.00456643
0.0192689
0.0192606
0.0192546
0.019251
0.01925
0.0192519
0.0192571
0.0192665
0.0192828
0.0193111
0.0173938
0.0131723
0.00957703
0.00695077
0.00557108
0.00669673
0.00537199
0.00472191
0.0042699
0.0192686
0.0192609
0.0192558
0.019254
0.0192559
0.0192625
0.0192751
0.0192964
0.0193302
0.0169426
0.0133196
0.00981143
0.00677716
0.00479856
0.00582694
0.00341534
0.00346434
0.00378311
0.00381933
0.00317141
0.0192681
0.0192608
0.0192567
0.0192565
0.0192612
0.0192727
0.0192934
0.0193272
0.0172029
0.0139079
0.0106247
0.00759428
0.00491789
0.00340076
0.00298666
0.0019671
0.0022558
0.00158183
0.00126424
0.000788713
0.0192672
0.0192602
0.0192568
0.019258
0.0192652
0.0192809
0.0193088
0.0184529
0.0152432
0.0120756
0.00909427
0.00636799
0.00442145
0.00399257
0.00190822
0.00125712
0.00117146
0.000160322
0.0192659
0.0192591
0.019256
0.019258
0.0192669
0.0192857
0.0193186
0.0173842
0.0142186
0.0112135
0.00847419
0.00606876
0.00432614
0.00344517
0.00194054
0.00154111
0.000925008
0.0192642
0.0192572
0.0192541
0.0192563
0.0192658
0.0192858
0.0193209
0.0170399
0.0139568
0.0111014
0.00854306
0.00635466
0.00447023
0.00322871
0.00270082
0.00170888
0.00146429
0.00086977
0.0012713
0.00166898
0.019262
0.0192546
0.0192511
0.0192529
0.0192619
0.0192812
0.0193155
0.0173039
0.014311
0.0115831
0.00916188
0.00709695
0.00538074
0.00415269
0.00338825
0.0028899
0.00220374
0.00204453
0.00225646
0.00183785
0.0017562
0.00178904
0.00188146
0.00212835
0.00230964
0.00291118
0.00300213
0.00304934
0.00306877
0.00306951
0.00306109
0.00305172
0.00304558
0.00304517
0.00305188
0.00306632
0.00308885
0.0031198
0.00315975
0.00321026
0.00327382
0.00335594
0.0192595
0.0192515
0.0192472
0.0192479
0.0192554
0.0192726
0.0193035
0.0180816
0.0151696
0.0125446
0.0102321
0.00825288
0.00662043
0.00530976
0.00459029
0.0040827
0.00468681
0.0032566
0.00359173
0.00445589
0.00540277
0.00520549
0.00520948
0.0053085
0.00624205
0.00636624
0.00646765
0.00653331
0.00651213
0.00641808
0.00627892
0.00611496
0.00594167
0.00576964
0.00560584
0.00545216
0.00530916
0.00517688
0.00505455
0.00494112
0.00483253
0.0047309
0.00463118
0.0192567
0.0192479
0.0192425
0.0192417
0.0192471
0.019261
0.019287
0.0192892
0.0164438
0.0138916
0.0116531
0.00973057
0.00812648
0.00682662
0.0058803
0.0056177
0.00514488
0.00542071
0.00608352
0.00709378
0.0083955
0.00972181
0.0107425
0.0111892
0.0108595
0.0108742
0.0109595
0.0111618
0.0113715
0.011547
0.0116852
0.0117724
0.0117291
0.0114395
0.0111231
0.010789
0.0104432
0.0100891
0.00972717
0.0093561
0.00877549
0.00810049
0.00746173
0.0192658
0.0192537
0.019244
0.0192374
0.0192348
0.0192377
0.0192478
0.019268
0.0193017
0.0180554
0.015556
0.0133635
0.011478
0.00989454
0.00861035
0.00763704
0.00712163
0.00722895
0.00761252
0.00826896
0.00925978
0.0105826
0.0121164
0.0136283
0.0148887
0.0159161
0.0159439
0.0159678
0.0159863
0.0159969
0.0159979
0.0159725
0.0159187
0.0158356
0.0157227
0.0155794
0.0154048
0.0151974
0.0149551
0.0146742
0.01435
0.0139767
0.0129432
0.0118637
0.0192634
0.0192506
0.01924
0.019232
0.0192276
0.0192278
0.0192341
0.0192485
0.0192738
0.0193118
0.0175181
0.0153566
0.0134985
0.0119412
0.0106837
0.00973877
0.00915485
0.00900156
0.00927141
0.00997403
0.0110999
0.0125728
0.0142884
0.0161739
0.0180012
0.0180122
0.0180158
0.0180149
0.0180104
0.0180025
0.0179922
0.017976
0.0179515
0.0179186
0.0178767
0.0178249
0.0177619
0.0176858
0.0175941
0.0174833
0.0173488
0.0171844
0.016983
0.0167355
0.0192611
0.0192476
0.0192359
0.0192267
0.0192205
0.0192181
0.0192207
0.0192297
0.0192471
0.0192751
0.0193143
0.0176377
0.0158116
0.0142865
0.0130703
0.0121781
0.0116434
0.0115131
0.0118339
0.0125952
0.0137413
0.0151955
0.0169263
0.0189767
0.019055
0.0190539
0.0190508
0.0190435
0.0190322
0.0190184
0.0190026
0.0189841
0.0189632
0.0189399
0.0189142
0.0188859
0.0188547
0.0188203
0.0187819
0.0187388
0.0186897
0.0186329
0.0185662
0.0184864
0.0192588
0.0192446
0.0192321
0.0192216
0.0192137
0.0192089
0.0192082
0.0192125
0.0192231
0.0192416
0.0192696
0.0193069
0.0184007
0.0169319
0.0157769
0.0149598
0.0145139
0.0144776
0.0148717
0.0156866
0.0168954
0.0184823
0.0194795
0.0194834
0.0194828
0.0194781
0.0194698
0.0194585
0.0194447
0.0194292
0.0194124
0.0193948
0.0193766
0.0193579
0.0193388
0.0193193
0.0192993
0.0192789
0.019258
0.0192365
0.0192145
0.0191919
0.0191687
0.0191444
0.0192567
0.0192418
0.0192284
0.0192168
0.0192073
0.0192005
0.0191968
0.0191971
0.0192021
0.0192129
0.0192305
0.0192559
0.0192887
0.0193277
0.018761
0.0180404
0.0176976
0.0177691
0.0182818
0.019248
0.019546
0.0195611
0.0195702
0.0195736
0.0195721
0.0195663
0.019557
0.0195449
0.0195308
0.0195156
0.0194998
0.0194837
0.0194677
0.0194519
0.0194365
0.0194213
0.0194066
0.0193923
0.0193784
0.0193652
0.0193527
0.0193411
0.0193307
0.0193216
0.0192547
0.0192392
0.0192251
0.0192124
0.0192015
0.0191929
0.0191867
0.0191837
0.0191842
0.0191889
0.0191985
0.0192134
0.019234
0.0192601
0.0192904
0.0193232
0.0193564
0.0193881
0.0194165
0.0194407
0.0194597
0.019473
0.0194809
0.0194838
0.0194821
0.0194766
0.0194681
0.0194571
0.0194446
0.0194312
0.0194173
0.0194035
0.0193899
0.0193767
0.019364
0.0193518
0.0193403
0.0193294
0.0193193
0.01931
0.0193016
0.0192942
0.0192881
0.0192834
0.0192529
0.0192369
0.019222
0.0192084
0.0191964
0.0191861
0.0191779
0.0191721
0.0191691
0.0191691
0.0191726
0.0191798
0.0191908
0.0192054
0.0192232
0.0192433
0.0192643
0.0192849
0.0193037
0.0193195
0.0193316
0.0193397
0.0193437
0.0193439
0.0193406
0.0193343
0.0193257
0.0193152
0.0193035
0.0192912
0.0192785
0.0192659
0.0192536
0.0192417
0.0192304
0.0192197
0.0192096
0.0192002
0.0191915
0.0191837
0.0191767
0.0191706
0.0191656
0.0191617
0.0192512
0.0192347
0.0192193
0.0192049
0.0191918
0.0191802
0.0191703
0.0191623
0.0191565
0.0191529
0.0191519
0.0191534
0.0191574
0.0191638
0.0191723
0.0191821
0.0191925
0.0192026
0.0192115
0.0192185
0.0192231