/*--------------------------------*- C++ -*----------------------------------*\
  =========                 |
  \\      /  F ield         | OpenFOAM: The Open Source CFD Toolbox
   \\    /   O peration     | Website:  https://openfoam.org
    \\  /    A nd           | Version:  13
     \\/     M anipulation  |
\*---------------------------------------------------------------------------*/
FoamFile
{
    format      ascii;
    class       volScalarField;
    location    "100";
    object      omega;
}
// * * * * * * * * * * * * * * * * * * * * * * * * * * * * * * * * * * * * * //

dimensions      [0 0 -1 0 0 0 0];

internalField   nonuniform List<scalar> 
171634
(
18.0622
17.9787
17.8963
17.8148
17.7342
17.6544
17.5754
17.497
17.4193
17.3422
17.2658
17.19
17.1149
17.0404
16.9666
16.8935
16.8211
16.7495
16.6786
16.6084
16.539
16.4704
18.0626
17.9793
17.8969
17.8155
17.735
17.6553
17.5762
17.4979
17.4202
17.3432
17.2668
17.191
17.1159
17.0414
16.9676
16.8944
16.822
16.7503
16.6794
16.6093
16.5399
16.4712
18.0638
17.9806
17.8985
17.8172
17.7368
17.6572
17.5783
17.5001
17.4225
17.3455
17.2691
17.1933
17.1181
17.0436
16.9697
16.8965
16.8241
16.7523
16.6813
16.6111
16.5416
16.473
18.0655
17.9826
17.9007
17.8197
17.7396
17.6602
17.5815
17.5034
17.4258
17.3489
17.2725
17.1967
17.1215
17.0469
16.973
16.8997
16.8271
16.7553
16.6842
16.6139
16.5443
16.4756
18.068
17.9855
17.904
17.8234
17.7436
17.6645
17.586
17.5081
17.4308
17.3539
17.2776
17.2018
17.1266
17.0519
16.9778
16.9044
16.8317
16.7597
16.6885
16.6181
16.5484
16.4796
18.0714
17.9894
17.9084
17.8284
17.749
17.6704
17.5923
17.5147
17.4376
17.3609
17.2846
17.2089
17.1336
17.0588
16.9846
16.9111
16.8382
16.7661
16.6947
16.6241
16.5543
16.4854
18.076
17.9947
17.9145
17.8351
17.7564
17.6784
17.6008
17.5236
17.4468
17.3704
17.2943
17.2185
17.1432
17.0684
16.9941
16.9203
16.8473
16.775
16.7034
16.6327
16.5627
16.4937
18.082
18.0017
17.9224
17.844
17.7663
17.6891
17.6122
17.5357
17.4594
17.3832
17.3074
17.2317
17.1564
17.0815
17.0071
16.9332
16.86
16.7874
16.7157
16.6448
16.5747
16.5055
18.0898
18.0109
17.933
17.8559
17.7794
17.7034
17.6276
17.5519
17.4763
17.4007
17.3252
17.2498
17.1746
17.0997
17.0251
16.9511
16.8777
16.805
16.733
16.6619
16.5917
16.5225
18.1002
18.023
17.947
17.8718
17.7971
17.7227
17.6484
17.574
17.4994
17.4247
17.3498
17.2747
17.1998
17.1249
17.0504
16.9762
16.9027
16.8298
16.7577
16.6865
16.6161
16.5468
18.1137
18.0391
17.9656
17.893
17.8209
17.7489
17.6768
17.6043
17.5313
17.4578
17.3838
17.3095
17.235
17.1604
17.0859
17.0118
16.9382
16.8652
16.793
16.7216
16.6512
16.5818
18.1316
18.0605
17.9907
17.9219
17.8534
17.785
17.716
17.6464
17.5758
17.5043
17.4319
17.3587
17.285
17.2109
17.1367
17.0627
16.9891
16.9161
16.8438
16.7725
16.7021
16.6327
18.1553
18.0891
18.0247
17.9614
17.8985
17.8354
17.7713
17.706
17.6392
17.5707
17.5007
17.4294
17.357
17.2838
17.2102
17.1364
17.063
16.99
16.9178
16.8464
16.7761
16.7068
18.187
18.128
18.0715
18.0165
17.962
17.907
17.8505
17.792
17.7309
17.6673
17.6011
17.5326
17.4622
17.3904
17.3176
17.2444
17.1711
17.0983
17.026
16.9547
16.8844
16.8153
18.2296
18.1812
18.1366
18.0944
18.053
18.0108
17.9663
17.9184
17.8665
17.8103
17.75
17.686
17.6187
17.5488
17.4772
17.4045
17.3315
17.2586
17.1863
17.1149
17.0447
16.9757
18.2871
18.2545
18.228
18.2058
18.1853
18.1639
18.139
18.1087
18.0719
18.028
17.9771
17.92
17.8573
17.7902
17.72
17.6478
17.5746
17.5014
17.4288
17.3571
17.2868
17.218
18.3647
18.3561
18.3584
18.3691
18.3843
18.3989
18.4082
18.4084
18.3973
18.3743
18.3391
18.2927
18.2368
18.1732
18.1042
18.0318
17.9577
17.8833
17.8095
17.7372
17.6667
17.5983
18.4699
18.4993
18.5496
18.6178
18.6973
18.7785
18.8511
18.9071
18.9421
18.9545
18.945
18.9149
18.8675
18.8069
18.7374
18.6628
18.586
18.5093
18.4341
18.3615
18.292
18.2262
18.6138
18.7042
18.8362
19.0083
19.2101
19.4215
19.6179
19.7799
19.8981
19.9701
19.9998
19.9919
19.9533
19.8929
19.8195
19.74
19.6592
19.5808
19.5068
19.4387
19.3777
19.3245
21.739
21.6598
21.5855
21.522
21.4732
21.4421
21.4317
21.4453
25.3346
25.3053
25.3189
25.389
25.5281
25.7478
26.0579
26.4662
18.3741
18.2947
18.2379
18.2182
18.5613
18.4685
18.3827
18.3123
18.2702
18.2729
18.3375
18.5624
18.4719
18.3904
18.3276
18.2979
18.3204
18.4133
18.5635
18.4744
18.3954
18.337
18.3148
18.3491
18.4591
18.6507
18.5635
18.4744
18.3954
18.337
18.3148
18.349
18.459
18.6505
18.8479
18.752
18.6566
18.5624
18.4719
18.3904
18.3275
18.2979
18.3203
18.4132
18.5828
18.945
18.8485
18.7524
18.6565
18.5613
18.4685
18.3827
18.3123
18.2702
18.2729
18.3376
18.4715
18.9459
18.8494
18.7532
18.6568
18.5603
18.4649
18.374
18.2946
18.2379
18.2182
18.2512
18.3466
18.9474
18.8511
18.7549
18.6583
18.5608
18.4631
18.3676
18.2799
18.2096
18.1701
18.176
18.2396
18.9494
18.8535
18.7578
18.6614
18.5636
18.4646
18.366
18.2722
18.1917
18.1374
18.1246
18.1682
18.276
19.0482
18.9521
18.857
18.7621
18.6666
18.5697
18.4709
18.3713
18.2745
18.1885
18.1262
18.1045
18.1416
18.2515
19.1479
19.0508
18.9555
18.8615
18.7681
18.6745
18.5796
18.483
18.3852
18.2895
18.2036
18.1411
18.1217
18.1683
18.3019
19.1501
19.0538
18.9596
18.8671
18.7759
18.685
18.5938
18.5017
18.4092
18.3195
18.2406
18.1879
18.1853
18.2644
18.4572
19.1526
19.0572
18.9642
18.8737
18.7852
18.6982
18.6124
18.5276
18.4446
18.3672
18.3048
18.2763
18.3157
18.4725
18.7997
19.3575
20.1445
21.1635
22.3875
19.1553
19.0607
18.9692
18.8809
18.7957
18.7137
18.6351
18.5606
18.4921
18.4351
18.4026
18.4242
18.5607
18.9202
19.6278
20.865
22.2451
22.558
24.0768
19.1579
19.0643
18.9743
18.8883
18.8068
18.7306
18.6607
18.5993
18.5504
18.5235
18.5408
18.656
19.0003
19.9148
21.7129
22.2269
24.6096
28.5216
33.8879
39.5899
19.1604
19.0677
18.9791
18.8954
18.8177
18.7474
18.6869
18.6402
18.6151
18.6279
18.7163
18.9724
19.6622
21.5412
22.3453
27.7766
40.0825
63.8407
80.1295
91.1087
97.6658
19.1627
19.0707
18.9833
18.9016
18.8272
18.7623
18.7107
18.6784
18.6777
18.7327
18.8971
19.3035
20.3267
22.944
24.6518
37.9771
84.2061
150.969
349.031
419.725
415.637
434.667
19.1645
19.073
18.9865
18.9063
18.8343
18.7735
18.7287
18.7078
18.7262
18.8133
19.0321
19.5291
20.6818
23.3155
25.5574
38.9914
82.2504
164.023
686.989
856.014
727.498
867.854
19.166
19.0746
18.9885
18.909
18.8383
18.7798
18.7385
18.7235
18.7508
18.8505
19.0826
19.575
20.6225
22.8823
27.3921
31.6166
53.263
98.5784
183.412
346.057
514.48
599.611
652.186
573.714
545.371
19.1669
19.0755
18.9893
18.9098
18.8392
18.7807
18.7395
18.7241
18.7492
18.841
19.0475
19.4611
20.2649
21.8319
24.6605
29.2379
34.1943
52.052
78.4725
116.383
153.89
172.094
179.32
184.008
163.355
168.245
174.167
179.33
182.313
183.102
181.878
178.982
174.823
169.79
164.22
158.219
152.112
146.097
140.288
134.757
129.514
124.469
19.1675
19.0757
18.989
18.9088
18.8371
18.7769
18.7328
18.7121
18.7267
18.7965
18.9555
19.2624
19.8207
20.8159
22.5241
25.1338
28.6737
31.7145
41.1384
51.5665
60.5837
66.3812
69.2256
64.177
64.7042
66.3841
69.2142
72.9019
77.2666
82.0257
86.8945
91.5684
95.8077
99.4827
102.525
104.909
106.658
107.828
108.493
108.732
108.623
108.221
107.571
19.1677
19.0753
18.9878
18.9063
18.8327
18.7695
18.7206
18.6916
18.6913
18.7339
18.8411
19.0477
19.4086
20.0104
20.9792
22.4129
24.2369
26.1713
28.23
30.1956
31.7281
32.6905
33.1559
33.4087
33.5292
33.735
34.1371
34.8023
35.765
37.0475
38.6487
40.5414
42.6798
45.0124
47.4886
50.0643
52.7063
55.3963
58.1311
60.9206
63.7835
66.7412
69.7873
19.2644
19.1676
19.0746
18.986
18.9029
18.8269
18.76
18.7053
18.6669
18.651
18.6669
18.7279
18.8535
19.0712
19.4189
19.9445
20.6839
21.6011
22.5665
23.4998
24.314
24.9339
25.3342
25.5411
25.6089
25.5956
25.5557
25.5236
25.5226
25.57
25.6813
25.8707
26.1504
26.5297
27.0159
27.6161
28.3381
29.192
30.1926
31.3617
32.7291
34.3321
36.2114
38.406
19.2647
19.1674
19.0735
18.9837
18.899
18.8204
18.7496
18.6889
18.6413
18.611
18.6036
18.6271
18.6918
18.811
19
19.2745
19.6422
20.087
20.5621
21.012
21.3907
21.6732
21.8552
21.9477
21.9701
21.9415
21.8835
21.8132
21.742
21.6778
21.6261
21.591
21.5762
21.5848
21.6208
21.6885
21.7939
21.9442
22.1497
22.4238
22.7846
23.2552
23.8611
24.6327
19.265
19.1671
19.0724
18.9814
18.8949
18.8137
18.7392
18.6729
18.6169
18.5741
18.5477
18.5422
18.563
18.6159
18.7068
18.8392
19.0122
19.2156
19.4293
19.6286
19.7941
19.9152
19.9901
20.0221
20.0164
19.9802
19.9226
19.8522
19.7761
19.6992
19.6251
19.556
19.4935
19.4386
19.3924
19.356
19.3311
19.3199
19.3255
19.3524
19.4065
19.4956
19.6296
19.8196
19.2652
19.1668
19.0713
18.9791
18.8909
18.8074
18.7294
18.6581
18.595
18.5418
18.5005
18.4735
18.4632
18.472
18.5018
18.5525
18.6213
18.7017
18.7841
18.8579
18.9153
18.9514
18.9648
18.956
18.9265
18.8799
18.8202
18.7518
18.6785
18.6033
18.5283
18.4551
18.3846
18.3175
18.2543
18.1955
18.1415
18.0931
18.0511
18.017
17.9924
17.9796
17.9814
18.0009
19.2655
19.1665
19.0702
18.977
18.8873
18.8016
18.7206
18.6451
18.576
18.5144
18.4616
18.4187
18.3868
18.3667
18.3584
18.361
18.3722
18.3878
18.4031
18.4129
18.4136
18.403
18.3802
18.3452
18.2989
18.2431
18.1797
18.111
18.039
17.9655
17.8917
17.8187
17.7472
17.6777
17.6104
17.5456
17.4836
17.4246
17.369
17.3172
17.2698
17.2277
17.1915
17.1622
19.2658
19.1663
19.0694
18.9752
18.8841
18.7966
18.713
18.6339
18.56
18.4918
18.4301
18.3755
18.3284
18.289
18.2566
18.2304
18.2084
18.1882
18.1671
18.1426
18.1125
18.0758
18.032
17.9811
17.9238
17.8611
17.794
17.7237
17.6515
17.5785
17.5055
17.433
17.3617
17.2918
17.2234
17.1568
17.0921
17.0294
16.9689
16.9108
16.8552
16.8025
16.753
16.7069
19.2662
19.1662
19.0687
18.9736
18.8814
18.7923
18.7066
18.6246
18.5468
18.4736
18.4052
18.342
18.2841
18.2313
18.1832
18.1387
18.0967
18.0555
18.0135
17.9692
17.9214
17.8696
17.8134
17.753
17.6889
17.6215
17.5515
17.4798
17.4071
17.334
17.2612
17.1889
17.1176
17.0475
16.9787
16.9113
16.8455
16.7812
16.7186
16.6577
16.5986
16.5416
16.4866
16.4337
19.2666
19.1663
19.0681
18.9724
18.8792
18.7887
18.7012
18.6169
18.5361
18.4589
18.3856
18.3162
18.2506
18.1886
18.1298
18.0734
18.0186
17.9643
17.9094
17.8531
17.7946
17.7336
17.6699
17.6037
17.5352
17.4647
17.3928
17.32
17.2467
17.1734
17.1005
17.0283
16.957
16.8868
16.8177
16.7499
16.6834
16.6183
16.5546
16.4924
16.4316
16.3723
16.3147
16.2586
19.267
19.1664
19.0678
18.9714
18.8774
18.7858
18.6969
18.6107
18.5275
18.4473
18.3702
18.2962
18.2252
18.1568
18.0908
18.0265
17.9634
17.9006
17.8376
17.7736
17.7084
17.6416
17.5732
17.5032
17.4319
17.3594
17.2862
17.2125
17.1388
17.0653
16.9923
16.9201
16.8488
16.7785
16.7092
16.6412
16.5744
16.5088
16.4444
16.3813
16.3196
16.2591
16.1999
16.142
19.2675
19.1666
19.0676
18.9707
18.876
18.7835
18.6934
18.6057
18.5206
18.4381
18.3582
18.2809
18.2059
18.133
18.062
17.9924
17.9237
17.8554
17.787
17.7182
17.6486
17.5781
17.5067
17.4343
17.3611
17.2874
17.2133
17.1392
17.0652
16.9916
16.9186
16.8464
16.775
16.7047
16.6354
16.5672
16.5001
16.4342
16.3694
16.3058
16.2434
16.1821
16.1219
16.0629
19.2681
19.1669
19.0676
18.9702
18.8749
18.7816
18.6906
18.6018
18.5152
18.4309
18.3489
18.269
18.1912
18.1151
18.0406
17.9672
17.8948
17.8227
17.7509
17.6788
17.6064
17.5335
17.4601
17.3862
17.3119
17.2374
17.1629
17.0885
17.0144
16.9408
16.8678
16.7957
16.7244
16.6541
16.5847
16.5164
16.4492
16.3831
16.318
16.2541
16.1912
16.1293
16.0685
16.0086
19.2686
19.1672
19.0676
18.9699
18.8741
18.7802
18.6884
18.5987
18.5109
18.4253
18.3416
18.2599
18.1799
18.1015
18.0245
17.9485
17.8734
17.7988
17.7246
17.6503
17.5761
17.5016
17.4269
17.3521
17.2771
17.2022
17.1274
17.0529
16.9789
16.9054
16.8326
16.7605
16.6893
16.6191
16.5498
16.4815
16.4142
16.348
16.2827
16.2185
16.1553
16.093
16.0316
15.9712
19.2691
19.1676
19.0677
18.9697
18.8735
18.7792
18.6868
18.5962
18.5076
18.4209
18.336
18.2528
18.1712
18.0911
18.0123
17.9345
17.8575
17.7811
17.7052
17.6295
17.5539
17.4784
17.4029
17.3275
17.2522
17.177
17.1022
17.0277
16.9538
16.8805
16.8078
16.736
16.6649
16.5948
16.5256
16.4574
16.3901
16.3237
16.2584
16.1939
16.1304
16.0678
16.0061
15.9451
19.2696
19.1679
19.0679
18.9696
18.8731
18.7784
18.6855
18.5944
18.505
18.4175
18.3316
18.2474
18.1646
18.0832
18.003
17.9239
17.8456
17.7679
17.6908
17.6141
17.5376
17.4614
17.3854
17.3096
17.2341
17.1589
17.084
17.0097
16.9359
16.8628
16.7903
16.7186
16.6478
16.5778
16.5087
16.4406
16.3733
16.3069
16.2415
16.1769
16.1132
16.0504
15.9883
15.927
19.2701
19.1683
19.0681
18.9696
18.8729
18.7778
18.6845
18.5929
18.5031
18.4148
18.3282
18.2432
18.1595
18.0772
17.996
17.9159
17.8366
17.758
17.6801
17.6026
17.5256
17.4489
17.3725
17.2965
17.2209
17.1456
17.0709
16.9967
16.923
16.8501
16.7778
16.7064
16.6357
16.5659
16.4969
16.4288
16.3616
16.2952
16.2297
16.1651
16.1013
16.0382
15.9759
15.9143
19.2706
19.1686
19.0683
18.9697
18.8727
18.7774
18.6838
18.5919
18.5016
18.4128
18.3257
18.24
18.1557
18.0726
17.9907
17.9098
17.8298
17.7506
17.6721
17.5941
17.5166
17.4396
17.363
17.2868
17.2111
17.136
17.0613
16.9872
16.9138
16.841
16.7689
16.6976
16.6271
16.5575
16.4886
16.4206
16.3534
16.2871
16.2216
16.1568
16.0929
16.0297
15.9672
15.9053
19.2709
19.1689
19.0686
18.9698
18.8727
18.7772
18.6833
18.5911
18.5004
18.4114
18.3238
18.2376
18.1528
18.0692
17.9868
17.9053
17.8248
17.7451
17.6661
17.5878
17.51
17.4327
17.356
17.2798
17.2041
17.1289
17.0544
16.9804
16.9071
16.8345
16.7626
16.6915
16.6211
16.5515
16.4828
16.4149
16.3477
16.2814
16.2159
16.1511
16.0871
16.0237
15.9611
15.899
19.2713
19.1692
19.0687
18.9699
18.8726
18.777
18.683
18.5905
18.4996
18.4103
18.3224
18.2358
18.1507
18.0667
17.9838
17.902
17.8212
17.7411
17.6618
17.5832
17.5052
17.4278
17.3509
17.2747
17.199
17.1239
17.0494
16.9755
16.9023
16.8299
16.7581
16.6871
16.6169
16.5474
16.4788
16.4109
16.3438
16.2775
16.2119
16.1471
16.083
16.0196
15.9568
15.8947
19.2715
19.1694
19.0689
18.97
18.8726
18.7769
18.6827
18.5901
18.4991
18.4095
18.3214
18.2346
18.1492
18.065
17.9819
17.8998
17.8186
17.7383
17.6588
17.58
17.5019
17.4244
17.3475
17.2712
17.1955
17.1205
17.046
16.9723
16.8992
16.8268
16.7551
16.6842
16.6141
16.5447
16.4761
16.4083
16.3412
16.2749
16.2094
16.1445
16.0804
16.0169
15.954
15.8917
19.2717
19.1695
19.069
18.97
18.8726
18.7768
18.6826
18.5899
18.4987
18.409
18.3207
18.2338
18.1482
18.0638
17.9805
17.8982
17.8169
17.7365
17.6568
17.5779
17.4997
17.4221
17.3452
17.2689
17.1932
17.1182
17.0438
16.9701
16.897
16.8247
16.7531
16.6823
16.6122
16.5429
16.4743
16.4066
16.3395
16.2732
16.2077
16.1428
16.0787
16.0151
15.9522
15.8899
19.2718
19.1697
19.0691
18.9701
18.8727
18.7769
18.6826
18.5898
18.4986
18.4089
18.3205
18.2335
18.1478
18.0633
17.98
17.8976
17.8162
17.7357
17.656
17.577
17.4988
17.4212
17.3442
17.2679
17.1922
17.1172
17.0428
16.9691
16.8961
16.8238
16.7522
16.6814
16.6114
16.5421
16.4735
16.4058
16.3387
16.2724
16.2069
16.142
16.0778
16.0142
15.9513
15.8889
18.062
17.9786
17.8961
17.8147
17.734
17.6542
17.5752
17.4968
17.4191
17.342
17.2656
17.1899
17.1147
17.0403
16.9665
16.8934
16.8211
16.7494
16.6786
16.6084
16.5391
16.4705
18.0625
17.9791
17.8968
17.8154
17.7348
17.6551
17.5761
17.4977
17.4201
17.343
17.2666
17.1909
17.1157
17.0413
16.9675
16.8943
16.822
16.7503
16.6794
16.6093
16.5399
16.4713
18.0636
17.9804
17.8983
17.817
17.7366
17.657
17.5781
17.4999
17.4223
17.3453
17.2689
17.1931
17.118
17.0434
16.9696
16.8964
16.824
16.7522
16.6813
16.6111
16.5416
16.473
18.0653
17.9824
17.9004
17.8195
17.7393
17.6599
17.5812
17.5031
17.4256
17.3486
17.2723
17.1965
17.1213
17.0467
16.9728
16.8995
16.827
16.7551
16.6841
16.6138
16.5443
16.4755
18.0677
17.9852
17.9036
17.823
17.7432
17.6641
17.5856
17.5077
17.4304
17.3535
17.2772
17.2014
17.1262
17.0515
16.9775
16.9041
16.8314
16.7595
16.6883
16.6179
16.5482
16.4794
18.071
17.989
17.908
17.8279
17.7485
17.6699
17.5918
17.5142
17.437
17.3603
17.2841
17.2083
17.133
17.0583
16.9841
16.9106
16.8378
16.7656
16.6943
16.6237
16.554
16.4851
18.0755
17.9942
17.9139
17.8345
17.7558
17.6777
17.6001
17.5229
17.4461
17.3697
17.2936
17.2178
17.1425
17.0677
16.9934
16.9197
16.8467
16.7744
16.7029
16.6321
16.5623
16.4932
18.0814
18.0011
17.9218
17.8433
17.7655
17.6883
17.6114
17.5348
17.4585
17.3824
17.3065
17.2309
17.1556
17.0807
17.0063
16.9324
16.8592
16.7867
16.715
16.6441
16.5741
16.5049
18.0892
18.0102
17.9322
17.8551
17.7786
17.7025
17.6266
17.5509
17.4753
17.3997
17.3241
17.2487
17.1735
17.0986
17.0241
16.9501
16.8767
16.804
16.7321
16.6611
16.5909
16.5217
18.0995
18.0222
17.9461
17.8708
17.796
17.7216
17.6472
17.5727
17.4981
17.4233
17.3484
17.2734
17.1984
17.1235
17.049
16.9749
16.9014
16.8285
16.7565
16.6853
16.615
16.5457
18.1129
18.0382
17.9646
17.8919
17.8196
17.7475
17.6753
17.6027
17.5296
17.456
17.382
17.3077
17.2332
17.1586
17.0841
17.01
16.9365
16.8635
16.7914
16.7201
16.6498
16.5805
18.1307
18.0594
17.9895
17.9205
17.8519
17.7832
17.7141
17.6443
17.5736
17.502
17.4295
17.3563
17.2825
17.2085
17.1343
17.0604
16.9869
16.9139
16.8418
16.7705
16.7002
16.631
18.1543
18.0879
18.0233
17.9597
17.8966
17.8331
17.7688
17.7032
17.6362
17.5676
17.4975
17.4261
17.3537
17.2805
17.207
17.1334
17.0601
16.9873
16.9152
16.844
16.7739
16.7048
18.1859
18.1267
18.0698
18.0145
17.9596
17.9041
17.8472
17.7882
17.7268
17.6629
17.5966
17.5281
17.4578
17.3861
17.3135
17.2405
17.1676
17.095
17.0231
16.9521
16.8822
16.8134
18.2285
18.1798
18.1348
18.0921
18.0501
18.0072
17.9619
17.9133
17.8609
17.8044
17.744
17.68
17.6129
17.5435
17.4723
17.4001
17.3276
17.2553
17.1836
17.1128
17.0432
16.9748
18.2862
18.2534
18.2266
18.2037
18.1824
18.1599
18.1338
18.1024
18.0647
18.0203
17.9694
17.9125
17.8505
17.7842
17.7149
17.6437
17.5716
17.4994
17.4278
17.3571
17.2878
17.22
18.3647
18.3562
18.3585
18.3688
18.3831
18.3962
18.4035
18.4019
18.3896
18.3658
18.3308
18.2852
18.2305
18.1685
18.1012
18.0305
17.9582
17.8855
17.8134
17.7426
17.6736
17.6066
18.4725
18.5034
18.5553
18.6248
18.7044
18.7841
18.8539
18.9069
18.9397
18.9513
18.9421
18.9137
18.8688
18.8109
18.7443
18.6724
18.5983
18.524
18.4509
18.38
18.3121
18.2475
18.6228
18.719
18.8591
19.0404
19.2487
19.4608
19.6538
19.8115
19.9267
19.9978
20.0284
20.023
19.9877
19.9313
19.8666
19.7962
19.7224
19.6471
19.5726
19.5033
19.4399
19.3832
21.9463
21.8772
21.8049
21.7334
21.6647
21.6072
21.5646
21.5379
26.1148
26.0471
25.9843
25.9324
25.9019
25.9223
25.9926
26.1151
18.3953
18.3248
18.2808
18.2808
18.5732
18.4857
18.4075
18.3484
18.3233
18.3536
18.4626
18.5753
18.4906
18.4179
18.3683
18.3597
18.4172
18.5678
18.5769
18.494
18.4244
18.3804
18.3815
18.455
18.6303
18.9238
18.5769
18.494
18.4244
18.3804
18.3815
18.4549
18.6301
18.9234
18.852
18.758
18.6654
18.5753
18.4906
18.4179
18.3683
18.3597
18.4172
18.5677
18.8258
18.9477
18.8524
18.7581
18.6648
18.5732
18.4856
18.4075
18.3483
18.3233
18.3537
18.4627
18.6626
18.9485
18.8531
18.7585
18.6643
18.571
18.4799
18.3953
18.3247
18.2808
18.2809
18.3445
18.4838
18.9497
18.8544
18.7597
18.6649
18.5701
18.4759
18.3851
18.3038
18.2424
18.2153
18.2401
18.3304
18.9515
18.8565
18.762
18.6672
18.5715
18.4752
18.38
18.2905
18.2155
18.1685
18.1661
18.2247
18.3522
19.0494
18.9539
18.8596
18.7658
18.6716
18.5764
18.4796
18.3824
18.2884
18.2055
18.1471
18.1308
18.176
18.2978
19.1485
19.0519
18.9571
18.8638
18.7713
18.6788
18.5853
18.4904
18.3944
18.3007
18.2168
18.1569
18.1415
18.1949
18.3391
19.1507
19.0547
18.9609
18.8691
18.7786
18.6888
18.5989
18.5083
18.4176
18.3301
18.254
18.2059
18.2119
18.3061
18.5231
19.1531
19.0579
18.9654
18.8753
18.7876
18.7017
18.6173
18.5342
18.4537
18.38
18.324
18.3083
18.3751
18.5849
19.0021
19.6578
20.5244
21.6935
23.3805
19.1557
19.0613
18.9702
18.8823
18.7979
18.717
18.64
18.5678
18.5033
18.4535
18.4361
18.4929
18.715
19.2813
20.332
20.6507
21.7895
23.6044
26.2154
19.1582
19.0648
18.9751
18.8896
18.8088
18.7337
18.6658
18.6077
18.5651
18.5516
18.6011
18.7997
19.396
20.8838
21.3809
24.3765
30.6036
42.3169
57.7854
73.6657
19.1606
19.0681
18.9798
18.8965
18.8195
18.7505
18.6924
18.6502
18.6344
18.6693
18.8143
19.2357
20.526
23.8581
26.2348
41.3604
65.7333
205.158
512.017
879.477
19.1628
19.0709
18.9838
18.9025
18.8288
18.7653
18.7163
18.6896
18.701
18.7857
19.0294
19.6903
21.3968
22.7598
32.5133
85.8428
235.209
1035.67
19.1646
19.0732
18.9869
18.907
18.8357
18.7763
18.7342
18.7191
18.7505
18.8697
19.173
19.9252
21.7282
23.2589
34.112
60.4306
327.466
19.166
19.0747
18.9888
18.9096
18.8395
18.7822
18.7433
18.7336
18.7727
18.9005
19.2038
19.8907
21.5452
25.2842
29.3692
56.5104
135.197
769.984
800.049
532.095
19.1669
19.0755
18.9895
18.9102
18.84
18.7826
18.7434
18.7322
18.7665
18.8789
19.1349
19.6727
20.8266
23.2406
28.0223
34.1659
66.5124
147.599
272.821
355.559
370.953
343.133
310.335
254.867
230.174
174.749
168.755
165.617
164.24
163.233
162.037
160.441
158.356
155.801
152.848
149.59
146.13
142.566
138.993
135.499
132.159
129.083
19.1674
19.0757
18.989
18.909
18.8376
18.7782
18.7355
18.7178
18.7386
18.8217
19.0102
19.3848
20.1094
21.5086
23.992
27.9662
32.3516
48.5231
68.8666
86.0183
96.0925
98.8388
97.2479
94.2328
78.0389
76.476
75.2672
74.4515
74.6505
75.6571
77.1627
78.9634
80.9055
82.8842
84.8315
86.6707
88.3664
89.9239
91.3693
92.7462
94.0485
95.4003
96.9144
19.1676
19.0752
18.9877
18.9064
18.833
18.7703
18.7223
18.6951
18.6986
18.7488
18.8717
19.1112
19.5438
20.3054
21.5766
23.4063
25.5581
28.3269
31.3375
33.9603
35.7733
36.6848
36.8712
36.8711
36.8232
36.7359
36.6588
36.6193
36.6387
36.8857
37.3662
38.049
38.9072
39.9153
41.055
42.3142
43.69
45.1929
46.8482
48.6962
50.7869
53.1866
55.9561
19.2643
19.1675
19.0744
18.9858
18.9028
18.8269
18.7603
18.7062
18.6689
18.655
18.6749
18.7436
18.8839
19.1304
19.5353
20.1639
21.0321
22.0369
23.1335
24.2222
25.1639
25.8579
26.276
26.4507
26.4507
26.4322
26.3837
26.3235
26.2624
26.2083
26.1688
26.1795
26.2446
26.3658
26.5449
26.785
27.0914
27.4727
27.9423
28.5196
29.2324
30.1159
31.2121
32.5729
19.2646
19.1672
19.0733
18.9835
18.8988
18.8202
18.7496
18.6892
18.6422
18.6128
18.6074
18.6343
18.7053
18.8353
19.0433
19.3486
19.7551
20.2292
20.7232
21.1854
21.5728
21.8617
22.0476
22.1398
22.1573
22.1235
22.0775
22.0199
21.9543
21.8861
21.818
21.759
21.7151
21.6876
21.678
21.688
21.7204
21.7793
21.8704
22.002
22.1854
22.4359
22.7709
23.2123
19.2648
19.1669
19.0722
18.9812
18.8946
18.8135
18.739
18.6728
18.6171
18.5747
18.5492
18.5451
18.5682
18.6249
18.7215
18.8621
19.0445
19.2546
19.4696
19.6661
19.8283
19.9469
20.0216
20.0546
20.0514
20.018
19.9632
19.8972
19.826
19.7517
19.6777
19.6078
19.5435
19.4856
19.4348
19.3919
19.3577
19.3336
19.3216
19.3242
19.3452
19.3896
19.4634
19.5736
19.2651
19.1666
19.071
18.9789
18.8906
18.8071
18.7291
18.6578
18.5947
18.5417
18.5007
18.4741
18.4646
18.4745
18.5058
18.5581
18.6283
18.7088
18.7897
18.8609
18.9154
18.9495
18.962
18.9537
18.9259
18.8816
18.8244
18.7586
18.6876
18.6145
18.5414
18.4697
18.4005
18.3343
18.2717
18.2131
18.1588
18.1093
18.0654
18.0279
17.9982
17.9776
17.9682
17.9719
19.2653
19.1663
19.07
18.9768
18.887
18.8013
18.7202
18.6447
18.5755
18.5139
18.4611
18.4184
18.3866
18.3666
18.3585
18.3611
18.3718
18.3865
18.4002
18.4081
18.407
18.3951
18.3717
18.3368
18.2912
18.2366
18.1747
18.1076
18.0372
17.9652
17.893
17.8215
17.7514
17.6831
17.617
17.5532
17.492
17.4336
17.3784
17.3266
17.2788
17.2354
17.1972
17.1646
19.2656
19.1661
19.0691
18.9749
18.8838
18.7962
18.7126
18.6335
18.5595
18.4912
18.4295
18.3748
18.3276
18.288
18.2554
18.2288
18.2062
18.1852
18.163
18.1372
18.106
18.0685
18.0241
17.9732
17.9162
17.854
17.7876
17.7183
17.647
17.575
17.5029
17.4315
17.361
17.292
17.2245
17.1586
17.0946
17.0326
16.9726
16.9149
16.8596
16.807
16.7572
16.7106
19.266
19.166
19.0684
18.9734
18.8811
18.7919
18.7061
18.6241
18.5463
18.4729
18.4045
18.3412
18.2831
18.2301
18.1817
18.1369
18.0944
18.0525
18.0098
17.9647
17.9162
17.8638
17.8073
17.7468
17.6827
17.6156
17.546
17.4747
17.4024
17.3299
17.2576
17.1859
17.1151
17.0456
16.9773
16.9104
16.845
16.7811
16.7189
16.6584
16.5996
16.5428
16.4879
16.435
19.2664
19.1661
19.0679
18.9721
18.8789
18.7884
18.7008
18.6165
18.5356
18.4583
18.3849
18.3153
18.2496
18.1874
18.1284
18.0717
18.0165
17.9618
17.9065
17.8496
17.7907
17.7294
17.6655
17.5991
17.5305
17.4601
17.3884
17.3157
17.2427
17.1696
17.097
17.0251
16.9541
16.8842
16.8155
16.748
16.6818
16.617
16.5535
16.4915
16.4309
16.3719
16.3143
16.2583
19.2669
19.1662
19.0676
18.9712
18.8771
18.7855
18.6965
18.6103
18.527
18.4467
18.3695
18.2954
18.2243
18.1558
18.0895
18.0251
17.9616
17.8986
17.8353
17.771
17.7055
17.6385
17.5699
17.4999
17.4285
17.356
17.2828
17.2092
17.1356
17.0623
16.9895
16.9174
16.8462
16.7761
16.7071
16.6392
16.5726
16.5071
16.4429
16.38
16.3184
16.258
16.1989
16.1412
19.2674
19.1664
19.0674
18.9704
18.8757
18.7831
18.693
18.6053
18.5201
18.4376
18.3576
18.2801
18.205
18.1321
18.0609
17.9911
17.9223
17.8538
17.7852
17.7162
17.6465
17.5759
17.5043
17.4318
17.3586
17.2849
17.2108
17.1367
17.0628
16.9892
16.9163
16.8442
16.773
16.7027
16.6335
16.5654
16.4985
16.4327
16.368
16.3045
16.2421
16.1809
16.1209
16.0619
19.2679
19.1667
19.0673
18.97
18.8746
18.7813
18.6902
18.6014
18.5147
18.4304
18.3483
18.2683
18.1904
18.1142
18.0396
17.9662
17.8936
17.8214
17.7494
17.6773
17.6048
17.5318
17.4583
17.3844
17.3101
17.2355
17.161
17.0866
17.0125
16.939
16.8661
16.794
16.7228
16.6525
16.5833
16.5151
16.4479
16.3819
16.3169
16.253
16.1901
16.1283
16.0676
16.0078
19.2684
19.167
19.0674
18.9696
18.8738
18.7799
18.6881
18.5983
18.5105
18.4248
18.3411
18.2593
18.1792
18.1007
18.0236
17.9476
17.8724
17.7978
17.7234
17.6491
17.5748
17.5002
17.4255
17.3507
17.2757
17.2008
17.126
17.0515
16.9775
16.904
16.8312
16.7593
16.6881
16.6179
16.5487
16.4805
16.4132
16.347
16.2818
16.2176
16.1544
16.0922
16.0309
15.9705
19.269
19.1674
19.0675
18.9695
18.8733
18.7789
18.6864
18.5959
18.5072
18.4204
18.3355
18.2522
18.1706
18.0905
18.0115
17.9337
17.8567
17.7802
17.7042
17.6285
17.5529
17.4773
17.4018
17.3264
17.2511
17.1759
17.1011
17.0267
16.9527
16.8794
16.8068
16.735
16.664
16.5939
16.5248
16.4565
16.3893
16.323
16.2577
16.1933
16.1298
16.0672
16.0055
15.9446
19.2695
19.1677
19.0677
18.9694
18.8729
18.7781
18.6852
18.594
18.5047
18.4171
18.3311
18.2468
18.1641
18.0826
18.0024
17.9232
17.8448
17.7672
17.69
17.6132
17.5368
17.4605
17.3845
17.3087
17.2332
17.158
17.0832
17.0088
16.9351
16.8619
16.7895
16.7179
16.6471
16.5771
16.5081
16.4399
16.3727
16.3064
16.241
16.1764
16.1128
16.0499
15.9879
15.9266
19.27
19.1681
19.068
18.9695
18.8727
18.7776
18.6843
18.5926
18.5027
18.4145
18.3278
18.2427
18.159
18.0767
17.9955
17.9153
17.836
17.7574
17.6794
17.6019
17.5248
17.4481
17.3718
17.2958
17.2201
17.1449
17.0702
16.996
16.9224
16.8495
16.7772
16.7058
16.6352
16.5654
16.4964
16.4283
16.3612
16.2948
16.2294
16.1647
16.1009
16.0379
15.9756
15.914
19.2705
19.1685
19.0682
18.9696
18.8726
18.7773
18.6836
18.5916
18.5013
18.4126
18.3254
18.2396
18.1553
18.0722
17.9903
17.9093
17.8293
17.7501
17.6715
17.5935
17.516
17.439
17.3624
17.2863
17.2106
17.1354
17.0608
16.9867
16.9133
16.8405
16.7685
16.6972
16.6267
16.5571
16.4883
16.4203
16.3531
16.2868
16.2213
16.1566
16.0927
16.0295
15.967
15.9052
19.2709
19.1689
19.0685
18.9697
18.8726
18.7771
18.6832
18.5909
18.5003
18.4111
18.3235
18.2373
18.1525
18.0689
17.9864
17.905
17.8244
17.7447
17.6657
17.5873
17.5096
17.4323
17.3556
17.2794
17.2037
17.1285
17.054
16.98
16.9068
16.8342
16.7623
16.6912
16.6209
16.5513
16.4826
16.4147
16.3476
16.2813
16.2158
16.151
16.087
16.0237
15.961
15.899
19.2712
19.1692
19.0687
18.9699
18.8726
18.7769
18.6829
18.5904
18.4995
18.4101
18.3222
18.2356
18.1504
18.0664
17.9836
17.9017
17.8209
17.7408
17.6615
17.5829
17.5049
17.4275
17.3506
17.2744
17.1987
17.1236
17.0491
16.9753
16.9021
16.8297
16.7579
16.687
16.6168
16.5473
16.4787
16.4108
16.3438
16.2775
16.212
16.1472
16.0831
16.0197
15.9569
15.8948
19.2715
19.1694
19.0689
18.97
18.8726
18.7769
18.6827
18.5901
18.499
18.4094
18.3212
18.2345
18.149
18.0648
17.9816
17.8995
17.8184
17.7381
17.6586
17.5798
17.5017
17.4242
17.3473
17.271
17.1953
17.1203
17.0458
16.9721
16.899
16.8267
16.755
16.6842
16.614
16.5447
16.4761
16.4083
16.3413
16.275
16.2095
16.1446
16.0805
16.017
15.9542
15.8919
19.2717
19.1696
19.069
18.97
18.8726
18.7768
18.6825
18.5898
18.4986
18.4089
18.3206
18.2337
18.148
18.0636
17.9803
17.898
17.8167
17.7363
17.6566
17.5777
17.4995
17.4219
17.345
17.2687
17.193
17.118
17.0436
16.9699
16.8969
16.8246
16.7531
16.6823
16.6122
16.5429
16.4744
16.4066
16.3396
16.2733
16.2078
16.143
16.0788
16.0153
15.9524
15.89
19.2718
19.1697
19.0691
18.9701
18.8727
18.7768
18.6825
18.5898
18.4985
18.4088
18.3204
18.2334
18.1477
18.0632
17.9798
17.8974
17.816
17.7355
17.6558
17.5768
17.4986
17.421
17.344
17.2677
17.192
17.117
17.0427
16.969
16.896
16.8237
16.7522
16.6814
16.6114
16.5421
16.4736
16.4058
16.3388
16.2726
16.207
16.1422
16.078
16.0144
15.9515
15.8891
18.0617
17.9782
17.8958
17.8143
17.7336
17.6538
17.5748
17.4964
17.4187
17.3417
17.2653
17.1895
17.1145
17.04
16.9663
16.8932
16.8209
16.7493
16.6785
16.6084
16.5391
16.4705
18.0621
17.9787
17.8963
17.8149
17.7344
17.6546
17.5756
17.4973
17.4196
17.3426
17.2662
17.1905
17.1154
17.041
16.9672
16.8941
16.8218
16.7502
16.6793
16.6092
16.5399
16.4713
18.0632
17.98
17.8978
17.8165
17.7361
17.6565
17.5776
17.4993
17.4218
17.3448
17.2684
17.1927
17.1175
17.0431
16.9692
16.8961
16.8237
16.752
16.6811
16.6109
16.5415
16.4729
18.0647
17.9817
17.8998
17.8188
17.7386
17.6592
17.5804
17.5023
17.4248
17.3479
17.2716
17.1958
17.1206
17.0461
16.9722
16.899
16.8264
16.7547
16.6836
16.6134
16.5439
16.4752
18.0669
17.9843
17.9027
17.822
17.7421
17.663
17.5845
17.5066
17.4293
17.3524
17.2761
17.2004
17.1252
17.0505
16.9765
16.9032
16.8305
16.7586
16.6874
16.6171
16.5475
16.4787
18.0698
17.9877
17.9066
17.8264
17.7471
17.6683
17.5902
17.5126
17.4354
17.3588
17.2825
17.2068
17.1315
17.0568
16.9827
16.9092
16.8364
16.7643
16.6929
16.6224
16.5527
16.4839
18.0739
17.9925
17.9121
17.8327
17.7539
17.6758
17.5981
17.5209
17.4441
17.3676
17.2915
17.2158
17.1405
17.0657
16.9914
16.9178
16.8448
16.7725
16.701
16.6304
16.5605
16.4915
18.0796
17.9991
17.9197
17.8412
17.7633
17.686
17.6091
17.5324
17.4561
17.3799
17.304
17.2284
17.1531
17.0782
17.0039
16.93
16.8569
16.7844
16.7127
16.6419
16.5719
16.5028
18.0872
18.0081
17.93
17.8527
17.7761
17.6999
17.6239
17.5481
17.4724
17.3968
17.3213
17.2458