/*--------------------------------*- C++ -*----------------------------------*\
  =========                 |
  \\      /  F ield         | OpenFOAM: The Open Source CFD Toolbox
   \\    /   O peration     | Website:  https://openfoam.org
    \\  /    A nd           | Version:  13
     \\/     M anipulation  |
\*---------------------------------------------------------------------------*/
FoamFile
{
    format      ascii;
    class       volScalarField;
    location    "700";
    object      k;
}
// * * * * * * * * * * * * * * * * * * * * * * * * * * * * * * * * * * * * * //

dimensions      [0 2 -2 0 0 0 0];

internalField   nonuniform List<scalar> 
171247
(
1.09329
0.0654378
0.60481
0.612123
0.620685
0.63123
0.64493
0.663706
0.688592
0.723797
0.731614
0.771564
0.844846
0.909809
1.0628
1.22359
1.41352
0.527841
0.517832
0.525824
0.535263
0.546699
0.560281
0.575929
0.596251
0.623004
0.656125
0.671152
0.712109
0.766061
0.835888
0.960025
1.11843
1.32126
1.46883
0.444863
0.450065
0.45615
0.462955
0.471285
0.482421
0.496992
0.515372
0.536832
0.556678
0.574
0.607996
0.647094
0.700704
0.776186
0.87237
0.99215
1.01548
0.410253
0.413427
0.417039
0.421516
0.427056
0.433885
0.442197
0.452081
0.463353
0.474901
0.484686
0.494474
0.506474
0.52193
0.542248
0.568651
0.600801
0.647985
0.692472
0.737499
0.785437
0.837291
0.391822
0.394063
0.39662
0.399559
0.402949
0.406841
0.411275
0.41627
0.421786
0.427475
0.432591
0.437598
0.442953
0.449595
0.458401
0.469499
0.482936
0.498748
0.514869
0.529748
0.543671
0.557055
0.379523
0.380969
0.38249
0.384094
0.385818
0.387703
0.389787
0.392104
0.394684
0.397531
0.400408
0.403183
0.405865
0.408576
0.411567
0.41529
0.419978
0.425406
0.431422
0.437624
0.443527
0.448639
0.452977
0.456692
0.37495
0.375776
0.376537
0.377263
0.378022
0.37887
0.379865
0.381064
0.382487
0.384117
0.385885
0.387689
0.389399
0.391006
0.39261
0.394337
0.396349
0.398615
0.401077
0.403582
0.405978
0.407989
0.409564
0.41072
0.371508
0.371593
0.371585
0.371587
0.371751
0.372196
0.372954
0.373894
0.375004
0.376253
0.377593
0.37896
0.380297
0.381572
0.382784
0.383958
0.385134
0.386335
0.387552
0.388743
0.389853
0.390764
0.391403
0.391773
0.366986
0.366557
0.366179
0.365956
0.366045
0.366524
0.3673
0.368276
0.36941
0.370647
0.371931
0.373214
0.37446
0.375642
0.376751
0.377787
0.378766
0.379706
0.380609
0.381455
0.382215
0.38286
0.38333
0.383577
0.363649
0.36292
0.362323
0.361967
0.361987
0.362466
0.363197
0.364147
0.365258
0.366471
0.367725
0.368976
0.370192
0.371352
0.372441
0.373453
0.374398
0.375291
0.37614
0.376929
0.37764
0.378254
0.378757
0.379133
0.361825
0.360956
0.360264
0.359847
0.359843
0.360259
0.360928
0.361816
0.362868
0.364019
0.365207
0.366389
0.367538
0.36864
0.369677
0.370642
0.371544
0.3724
0.373216
0.37398
0.374674
0.375281
0.375793
0.37621
0.361302
0.360369
0.359634
0.359193
0.359183
0.359562
0.3602
0.361061
0.362085
0.363203
0.364349
0.365476
0.36656
0.36759
0.368554
0.369446
0.370277
0.371067
0.371822
0.372532
0.373176
0.373739
0.374215
0.374603
0.361163
0.360231
0.359499
0.359063
0.35906
0.359439
0.360078
0.360942
0.361972
0.363093
0.364238
0.365355
0.366419
0.367415
0.368334
0.369173
0.369949
0.370686
0.371392
0.372057
0.372661
0.373188
0.373632
0.373991
0.360456
0.359773
0.359368
0.359381
0.359797
0.360471
0.361367
0.362427
0.363581
0.364758
0.365904
0.366986
0.367985
0.368888
0.369698
0.370439
0.371139
0.371809
0.372442
0.373017
0.373519
0.373936
0.374263
0.362069
0.361477
0.361128
0.361161
0.36164
0.362374
0.363333
0.364456
0.365671
0.366906
0.368101
0.369217
0.370229
0.371121
0.371899
0.372591
0.373227
0.373828
0.374385
0.37488
0.375292
0.375563
0.375679
0.365474
0.365094
0.36487
0.364953
0.365454
0.366238
0.367229
0.368377
0.369622
0.370888
0.372112
0.373243
0.374248
0.375104
0.375815
0.376406
0.376904
0.377361
0.377765
0.378077
0.378261
0.378298
0.378189
0.370488
0.370473
0.370468
0.370632
0.371089
0.371864
0.372811
0.373929
0.375179
0.376501
0.377809
0.379023
0.380077
0.380865
0.381422
0.381857
0.382264
0.382689
0.3831
0.383433
0.383636
0.383679
0.383559
0.375467
0.376188
0.376945
0.377798
0.37881
0.380037
0.381484
0.383125
0.384884
0.386611
0.388123
0.389328
0.390257
0.391031
0.391811
0.392678
0.393737
0.394828
0.395806
0.396571
0.397083
0.397345
0.381859
0.383469
0.38521
0.387126
0.389257
0.391637
0.394291
0.397163
0.400031
0.40275
0.405168
0.407226
0.408954
0.41074
0.412903
0.415594
0.418769
0.422054
0.424973
0.427359
0.42919
0.430551
0.394379
0.397001
0.400048
0.403598
0.4077
0.412383
0.417629
0.423332
0.429014
0.434064
0.438396
0.442096
0.445947
0.450559
0.4565
0.464154
0.473524
0.482708
0.490857
0.497745
0.503282
0.508174
0.415992
0.41984
0.424634
0.430562
0.437828
0.446556
0.4567
0.467888
0.479211
0.488833
0.496475
0.504159
0.513288
0.525839
0.541993
0.561848
0.592871
0.620874
0.646626
0.671876
0.697721
0.723568
0.456294
0.463158
0.470774
0.479458
0.490704
0.504949
0.522305
0.541958
0.561924
0.577776
0.576483
0.583278
0.600002
0.62592
0.663179
0.712572
0.888568
0.956233
1.03043
1.11369
1.20074
1.29529
0.52789
0.537179
0.548262
0.561686
0.576927
0.595608
0.619641
0.649377
0.651922
0.665082
0.691191
0.732146
0.795318
0.874493
0.976463
1.11623
1.28402
1.51615
1.57221
1.67707
1.81801
1.97905
0.599982
0.607593
0.616943
0.629045
0.645574
0.668167
0.700302
0.7035
0.725586
0.76872
0.832784
0.883687
1.02365
1.17863
1.44493
1.46608
1.22857
0.95223
0.948356
1.12747
1.39482
1.58193
0.610944
0.616299
0.62448
0.635734
0.651178
0.675897
0.720242
0.72825
0.779065
0.879298
0.959856
1.12618
1.13341
0.520511
0.410512
0.711245
0.799221
0.829768
0.899509
1.03613
1.12623
1.22202
0.533023
0.534913
0.538158
0.543716
0.553814
0.574684
0.586796
0.626798
0.712778
0.796772
1.01833
0.938103
0.331917
0.849402
0.964242
0.977925
1.01018
1.03344
1.08014
1.15045
0.470412
0.465762
0.462195
0.459874
0.461375
0.471608
0.495186
0.510999
0.579155
0.692678
0.817892
1.02105
1.13149
0.608931
0.654472
0.988678
1.09606
1.03348
1.13805
1.18872
1.26637
1.39109
0.410741
0.405509
0.40111
0.397343
0.394733
0.395171
0.404749
0.426147
0.446268
0.505093
0.572922
0.666491
0.805511
0.897567
1.08249
1.38913
1.67827
1.57679
1.67279
1.81146
2.01085
2.30763
0.354754
0.352548
0.354863
0.363545
0.376326
0.389573
0.424077
0.465952
0.513127
0.562236
0.615696
0.688781
0.667116
0.732516
0.81448
0.902532
0.991406
1.08628
0.384918
0.37718
0.372257
0.370069
0.37013
0.373073
0.379044
0.386992
0.396096
0.405837
0.416153
0.434717
0.451823
0.469217
0.486771
0.503657
0.519738
0.832212
0.841551
0.853019
0.868288
0.889788
0.920262
0.962737
0.981477
1.06587
1.20551
1.3553
1.17362
0.655959
0.67246
0.691178
0.713499
0.739113
0.769235
0.809542
0.865824
0.89548
0.981799
1.0877
1.1628
1.15731
1.09793
1.0931
1.1387
1.398
0.481988
0.493953
0.507508
0.522464
0.541306
0.566745
0.600105
0.641663
0.687651
0.718981
0.781022
0.831094
0.864873
0.883315
0.898727
0.91619
0.954854
1.05013
0.420002
0.425408
0.431942
0.440473
0.451615
0.466014
0.484235
0.506368
0.530739
0.551748
0.568939
0.584965
0.600966
0.617247
0.63409
0.651598
0.669548
0.688677
0.714406
0.739684
0.767408
0.798317
0.397002
0.400348
0.404275
0.408999
0.414765
0.421785
0.43024
0.440141
0.451026
0.460471
0.469056
0.477496
0.48623
0.495386
0.505336
0.516368
0.528458
0.540918
0.552844
0.56332
0.572605
0.581067
0.384961
0.387022
0.389185
0.391497
0.394054
0.396954
0.400276
0.40407
0.408341
0.412969
0.417199
0.420738
0.42414
0.427618
0.431324
0.435463
0.440236
0.445787
0.451901
0.458023
0.46362
0.468505
0.472682
0.476255
0.382786
0.38406
0.385187
0.386232
0.387316
0.388543
0.389984
0.391709
0.393696
0.395883
0.398099
0.399991
0.401491
0.402768
0.403995
0.405292
0.406783
0.408595
0.410752
0.41307
0.415337
0.417404
0.419212
0.42076
0.380513
0.380913
0.381142
0.381355
0.381781
0.382488
0.383414
0.384546
0.385845
0.387249
0.388683
0.390049
0.391273
0.392286
0.393031
0.393599
0.394084
0.394597
0.395201
0.395858
0.396492
0.397041
0.397473
0.397785
0.37499
0.374663
0.374393
0.374313
0.374615
0.375314
0.376263
0.377418
0.378707
0.380059
0.381407
0.382701
0.383901
0.38498
0.385901
0.386663
0.387294
0.387839
0.388315
0.388716
0.389006
0.389161
0.389179
0.389069
0.369784
0.369006
0.36839
0.368053
0.368144
0.368692
0.369518
0.370576
0.371797
0.373103
0.374423
0.375706
0.376927
0.378066
0.379095
0.380002
0.380798
0.381515
0.382171
0.382752
0.383238
0.383613
0.38381
0.383835
0.366569
0.365529
0.364694
0.364153
0.364043
0.364401
0.36504
0.365916
0.366965
0.36811
0.36928
0.370421
0.371522
0.372575
0.373554
0.374442
0.375254
0.376019
0.376746
0.377418
0.378009
0.378502
0.378887
0.379149
0.365666
0.364462
0.363472
0.362782
0.362531
0.362766
0.363284
0.364042
0.364976
0.366001
0.36704
0.36804
0.368992
0.369902
0.370752
0.371527
0.372247
0.37294
0.373616
0.374252
0.374824
0.37531
0.375704
0.376005
0.365507
0.364304
0.363313
0.362624
0.362373
0.362604
0.363117
0.363876
0.364812
0.36584
0.366881
0.367874
0.368808
0.369684
0.370486
0.371204
0.371866
0.372508
0.373135
0.373728
0.37426
0.374712
0.375076
0.37535
0.364896
0.36407
0.36354
0.363443
0.363798
0.364432
0.365308
0.366361
0.367509
0.368669
0.369778
0.370812
0.371758
0.372597
0.373325
0.373974
0.374587
0.375176
0.375724
0.376206
0.376603
0.376904
0.377054
0.367933
0.367328
0.367005
0.367111
0.367654
0.368478
0.369538
0.370768
0.372078
0.373386
0.374623
0.375754
0.376762
0.37761
0.378287
0.378826
0.379287
0.379702
0.380065
0.380333
0.380468
0.380468
0.380345
0.373355
0.373094
0.373022
0.373336
0.374032
0.374989
0.376163
0.377482
0.378865
0.380229
0.381507
0.382645
0.383607
0.384331
0.384736
0.384879
0.384904
0.384907
0.384896
0.384842
0.384723
0.384528
0.384262
0.37966
0.379886
0.380094
0.380522
0.381223
0.382164
0.383332
0.384689
0.386166
0.387677
0.389111
0.390361
0.391257
0.391697
0.391816
0.391736
0.391608
0.391542
0.391564
0.39164
0.391726
0.391797
0.391843
0.383829
0.384881
0.385981
0.387243
0.388766
0.390609
0.392757
0.395145
0.397597
0.39978
0.401425
0.402655
0.403586
0.404291
0.404919
0.40564
0.406578
0.407715
0.40892
0.410104
0.411225
0.41228
0.388106
0.390474
0.393134
0.396203
0.399774
0.40391
0.408618
0.413759
0.418582
0.42249
0.426074
0.429397
0.432481
0.435405
0.438348
0.441587
0.44518
0.44889
0.452415
0.455608
0.458472
0.461065
0.400691
0.404904
0.410054
0.416412
0.424202
0.433578
0.444487
0.456356
0.466771
0.475621
0.483729
0.491403
0.498604
0.505413
0.512222
0.519332
0.526732
0.533824
0.539858
0.544801
0.548915
0.552463
0.430915
0.438238
0.447767
0.460094
0.475789
0.495221
0.518198
0.542862
0.563736
0.579436
0.59309
0.605535
0.616844
0.626763
0.635915
0.645045
0.654271
0.665376
0.67461
0.683376
0.692359
0.701428
0.507909
0.523012
0.539557
0.55891
0.584176
0.616269
0.655096
0.695366
0.692943
0.700024
0.716206
0.73255
0.744658
0.752957
0.76022
0.76957
0.788797
0.872198
0.916002
0.967273
1.02255
1.07872
0.669267
0.68756
0.709028
0.734281
0.762765
0.800054
0.851636
0.853522
0.88221
0.934841
0.98501
0.990805
0.976382
0.9547
0.945352
0.979332
1.11753
1.34475
1.78483
1.91269
2.01413
2.1069
0.813409
0.824342
0.838659
0.85859
0.887608
0.927779
0.927866
0.980554
1.08858
1.17018
1.27595
1.22218
1.17585
1.17085
1.16033
1.26743
1.51283
1.25492
1.37376
1.45375
1.57709
1.57194
0.903186
0.905467
0.911578
0.924068
0.947589
0.996213
1.0039
1.09989
1.20078
1.30989
1.05111
0.504501
0.651099
0.619368
0.875154
1.15906
1.23969
0.907917
0.910435
0.915086
0.923431
0.93926
0.975805
0.985293
1.09714
1.22416
1.08252
0.71032
0.849716
1.2031
1.40628
1.4837
0.721933
0.726039
0.731755
0.741352
0.758467
0.787051
0.815128
0.908053
1.03291
1.0989
1.00622
0.944802
1.61743
1.78934
2.71412
3.00739
2.99092
0.507093
0.508361
0.512294
0.521141
0.536745
0.5645
0.603232
0.648888
0.760773
0.850009
0.973125
0.965712
0.924196
0.875956
0.874015
1.06176
1.39147
2.03689
1.72546
1.97029
2.19404
2.39742
0.438248
0.450327
0.472242
0.500565
0.531369
0.596499
0.648234
0.666591
0.660979
0.642657
0.620416
0.605214
0.609692
0.580071
0.616074
0.655283
0.686834
0.722996
0.449824
0.452554
0.458517
0.465739
0.473818
0.480786
0.484734
0.485711
0.484037
0.480361
0.475988
0.472388
0.469886
0.467728
0.465182
0.462914
0.461953
1.03887
1.03347
1.03332
1.03881
1.05145
1.07298
1.10853
1.13149
1.19335
1.15095
1.06434
0.898802
0.910042
0.925777
0.947314
0.972116
1.00509
1.0491
1.08086
1.16893
1.24173
1.2689
1.20291
1.14998
1.05942
0.985865
0.924501
0.943928
1.16437
0.594657
0.618011
0.642775
0.669469
0.704651
0.750254
0.806126
0.868141
0.914336
1.00365
1.04118
1.03049
1.01106
0.986468
0.953655
0.915254
0.882716
0.876501
0.449094
0.459075
0.470121
0.48418
0.5031
0.528545
0.56092
0.600574
0.645717
0.687371
0.722087
0.74529
0.759542
0.772855
0.778037
0.775909
0.768496
0.759932
0.75255
0.414542
0.419804
0.425901
0.433292
0.442816
0.455254
0.471139
0.490808
0.513869
0.53796
0.5606
0.580484
0.597429
0.61251
0.624779
0.636716
0.643546
0.646148
0.648318
0.650281
0.651885
0.653304
0.65499
0.403169
0.406541
0.410024
0.413895
0.418492
0.42412
0.430993
0.439222
0.448908
0.459604
0.470896
0.481674
0.491991
0.501933
0.511042
0.519017
0.525781
0.531618
0.537136
0.542282
0.546855
0.550925
0.554664
0.558276
0.40381
0.405958
0.407664
0.409223
0.410904
0.412912
0.415579
0.418687
0.422314
0.426463
0.430892
0.435186
0.439408
0.443621
0.447692
0.45133
0.454691
0.45791
0.461249
0.464773
0.468322
0.471647
0.474788
0.477815
0.401896
0.402822
0.403196
0.403429
0.404152
0.405198
0.406598
0.408224
0.409915
0.411746
0.413604
0.415361
0.416907
0.418312
0.419547
0.420488
0.421184
0.421861
0.422767
0.423994
0.425378
0.426839
0.428343
0.429878
0.391854
0.39168
0.391346
0.391191
0.391514
0.392417
0.393671
0.395158
0.396771
0.398424
0.39998
0.401389
0.402639
0.403735
0.40452
0.40495
0.40509
0.405129
0.405246
0.405505
0.405834
0.406163
0.406475
0.406768
0.380255
0.379313
0.378475
0.377906
0.37776
0.378186
0.379144
0.3804
0.381866
0.383437
0.385001
0.386452
0.387789
0.389015
0.390079
0.390941
0.391524
0.391992
0.392449
0.392895
0.393271
0.393527
0.393657
0.393673
0.372929
0.371456
0.370163
0.369128
0.368473
0.368392
0.368945
0.369809
0.370925
0.37217
0.373443
0.374642
0.375784
0.376885
0.377896
0.378776
0.379549
0.380279
0.380995
0.381681
0.382298
0.382801
0.383119
0.38327
0.371795
0.369918
0.368151
0.36661
0.365453
0.364892
0.365008
0.365589
0.36643
0.367405
0.368399
0.369303
0.370142
0.37096
0.371723
0.372401
0.373031
0.373673
0.374338
0.375001
0.375619
0.376154
0.376545
0.376766
0.371586
0.369703
0.367932
0.366385
0.36522
0.364645
0.364744
0.36531
0.366147
0.367124
0.368123
0.36903
0.369863
0.370654
0.371374
0.371997
0.372575
0.373171
0.373798
0.374425
0.37501
0.375515
0.375876
0.376075
0.370475
0.369187
0.368159
0.367514
0.367407
0.367923
0.368757
0.369856
0.371094
0.372367
0.373553
0.374643
0.375627
0.376483
0.377185
0.377768
0.378359
0.378969
0.379568
0.380116
0.380539
0.380811
0.380941
0.377573
0.376761
0.376217
0.376085
0.376515
0.377434
0.378661
0.380117
0.3817
0.38327
0.384715
0.386004
0.387123
0.388038
0.388551
0.388794
0.388985
0.389238
0.38955
0.389844
0.390067
0.390203
0.39026
0.389606
0.389311
0.389185
0.389519
0.390399
0.391636
0.393142
0.394797
0.396534
0.398208
0.399751
0.401121
0.402277
0.402996
0.40325
0.403151
0.402942
0.402838
0.40291
0.403136
0.40344
0.403787
0.404174
0.401164
0.401515
0.401696
0.402352
0.403354
0.404739
0.406439
0.408255
0.410311
0.412495
0.414749
0.416964
0.418863
0.420381
0.421418
0.422022
0.422511
0.423189
0.4242
0.425526
0.427029
0.428654
0.430405
0.405752
0.407295
0.408968
0.41106
0.413874
0.417311
0.421363
0.426153
0.431462
0.437037
0.442575
0.447879
0.452763
0.456881
0.460311
0.463533
0.466866
0.470369
0.473838
0.4772
0.480534
0.483894
0.407969
0.412099
0.417078
0.423235
0.430827
0.440027
0.450873
0.463209
0.476304
0.489222
0.501552
0.513134
0.523554
0.532289
0.539422
0.545292
0.550556
0.55521
0.559474
0.56356
0.567614
0.571687
0.427197
0.435594
0.446371
0.460332
0.478012
0.499665
0.524857
0.55179
0.577041
0.599117
0.617793
0.633989
0.647094
0.658965
0.665786
0.666841
0.667137
0.66746
0.667608
0.667992
0.668853
0.670268
0.482709
0.498291
0.518969
0.54623
0.580301
0.621115
0.666914
0.713657
0.749873
0.77129
0.783003
0.794903
0.798392
0.793726
0.78271
0.769498
0.756792
0.745979
0.736959
0.731013
0.72809
0.728064
0.637733
0.663632
0.691342
0.726059
0.770024
0.822503
0.879865
0.940842
0.939201
0.931994
0.91984
0.90598
0.890254
0.869935
0.844635
0.818254
0.795298
0.782135
0.768121
0.776504
0.791989
0.815353
0.890884
0.906131
0.926742
0.950619
0.981943
1.02448
1.03281
1.08524
1.15218
1.16359
1.11212
1.06337
1.00977
0.948422
0.887692
0.840819
0.829724
0.876679
1.01645
1.16085
1.22207
1.29301
1.00308
1.00381
1.0094
1.02219
1.04495
1.08454
1.11012
1.20148
1.2598
1.24627
1.23695
1.30882
1.27666
1.21366
1.17051
1.1267
1.32595
1.63317
1.76626
1.81728
1.42854
1.34428
1.01497
1.00183
0.995238
0.999116
1.00409
1.01318
1.06994
1.16042
1.09384
0.217573
0.457151
0.849626
1.07345
1.11682
0.816485
0.79325
0.773813
0.758109
0.743343
0.772184
0.845331
0.941852
0.829278
0.292868
0.81243
1.43687
1.97877
0.660115
0.65409
0.651836
0.656437
0.67526
0.712325
0.744092
0.846077
0.936457
0.868462
2.07978
2.44281
3.1902
3.34969
0.495844
0.494263
0.495411
0.500642
0.514872
0.543449
0.563175
0.644524
0.759472
0.8423
0.869138
0.977523
1.01894
1.02239
1.02866
1.00019
0.92669
0.840727
1.00211
0.941724
1.07956
1.22403
0.461445
0.473933
0.493621
0.502105
0.543059
0.590743
0.619022
0.623421
0.613956
0.595521
0.572973
0.554966
0.545986
0.544159
0.542854
0.550021
0.558679
0.570057
0.468687
0.472161
0.47707
0.482095
0.486602
0.489086
0.489694
0.488803
0.486498
0.482762
0.479086
0.477631
0.477756
0.477544
0.476176
0.474119
0.471919
0.933482
0.897059
0.8614
0.826633
0.79693
0.773527
0.755695
0.767687
0.85021
0.886537
0.96671
0.961329
0.958158
0.953373
0.947541
0.943798
0.929703
0.913329
0.914413
0.962323
1.03494
1.00416
0.947142
0.924358
0.895121
0.833393
0.769507
0.757979
0.756839
0.777662
0.800421
0.829022
0.866011
0.913695
0.94506
0.969161
0.975362
0.971713
0.942907
0.917465
0.899409
0.878894
0.852133
0.818146
0.781037
0.750915
0.525641
0.53798
0.555702
0.58275
0.620106
0.672674
0.727141
0.7832
0.83718
0.884458
0.911183
0.90123
0.880569
0.863962
0.838149
0.814394
0.790281
0.766698
0.723277
0.465156
0.472547
0.480758
0.492289
0.511574
0.53974
0.575826
0.618647
0.667623
0.717299
0.756712
0.78071
0.794019
0.805535
0.806002
0.790925
0.764503
0.741919
0.727608
0.717981
0.711642
0.708488
0.708385
0.447807
0.452369
0.45679
0.462513
0.471104
0.483742
0.501109
0.522327
0.549183
0.578918
0.607598
0.633591
0.656081
0.675926
0.690573
0.700196
0.701486
0.697216
0.691485
0.686787
0.683817
0.682791
0.683662
0.686295
0.455596
0.458822
0.460211
0.461802
0.464254
0.468443
0.474845
0.48356
0.494255
0.507018
0.521146
0.535572
0.550003
0.564113
0.577017
0.588672
0.596269
0.601027
0.603585
0.605893
0.608082
0.610358
0.612942
0.61593
0.456328
0.457722
0.456774
0.455627
0.455536
0.456801
0.459088
0.462469
0.466811
0.471989
0.477674
0.483605
0.489975
0.496555
0.503081
0.508924
0.513553
0.517274
0.520415
0.523193
0.525788
0.528313
0.530869
0.533536
0.430493
0.431406
0.431405
0.429918
0.428929
0.429292
0.430385
0.433056
0.435844
0.438897
0.442107
0.445237
0.448097
0.450935
0.45383
0.456715
0.459363
0.461561
0.463428
0.465131
0.466758
0.468312
0.4698
0.471247
0.472667
0.399799
0.399306
0.398779
0.397401
0.396043
0.395989
0.396691
0.398317
0.400902
0.403855
0.406931
0.409859
0.412386
0.414695
0.416895
0.418919
0.420606
0.421815
0.422912
0.42408
0.425317
0.426474
0.427524
0.428461
0.429302
0.383241
0.381326
0.379248
0.376945
0.374824
0.373491
0.372855
0.373042
0.374208
0.376192
0.378439
0.380701
0.382736
0.384625
0.386491
0.388228
0.389612
0.390713
0.39187
0.393134
0.394357
0.3955
0.396514
0.397328
0.397942
0.386917
0.383758
0.380192
0.376839
0.374334
0.372486
0.371469
0.371453
0.372431
0.373764
0.375101
0.376225
0.377107
0.378063
0.378939
0.379524
0.379961
0.380568
0.381346
0.382179
0.38298
0.383676
0.384197
0.384524
0.386759
0.383584
0.379994
0.376613
0.374104
0.37222
0.371166
0.37112
0.372096
0.373418
0.374759
0.375903
0.376891
0.377845
0.37861
0.379037
0.379343
0.379868
0.380591
0.38139
0.382168
0.382847
0.383365
0.383702
0.379794
0.377656
0.375293
0.3731
0.371708
0.370903
0.370896
0.371866
0.373691
0.375841
0.378071
0.380151
0.382109
0.383964
0.385534
0.386614
0.387475
0.388485
0.389681
0.390926
0.392119
0.393204
0.394129
0.394887
0.395193
0.393817
0.39242
0.392284
0.392824
0.394238
0.396589
0.399375
0.402373
0.405352
0.408063
0.410567
0.41322
0.41524
0.416632
0.417577
0.418523
0.419663
0.421058
0.422434
0.423742
0.42498
0.426165
0.42662
0.425327
0.424458
0.424947
0.426055
0.428631
0.431321
0.434303
0.437589
0.441033
0.444434
0.447875
0.451656
0.454908
0.457829
0.460208
0.462306
0.464412
0.466508
0.468584
0.470591
0.472639
0.474769
0.455782
0.45504
0.453797
0.453468
0.454141
0.456159
0.459353
0.463726
0.469296
0.47581
0.482947
0.490696
0.498488
0.506068
0.512868
0.518377
0.522998
0.52732
0.531349
0.535165
0.53894
0.54282
0.546914
0.458588
0.459903
0.462272
0.466426
0.472958
0.482106
0.493957
0.5084
0.524799
0.541985
0.559059
0.57552
0.590658
0.602381
0.61283
0.620035
0.624923
0.629027
0.632868
0.636907
0.641409
0.646496
0.455391
0.462314
0.472167
0.486133
0.505052
0.528237
0.557516
0.590654
0.623259
0.653044
0.679102
0.701808
0.718388
0.729544
0.732314
0.729895
0.724874
0.721078
0.719456
0.720457
0.724086
0.729234
0.488439
0.502292
0.523525
0.553547
0.591579
0.636189
0.686792
0.737819
0.778545
0.804229
0.818483
0.831062
0.831517
0.81006
0.777856
0.763423
0.748888
0.739459
0.734306
0.733613
0.737345
0.745582
0.575727
0.604043
0.642779
0.695032
0.748634
0.802293
0.852847
0.896751
0.921281
0.910812
0.887341
0.865504
0.83567
0.813484
0.790546
0.767627
0.719897
0.713634
0.711165
0.716881
0.73086
0.753723
0.774957
0.799242
0.829138
0.864957
0.909293
0.937326
0.957256
0.962133
0.967223
0.936158
0.899091
0.872712
0.846964
0.81933
0.79043
0.761365
0.737767
0.719283
0.706686
0.749611
0.823741
0.909639
0.931421
0.927962
0.922564
0.917019
0.914469
0.906448
0.919823
0.941264
0.955229
0.938188
0.924638
0.905484
0.877602
0.844779
0.80283
0.761281
0.742758
0.742089
0.772026
0.840462
1.73239
1.8176
0.875521
0.842217
0.811553
0.786458
0.767572
0.776095
0.80959
0.875401
0.94546
1.07263
1.20053
1.14545
1.13129
0.905167
0.748092
0.740246
0.684181
0.800453
1.32072
1.98137
1.37958
1.23205
0.779955
0.748399
0.719981
0.700362
0.683652
0.697628
0.744305
0.889036
0.560016
0.993915
1.07652
1.21438
0.693236
0.68225
0.67409
0.668845
0.66747
0.67671
0.71998
0.875937
0.27609
0.774876
1.06775
2.12804
0.573774
0.571239
0.571875
0.577032
0.590331
0.601679
0.643893
0.759925
1.34452
2.05898
1.68037
1.7314
0.500128
0.498874
0.500239
0.505523
0.519065
0.542799
0.547706
0.612451
0.73524
0.924655
1.08952
1.02273
0.946054
0.919125
0.867943
0.92939
1.06051
0.904149
0.76408
0.776868
0.724258
0.756595
0.48959
0.498549
0.510162
0.51782
0.548102
0.573737
0.577843
0.573969
0.567886
0.562019
0.556895
0.552892
0.549867
0.54979
0.549362
0.530566
0.532902
0.534359
0.479347
0.482123
0.485191
0.487149
0.487619
0.486745
0.485042
0.482512
0.479016
0.474697
0.471333
0.471745
0.473978
0.476368
0.478319
0.479016
0.478843
0.689114
0.651922
0.618866
0.59058
0.566235
0.549423
0.557635
0.602922
0.744473
0.845581
0.790449
0.736381
0.685579
0.639893
0.601053
0.580261
0.595467
0.662463
0.803531
0.838135
0.821189
0.861256
0.945962
1.05988
1.00957
0.944432
1.05207
0.820306
0.814991
0.792701
0.755043
0.714002
0.68245
0.643992
0.624035
0.641729
0.688856
0.730608
0.756201
0.76347
0.780165
0.798904
0.77325
0.748678
0.754945
0.505556
0.536716
0.576084
0.619682
0.658736
0.669941
0.694796
0.703161
0.697811
0.694757
0.71312
0.738353
0.746978
0.748156
0.744016
0.730343
0.714431
0.694781
0.690912
0.789377
0.46458
0.46179
0.464261
0.469268
0.503185
0.530645
0.588797
0.640789
0.681509
0.709291
0.71015
0.722073
0.728269
0.732873
0.741834
0.740846
0.729824
0.710348
0.697903
0.710703
0.721581
0.733142
0.747454
0.489867
0.481032
0.471246
0.465811
0.471987
0.486034
0.505124
0.52272
0.557076
0.58928
0.621167
0.64772
0.668866
0.686975
0.694795
0.696862
0.699511
0.695338
0.666749
0.670584
0.676145
0.683404
0.69259
0.703894
0.530973
0.532044
0.524602
0.514977
0.507806
0.502966
0.501948
0.510137
0.522815
0.539389
0.557889
0.577503
0.59621
0.614539
0.632724
0.638255
0.643858
0.644138
0.630735
0.633349
0.637187
0.642478
0.649241
0.657419
0.626611
0.628526
0.622891
0.61353
0.603639
0.590703
0.57698
0.564843
0.555051
0.549597
0.549577
0.564793
0.57005
0.577858
0.58703
0.592306
0.593901
0.593905
0.595141
0.596784
0.599098
0.60244
0.606881
0.612358
0.581155
0.593584
0.604773
0.60794
0.605266
0.651719
0.64373
0.62185
0.593013
0.57558
0.564648
0.556571
0.57264
0.568152
0.565434
0.564082
0.563048
0.560676
0.558296
0.558035
0.558293
0.558919
0.560109
0.561956
0.564446
0.495957
0.502118
0.508629
0.509774
0.506919
0.546135
0.543258
0.54082
0.538267
0.536601
0.535618
0.533679
0.529032
0.524088
0.520816
0.518109
0.514794
0.510784
0.507352
0.505779
0.505409
0.50521
0.505227
0.505504
0.506038
0.404739
0.404773
0.40554
0.404457
0.401999
0.428906
0.42837
0.429025
0.431373
0.435913
0.441843
0.44662
0.449353
0.449131
0.449583
0.449891
0.448673
0.446437
0.444353
0.443518
0.443797
0.444031
0.444229
0.444412
0.444574
0.435008
0.434374
0.430264
0.423606
0.5047
0.494847
0.486212
0.479773
0.476197
0.474878
0.473308
0.470475
0.465175
0.460645
0.456688
0.451411
0.445498
0.440106
0.436188
0.433718
0.431514
0.429527
0.427731
0.426067
0.480405
0.481897
0.477529
0.468742
0.510068
0.499826
0.490672
0.483723
0.479687
0.478023
0.476164
0.473096
0.467852
0.46343
0.459151
0.453179
0.446634
0.440805
0.43654
0.433767
0.431326
0.429169
0.427269
0.425559
0.406686
0.405292
0.401804
0.396847
0.423963
0.421989
0.421801
0.423206
0.426806
0.432175
0.436915
0.44014
0.441329
0.443163
0.443484
0.441864
0.439423
0.437435
0.436822
0.437462
0.438123
0.438806
0.439529
0.440277
0.4347
0.434826
0.432799
0.526402
0.524017
0.521879
0.519434
0.517782
0.517253
0.516616
0.51448
0.512135
0.501103
0.503473
0.501369
0.498533
0.496428
0.496244
0.497347
0.498565
0.499943
0.501551
0.503411
0.542445
0.543849
0.541481
0.641586
0.635349
0.612129
0.579233
0.557205
0.543435
0.535232
0.572663
0.570852
0.557804
0.561965
0.562968
0.562196
0.561198
0.562286
0.563737
0.56541
0.567601
0.570491
0.57413
0.627453
0.631221
0.628464
0.624043
0.615
0.603846
0.591839
0.580508
0.571588
0.565875
0.581738
0.589235
0.599018
0.608501
0.614428
0.616468
0.615625
0.61563
0.616201
0.617742
0.620714
0.625254
0.631339
0.576559
0.569821
0.563613
0.555404
0.547453
0.542809
0.540788
0.559601
0.581935
0.605068
0.625138
0.6427
0.658633
0.665812
0.655421
0.642086
0.64645
0.647505
0.650455
0.65566
0.663206
0.673127
0.493173
0.488593
0.487872
0.492345
0.502882
0.541492
0.577545
0.611982
0.645195
0.671514
0.69022
0.704782
0.708493
0.701093
0.694455
0.689162
0.669805
0.672905
0.678903
0.687988
0.700539
0.716982
0.463005
0.4862
0.51943
0.522191
0.548221
0.591331
0.638162
0.682961
0.724928
0.735377
0.737604
0.733589
0.737169
0.73762
0.730579
0.713385
0.698831
0.706365
0.721952
0.741071
0.765994
0.798453
0.583282
0.625571
0.664176
0.663575
0.687696
0.708336
0.72111
0.728728
0.745462
0.76341
0.762985
0.756361
0.742089
0.720507
0.701865
0.683128
0.675534
0.803427
0.821135
0.86214
0.91525
0.985729
0.798905
0.784392
0.752878
0.717064
0.704773
0.688886
0.67421
0.681278
0.709074
0.732555
0.734156
0.722968
0.717943
0.722771
0.701358
0.704764
0.732665
0.764993
0.79679
1.19515
1.30958
1.44652
0.787245
0.740051
0.694652
0.652618
0.611555
0.606328
0.620393
0.661221
0.709108
0.753205
0.783197
0.801035
0.867174
0.951164
0.867584
0.95635
1.07129
1.232
1.43851
1.7879
1.63029
1.13076
0.680029
0.648888
0.619887
0.593067
0.571212
0.576237
0.611874
0.688078
0.852434
1.04569
1.07902
1.16817
1.25376
1.25482
0.831824
0.355487
0.354443
0.423243
0.822272
1.08987
1.26226
0.991771
0.605527
0.591193
0.578567
0.567626
0.563027
0.573114
0.635218
0.748206
0.256678
0.790567
0.864196
1.15303
0.571461
0.564428
0.560806
0.561222
0.570108
0.582472
0.635108
0.674402
1.52385
1.29279
0.553946
0.550699
0.550076
0.554665
0.569594
0.581124
0.653968
0.908932
1.05079
1.18534
1.21785
0.98425
0.533426
0.532852
0.534402
0.53976
0.550578
0.55524
0.584401
0.655715
0.919668
1.10226
1.14127
0.869529
0.819849
0.788679
0.794353
0.902745
1.09429
1.11013
0.805994
0.758382
0.660672
0.65298
0.528043
0.535072
0.536361
0.555436
0.583727
0.593721
0.590035
0.57695
0.564729
0.554564
0.547494
0.547798
0.550767
0.550181
0.548985
0.534178
0.534578
0.535554
0.502068
0.505132
0.507344
0.508588
0.508653
0.507344
0.504307
0.50022
0.49523
0.490045
0.486919
0.487256
0.48922
0.49135
0.493086
0.493885
0.494134
0.531881
0.518999
0.50753
0.497358
0.489721
0.488241
0.502114
0.582198
0.779209
0.576705
0.547549
0.523668
0.504399
0.488705
0.482261
0.477183
0.510512
0.595302
0.744971
0.875936
1.01466
1.2825
0.521078
0.507603
0.498561
0.877363
1.00327
0.832468
0.758953
0.699815
0.646634
0.598538
0.535734
0.498993
0.479733
0.495942
0.569077
0.630424
0.780627
0.96415
1.39734
1.33289
0.633048
1.3507
1.41944
1.48871
0.606559
0.643001
0.674154
0.666807
0.654277
0.626787
0.588981
0.565136
0.564221
0.561907
0.619809
0.658316
0.708991
0.855186
1.09217
1.0708
0.998039
1.15
1.29582
1.08415
0.371535
0.403364
0.454201
0.513225
0.567169
0.607634
0.630745
0.634954
0.629605
0.631177
0.643993
0.693202
0.684739
0.693946
0.710346
0.709992
0.744577
0.764896
0.874348
0.829728
0.822319
0.822072
0.831443
0.385661
0.389629
0.392759
0.402599
0.433487
0.483364
0.536016
0.577717
0.597658
0.612924
0.62085
0.625626
0.636642
0.65023
0.652718
0.655203
0.644335
0.657143
0.685283
0.69174
0.698431
0.70703
0.718701
0.52548
0.494591
0.466562
0.443928
0.426051
0.420679
0.433542
0.461945
0.503242
0.53847
0.561945
0.550464
0.558969
0.572941
0.594318
0.604882
0.602054
0.60207
0.606689
0.616805
0.625573
0.634131
0.643395
0.625578
0.594323
0.559756
0.528282
0.510113
0.496758
0.487109
0.482315
0.481425
0.486979
0.497
0.508157
0.522438
0.537723
0.551043
0.562175
0.569669
0.570104
0.573292
0.565752
0.573817
0.58135
0.588801
0.596519
0.818216
0.813447
0.80462
0.771893
0.734505
0.704307
0.678988
0.662277
0.647471