/*--------------------------------*- C++ -*----------------------------------*\
  =========                 |
  \\      /  F ield         | OpenFOAM: The Open Source CFD Toolbox
   \\    /   O peration     | Website:  https://openfoam.org
    \\  /    A nd           | Version:  13
     \\/     M anipulation  |
\*---------------------------------------------------------------------------*/
FoamFile
{
    format      ascii;
    class       volScalarField;
    location    "700";
    object      omega;
}
// * * * * * * * * * * * * * * * * * * * * * * * * * * * * * * * * * * * * * //

dimensions      [0 0 -1 0 0 0 0];

internalField   nonuniform List<scalar> 
171247
(
831.125
299.811
76.9568
77.0913
77.5127
78.3516
79.8199
82.28
85.8035
91.4908
92.8788
101.637
121.381
145.028
326.706
678.929
1076.28
237.341
48.1942
49.5427
51.1265
53.0465
55.306
57.8559
61.3312
66.1131
72.1952
75.2346
83.7783
96.8797
123.023
212.036
373.138
536.869
550.042
30.3511
31.3206
32.4474
33.6919
35.223
37.2998
40.0133
43.4009
47.3273
50.9623
54.1565
60.631
68.6054
83.2448
114.717
168.426
235.703
233.349
23.7612
24.1958
24.7148
25.4066
26.3132
27.4817
28.9482
30.723
32.7666
34.8996
36.7878
38.7215
40.9192
43.7826
48.0857
54.8743
64.8146
82.8246
98.6708
112.462
124.777
135.989
21.2307
21.4617
21.7462
22.0978
22.5338
23.0725
23.7313
24.5224
25.4449
26.4606
27.4963
28.5739
29.7096
30.9845
32.5501
34.6147
37.404
41.3583
45.7962
50.2174
54.4038
58.2416
19.8933
19.9965
20.1149
20.2502
20.4077
20.595
20.8209
21.0952
21.4266
21.82
22.2647
22.7526
23.2727
23.8223
24.4122
25.0716
25.8329
26.7278
27.7941
28.9857
30.2174
31.4214
32.5561
33.6032
19.3708
19.4158
19.4612
19.5084
19.5617
19.6263
19.7073
19.8116
19.9449
20.1094
20.3029
20.5192
20.7519
20.998
21.259
21.5388
21.8436
22.1748
22.5343
22.9116
23.2929
23.6611
24.0076
24.3279
19.0578
19.059
19.0593
19.0607
19.0681
19.0881
19.1224
19.1704
19.2336
19.3119
19.403
19.5038
19.611
19.7229
19.8386
19.9588
20.0849
20.2169
20.3535
20.4912
20.6259
20.7527
20.8689
20.9739
18.9415
18.9164
18.8918
18.8709
18.8601
18.862
18.8776
18.9066
18.9474
18.9973
19.0531
19.1119
19.1713
19.23
19.2874
19.3438
19.3999
19.4565
19.5131
19.5681
19.6195
19.6657
19.7053
19.7381
18.9821
18.9454
18.9101
18.8814
18.8634
18.8593
18.8693
18.8931
18.9279
18.9701
19.0158
19.0621
19.107
19.1492
19.1878
19.2228
19.2549
19.2854
19.3144
19.3412
19.3643
19.3829
19.3962
19.4043
19.0963
19.0567
19.0207
18.9924
18.9758
18.9735
18.9857
19.012
19.0495
19.0938
19.1408
19.1871
19.231
19.2715
19.3078
19.3394
19.3673
19.3926
19.4159
19.4364
19.4529
19.4646
19.4711
19.4727
19.2175
19.1786
19.145
19.1198
19.1072
19.1095
19.1272
19.1598
19.2041
19.2552
19.3081
19.3591
19.4067
19.4501
19.4885
19.5216
19.5505
19.5765
19.6001
19.6206
19.6368
19.6479
19.6535
19.6539
19.2104
19.1719
19.1387
19.114
19.102
19.105
19.1236
19.1573
19.203
19.2554
19.3092
19.3605
19.4074
19.449
19.4847
19.5147
19.5403
19.5632
19.5841
19.6022
19.6162
19.6253
19.6292
19.628
19.0359
19.0005
18.973
18.9573
18.9561
18.9698
18.9981
19.0378
19.084
19.1316
19.1766
19.2166
19.2507
19.2782
19.3
19.3178
19.3336
19.3481
19.3609
19.3706
19.3765
19.378
19.3751
18.9129
18.8778
18.8495
18.832
18.8286
18.8397
18.865
18.9017
18.9451
18.9902
19.0329
19.0708
19.1025
19.1277
19.1474
19.1637
19.1784
19.1925
19.2056
19.2164
19.2238
19.2271
19.2262
18.8759
18.8506
18.8288
18.8169
18.8182
18.8335
18.8626
18.9036
18.953
19.0062
19.0592
19.109
19.1541
19.1942
19.2298
19.2626
19.2945
19.3263
19.3574
19.3861
19.411
19.4314
19.4473
19.0072
19.0054
19.0044
19.0095
19.0271
19.059
19.1047
19.1656
19.2406
19.3273
19.4209
19.5172
19.6126
19.7048
19.7942
19.8828
19.9725
20.0634
20.1533
20.239
20.3181
20.3893
20.4527
19.3868
19.4303
19.4801
19.5413
19.6193
19.722
19.854
20.0172
20.2089
20.4214
20.6442
20.8694
21.0939
21.319
21.5485
21.7838
22.0275
22.2714
22.506
22.7243
22.9233
23.103
20.0571
20.1892
20.3445
20.5311
20.7588
21.0383
21.3796
21.7867
22.246
22.7426
23.2558
23.7687
24.2761
24.7931
25.3378
25.9259
26.5766
27.2639
27.9406
28.5742
29.1476
29.6588
21.4771
21.7674
22.1314
22.5891
23.161
23.8657
24.7133
25.6955
26.7644
27.8418
28.8994
29.9221
30.9536
32.0632
33.3485
34.9237
37.1157
39.578
42.0075
44.2305
46.1581
47.8078
24.5218
25.0806
25.8358
26.8319
28.115
29.7106
31.604
33.7202
35.8947
37.9675
39.7726
41.5549
43.5639
46.177
49.8933
55.2362
66.611
77.0941
86.2135
93.9639
100.471
106.025
32.7038
34.0456
35.5171
37.1772
39.3497
42.0835
45.3596
49.0148
52.6498
55.8679
55.8653
57.233
60.5644
67.1047
79.2435
99.0756
183.763
204.617
222.216
238.219
251.697
264.02
50.5569
52.1808
54.107
56.4311
58.9975
62.1935
66.4675
71.9288
72.1606
74.2886
79.7799
90.7137
118.013
169.084
245.773
332.099
393.846
419.664
397.316
382.952
369.71
352.678
74.0436
74.47
75.2548
76.5792
78.7595
82.0443
87.3112
87.4829
91.1183
100.959
124.299
146.409
275.364
479.784
711.838
554.959
232.862
144.554
146.049
166.72
193.966
207.669
93.8086
92.367
91.4673
91.2853
92.0943
94.8914
101.925
102.761
113.131
145.721
201.084
563.667
646.947
474.613
263.493
132.765
114.958
124.217
137.202
154.746
153.611
157.925
106.216
102.863
100.08
97.9491
96.7166
97.1395
97.0799
101.434
122.052
149.512
384.329
844.478
632.925
217.191
121.407
121.779
121.246
120.318
122.89
126.88
122.429
116.647
111.528
107.007
103.327
100.998
100.711
100.104
108.277
135.265
190.01
385.102
720.478
568.141
224.297
137.152
116.508
110.918
119.006
119.331
121.641
126.577
137.653
130.786
124.517
118.708
113.331
108.531
105.034
103.688
102.941
106.982
118.807
161.806
252.158
390.232
516.152
568.442
519.58
441.434
416.978
400.345
388.916
379.92
119.655
115.115
111.075
107.827
105.642
104.316
104.168
108.825
121.268
148.216
187.897
233.209
225.689
237.022
246.912
256.867
265.391
273.943
106.609
105.585
104.44
103.198
102.216
101.443
101.239
101.934
103.858
107.197
111.867
121.176
128.311
133.709
137.74
140.493
142.209
130.859
129.114
127.98
127.655
128.461
130.792
135.311
137.646
153.691
195.077
474.571
744.583
91.6312
93.4448
95.5783
98.2323
101.294
104.934
110.11
118.19
122.452
137.733
167.949
244.447
438.279
576.874
644.112
631.411
650.088
51.0187
54.0446
57.2436
60.5095
64.2529
68.8481
74.375
80.8
87.6783
92.271
102.098
112.252
125.932
141.132
160.875
188.409
224.232
261.046
31.5262
33.1789
35.0863
37.4468
40.3435
43.8171
47.8391
52.2695
56.7553
60.4174
63.5377
66.4288
69.2895
72.3495
75.9453
80.4579
86.2267
93.6829
104.39
112.837
119.644
125.265
24.9547
25.8632
26.9264
28.1872
29.6999
31.4987
33.5844
35.9021
38.3126
40.5459
42.5953
44.5256
46.3589
48.1536
50.0032
52.011
54.257
56.7897
59.5977
62.2885
64.7006
66.7959
21.8254
22.2772
22.7668
23.2949
23.8793
24.5443
25.314
26.2037
27.2106
28.3034
29.4279
30.5443
31.636
32.693
33.7205
34.734
35.7518
36.7919
37.8508
38.8985
39.8787
40.7623
41.5411
42.2204
21.0432
21.3155
21.5705
21.8028
22.0238
22.2524
22.5112
22.8393
23.2383
23.7018
24.2108
24.737
25.2617
25.7783
26.2861
26.7841
27.2725
27.7531
28.2247
28.6755
29.0917
29.4653
29.7956
30.0862
20.441
20.5706
20.681
20.77
20.8567
20.962
21.0885
21.2409
21.4215
21.6275
21.8545
22.0934
22.3358
22.5754
22.8083
23.0337
23.2512
23.4616
23.6645
23.8566
24.0335
24.1928
24.3342
24.4593
20.2434
20.2784
20.2998
20.3159
20.3453
20.391
20.4525
20.5303
20.6223
20.725
20.835
20.949
21.0635
21.1761
21.283
21.3837
21.4784
21.5682
21.653
21.7317
21.8023
21.8637
21.9158
21.9598
20.4594
20.4442
20.4172
20.396
20.3852
20.3888
20.4075
20.44
20.4839
20.5352
20.5901
20.6456
20.7001
20.752
20.7996
20.8424
20.8804
20.9151
20.9471
20.9754
20.9986
21.0161
21.027
21.0319
20.8355
20.8005
20.7618
20.7275
20.7021
20.6895
20.6912
20.705
20.7288
20.7586
20.7903
20.8207
20.8491
20.8749
20.8966
20.9135
20.9264
20.9371
20.946
20.9522
20.9542
20.9515
20.9435
20.9305
21.3016
21.2586
21.2161
21.1778
21.1482
21.1318
21.1304
21.1418
21.1628
21.189
21.2155
21.239
21.2589
21.2753
21.287
21.2934
21.2956
21.2956
21.2937
21.2891
21.2802
21.2665
21.2475
21.2232
21.2913
21.2494
21.2081
21.171
21.1426
21.1275
21.1276
21.1408
21.1638
21.192
21.2202
21.2445
21.2641
21.2789
21.2879
21.2908
21.2897
21.2865
21.2817
21.2745
21.2633
21.2474
21.2264
21.2005
20.7692
20.7315
20.6984
20.6741
20.6626
20.6655
20.6809
20.7066
20.7381
20.7702
20.7991
20.8234
20.8425
20.8554
20.8625
20.8656
20.8671
20.8678
20.8666
20.8623
20.854
20.8413
20.8243
20.3906
20.3638
20.3423
20.3311
20.334
20.352
20.3841
20.4277
20.4781
20.5303
20.5803
20.6264
20.6677
20.7022
20.7292
20.7508
20.7699
20.7875
20.8029
20.8149
20.8224
20.8255
20.8246
20.2093
20.2269
20.2394
20.2646
20.3055
20.3625
20.4359
20.5236
20.6214
20.7246
20.8293
20.932
21.0306
21.1203
21.1998
21.2705
21.3353
21.3961
21.4527
21.5038
21.549
21.5884
21.6226
20.4696
20.5712
20.6501
20.7269
20.8213
20.9372
21.0795
21.2508
21.4484
21.667
21.8982
22.1324
22.3589
22.5713
22.7693
22.9528
23.1237
23.2835
23.4322
23.5685
23.6915
23.802
23.9021
21.3368
21.5547
21.7623
21.9789
22.2364
22.5649
22.9691
23.4433
23.9677
24.5135
25.0513
25.568
26.0571
26.5134
26.9366
27.3294
27.6952
28.0324
28.3342
28.5988
28.8306
29.0366
22.5278
23.0415
23.618
24.2852
25.0714
25.997
27.0638
28.2426
29.4546
30.6448
31.7826
32.8429
33.8203
34.7181
35.5474
36.3247
37.0576
37.7355
38.3361
38.8499
39.2865
39.663
25.8009
26.8965
28.2192
29.8317
31.7756
34.0528
36.6011
39.2592
41.7244
43.8763
45.8038
47.53
49.0937
50.533
51.9157
53.2899
54.7024
56.1855
57.5362
58.6632
59.5749
60.3087
34.2407
36.3164
38.9124
42.1096
45.9338
50.3159
55.0602
59.748
63.5156
66.4723
69.0744
71.4492
73.7413
76.0456
78.5358
81.4111
85.0602
91.0145
95.6762
99.1266
101.662
103.493
58.795
62.3698
65.9837
69.8451
74.4211
79.7216
85.6567
91.4478
90.9374
91.8117
94.3935
97.9596
102.064
106.981
113.331
122.341
137.384
190.587
197.364
201.745
205.124
208.143
95.8868
97.9519
100.464
103.48
106.84
111.48
118.74
118.433
122.347
134.527
162.328
191.925
218.366
243.057
266.091
301.291
345.579
372.339
391.121
370.422
348.66
328.346
126.117
125.162
124.906
125.649
127.924
132.181
131.302
139.82
165.023
207.18
407.494
594.072
950.957
645.749
791.064
756.571
530.331
283.927
256.511
249.405
257.134
244.21
144.794
141.512
139.147
137.983
138.826
144.479
144.553
164.776
195.797
619.573
2447.54
554.671
157.616
174.478
201.69
194.605
187.948
160.267
155.424
151.602
148.933
148.089
152.068
152.155
181.85
258.318
883.103
193.734
191.054
176.031
164.074
160.689
159.858
153.889
148.8
144.701
141.828
140.975
141.62
154.42
189.226
566.136
1931.03
375.422
216.243
212.182
256.717
285.781
278.266
153.596
147.155
141.546
136.908
133.274
131.122
130.448
132.576
146.462
192.031
325.179
544.817
755.929
778.531
641.8
624.437
559.966
529.517
404.785
389.561
377.291
364.951
126.377
124.325
123.117
123.067
124.6
131.338
146.512
171.513
188.58
201.994
212.645
225.542
235.329
196.978
199.029
200.128
199.345
198.716
98.5407
100.462
102.431
104.353
105.887
107.357
108.798
110.19
111.461
112.52
113.359
114.244
115.353
115.491
114.449
112.863
111.184
154.681
149.895
145.896
142.821
140.769
140.239
143.142
148.261
186.753
483.497
2401.85
140.57
138.839
137.641
137.044
136.81
137.445
139.519
141.749
156.923
207.788
345.235
554.585
606.399
610.162
603.26
590.659
574.82
597.763
101.24
104.459
107.382
110.014
112.967
116.384
120.255
124.558
127.684
137.928
151.392
166.208
177.572
187.103
196.793
206.946
218.721
233.476
56.8391
60.7351
64.5632
68.6351
73.182
78.2634
83.7051
89.3132
94.6786
98.969
102.098
104.541
106.382
108.262
109.792
111.099
112.279
113.629
115.456
39.8331
42.4061
45.1742
48.1604
51.4742
55.1935
59.2607
63.5465
67.8057
71.6254
74.7506
77.3913
79.4521
81.1196
82.4472
83.7086
84.458
84.8348
85.1925
85.6105
86.0617
86.4334
86.7227
32.2218
33.9312
35.6264
37.3301
39.116
41.0511
43.1726
45.464
47.8745
50.2832
52.6211
54.7279
56.5734
58.177
59.5361
60.6342
61.4862
62.1133
62.5894
62.9654
63.2573
63.4773
63.6519
63.8121
29.8631
30.9893
31.9218
32.672
33.3083
33.9252
34.7289
35.6729
36.7487
37.9185
39.1171
40.2787
41.3673
42.3692
43.2703
44.0287
44.6633
45.1786
45.6037
45.9522
46.2332
46.4557
46.6361
46.7931
26.9872
27.6672
28.1682
28.4934
28.8208
29.1762
29.5799
30.032
30.5234
31.0564
31.6108
32.1643
32.6937
33.1899
33.645
34.0437
34.3799
34.661
34.8984
35.0995
35.2647
35.3985
35.5077
35.5999
25.3836
25.6827
25.8635
26.0092
26.176
26.3598
26.5704
26.7929
27.0221
27.2633
27.512
27.7611
27.9999
28.224
28.4261
28.6014
28.7467
28.8637
28.9582
29.0356
29.097
29.1434
29.1771
29.2014
25.3654
25.4183
25.4049
25.3859
25.3862
25.3988
25.427
25.4694
25.5214
25.5834
25.6542
25.7248
25.7932
25.8562
25.9105
25.9536
25.9836
26.0021
26.0125
26.0148
26.0092
25.9953
25.9746
25.9487
26.2191
26.1667
26.0818
25.9836
25.8812
25.7847
25.7021
25.6331
25.5783
25.5327
25.4935
25.4537
25.415
25.3769
25.3349
25.2866
25.2334
25.1782
25.1224
25.0658
25.0075
24.9463
24.8811
24.8123
28.0989
27.9889
27.8476
27.6877
27.5206
27.355
27.2003
27.0605
26.9361
26.8204
26.7098
26.5962
26.4827
26.3717
26.2578
26.1391
26.0185
25.8991
25.7826
25.6685
25.5551
25.4412
25.3259
25.209
28.0998
27.9933
27.8556
27.6991
27.5352
27.3724
27.22
27.0826
26.9609
26.8475
26.7387
26.6254
26.5114
26.3975
26.2793
26.1557
26.0304
25.907
25.7871
25.6698
25.5536
25.437
25.3192
25.2
26.1181
26.0326
25.9334
25.8293
25.7291
25.6419
25.5679
25.5086
25.4584
25.4146
25.3693
25.3235
25.2762
25.2247
25.1668
25.1054
25.0439
24.9832
24.9232
24.8626
24.7997
24.7341
24.6666
25.2561
25.2379
25.2131
25.1997
25.1982
25.2105
25.237
25.2779
25.331
25.3916
25.4523
25.5114
25.5647
25.6133
25.6472
25.6683
25.6805
25.6871
25.689
25.6852
25.6759
25.662
25.6448
25.3923
25.5601
25.6941
25.85
26.0198
26.215
26.4219
26.6337
26.8573
27.0904
27.3274
27.5595
27.7807
27.9827
28.1592
28.3056
28.4242
28.5203
28.6001
28.6678
28.7247
28.7731
28.8164
27.3658
27.8397
28.1292
28.4166
28.7276
29.0842
29.4945
29.9484
30.4558
30.9999
31.5622
32.1174
32.6464
33.1349
33.5629
33.9184
34.2133
34.4597
34.6687
34.8492
35.0046
35.1425
35.2723
30.9898
31.7073
32.31
32.9274
33.7296
34.6935
35.8038
37.0451
38.3492
39.6417
40.8716
42.0097
43.0302
43.8917
44.5835
45.1414
45.6022
45.9747
46.2786
46.5358
46.7695
46.9974
34.5997
36.2906
38.088
40.0634
42.2655
44.6916
47.2867
49.9942
52.6604
55.0846
57.2179
59.0684
60.6261
61.8583
62.7881
63.4393
63.887
64.202
64.4329
64.6226
64.803
64.9902
44.8427
47.9705
51.4834
55.4636
59.8546
64.5111
69.176
73.4792
77.0327
79.9696
82.2752
84.1047
85.5131
86.7974
87.4091
87.4052
87.2231
86.9923
86.7835
86.5958
86.4455
86.353
67.1453
71.4501
76.2602
81.6052
87.2854
93.0462
98.5007
103.252
106.548
108.839
110.405
111.992
113.088
113.69
113.78
113.57
113.375
113.505
114.573
115.1
115.278
115.3
110.577
113.296
115.693
118.244
121.135
124.31
127.816
132.642
131.537
132.14
134.537
137.003
139.474
142.036
144.422
146.697
149.326
155.557
183.789
182.896
181.329
179.723
139.836
138.357
137.461
136.958
137.224
138.907
138.337
144.085
162.239
201.949
238.263
255.369
265.923
273.995
278.852
281.563
287.006
298.209
306.627
324.6
307
291.247
148.845
144.83
141.655
139.491
138.867
141.752
144.465
170.692
217.897
486.885
701.623
957.048
968.854
948.63
921.838
784.516
732.531
635.946
474.763
396.872
300.324
262.231
147.999
142.986
138.626
135.1
132.608
131.908
142.919
207.687
552.713
474.908
215.286
275.864
229.299
207.559
134.926
129.495
124.657
120.346
116.253
118.007
131.78
175.205
1201.31
285.728
224.016
210.124
214.167
158.982
152.619
147.115
142.504
139.354
139.055
141.549
174.825
555.62
527.11
471.271
333.827
364.326
329.227
154.026
148.627
144.019
140.227
137.307
135.634
134.476
142.715
194.574
443.283
1048.54
747.137
813.501
818.245
797.283
603.645
510.848
405.129
382.03
284.109
275.903
267.447
113.605
113.814
115.282
116.696
124.414
139.593
153.379
162.731
169.425
173.688
175.288
173.781
172.774
171.807
142.669
141.695
140.228
138.505
76.0605
78.9334
82.2004
85.2489
87.7857
89.6072
90.8506
91.7169
92.2575
92.3866
92.0673
91.5899
91.0623
90.3259
89.2287
87.8196
86.1856
152.928
146.134
140.054
134.681
130.213
126.744
125.545
135.908
214.128
1264.45
160.066
154.673
149.656
144.811
140.253
136.368
134.484
136.554
172.14
320.805
577.986
598.164
559.277
458.328
445.352
489.06
497.719
501.937
151.253
148.895
146.4
144.038
142.002
140.935
139.692
140.321
143.899
165.959
196.361
213.03
220.467
225.406
230.202
232.644
233.08
233.633
113.049
115.072
116.952
119.048
121.372
124.32
127.1
129.587
131.583
133.488
135.856
138.196
140.641
142.246
145.122
146.992
147.432
146.455
144.444
84.1255
87.4664
90.5607
93.4198
96.6411
100.721
104.835
108.827
112.369
115.315
117.396
118.637
119.506
120.185
120.076
118.635
115.948
115.084
114.05
113.077
112.142
111.383
110.806
67.2325
70.3092
73.0507
75.5878
78.1096
80.766
83.6305
86.4161
89.4193
92.3097
94.6956
96.5487
97.9393
98.9993
99.5888
99.8424
99.0761
97.9391
96.5915
95.2806
94.0913
93.0634
92.2138
91.5509
61.9122
64.3869
66.0064
67.004
67.8077
68.8296
70.0903
71.5495
73.0465
74.5633
75.9843
77.2288
78.3065
79.2193
79.9013
80.5934
80.7068
80.3755
79.6907
78.9358
78.1832
77.4836
76.8654
76.3388
52.9142
54.9411
56.0206
56.6323
57.1389
57.6273
58.1802
58.8472
59.603
60.4153
61.1951
61.8609
62.4583
62.9762
63.4026
63.6807
63.7629
63.6563
63.4077
63.0838
62.7255
62.36
62.0099
61.69
43.2963
44.7007
45.8076
46.3095
46.7698
47.3464
47.8007
48.3943
48.8034
49.1379
49.4595
49.7552
49.9955
50.2003
50.3695
50.502
50.5745
50.5537
50.4464
50.2776
50.073
49.8461
49.6057
49.362
49.1218
39.7777
40.2662
40.6289
40.6935
40.6905
40.8703
41.0081
41.1161
41.2142
41.3017
41.3907
41.4711
41.5052
41.5117
41.4905
41.4405
41.3508
41.2175
41.0449
40.8516
40.6554
40.4519
40.2415
40.0267
39.8111
39.724
39.7285
39.6442
39.427
39.1363
38.8825
38.6141
38.3388
38.0874
37.8708
37.6829
37.5015
37.3122
37.1215
36.9343
36.7329
36.5077
36.2637
36.0097
35.7593
35.5148
35.2761
35.0398
34.8046
34.5708
45.9068
45.5603
45.0527
44.4471
43.8548
43.2179
42.5539
41.905
41.3028
40.7445
40.2088
39.687
39.1816
38.6958
38.2157
37.7299
37.2448
36.7676
36.3112
35.8798
35.4712
35.0796
34.7016
34.3361
46.0636
45.7276
45.2245
44.6222
44.0348
43.3975
42.7299
42.0746
41.4647
40.8982
40.3538
39.8214
39.3083
38.8137
38.3187
37.8174
37.3189
36.831
36.3656
35.9266
35.5116
35.1146
34.7325
34.3638
39.6865
39.5798
39.3407
39.0252
38.7412
38.4284
38.1106
37.8136
37.5536
37.3269
37.1164
36.9109
36.721
36.5421
36.3517
36.135
35.9028
35.6619
35.4256
35.1972
34.9754
34.7574
34.5421
34.3299
39.9325
39.9628
39.9214
40.0156
40.079
40.1198
40.1551
40.2007
40.2624
40.3345
40.3887
40.4357
40.5564
40.5593
40.5229
40.4421
40.322
40.1817
40.0407
39.8948
39.7433
39.5894
39.4374
44.3633
44.8691
45.3426
45.971
46.4598
47.0645
47.4582
47.7573
48.0512
48.3571
48.6551
48.9565
49.3521
49.5962
49.7797
49.8661
49.8631
49.8064
49.7152
49.6026
49.4734
49.3452
49.229
54.357
55.4425
55.9872
56.3939
56.7314
57.1168
57.6252
58.2617
59.0271
59.8528
60.6594
61.462
62.1987
62.8478
63.3418
63.6235
63.7158
63.6909
63.5882
63.4388
63.2775
63.133
63.0238
63.945
64.9669
65.7588
66.7682
68.0439
69.5731
71.2782
73.0795
74.8646
76.5431
78.0508
79.3708
80.452
81.1985
81.8433
81.9504
81.5738
81.0924
80.5952
80.1432
79.7733
79.5066
70.8082
73.5519
76.2914
79.1824
82.3564
85.5716
89.0423
92.3777
95.2028
97.5165
99.3854
100.905
101.909
102.618
102.274
101.462
100.305
99.146
98.0955
97.223
96.5641
96.1391
90.349
93.4672
96.9729
101.357
105.784
110.075
113.887
117.075
119.29
120.877
122.128
123.316
123.587
120.193
115.068
119.265
118.255
117.214
116.198
115.436
114.97
114.855
119.428
121.53
123.848
126.68
129.365
131.621
133.337
134.993
137.447
140.347
143.271
139.783
136.261
134.656
133.176
131.182
147.989
146.281
144.768
144.999
145.249
145.802
150.029
147.414
144.917
142.576
141.071
139.431
139.686
139.293
145.608
157.733
167.52
174.183
178.897
182.306
183.743
182.902
181.168
179.03
178.396
210.274
210.189
209.645
153.193
148.021
142.994
138.284
134.273
132.789
134.168
151.066
201.637
272.141
295.483
299.218
302.537
308.042
305.243
299.92
299.784
297.963
297.687
294.962
349.304
316.478
143.898
137.684
132.289
127.887
124.545
123.598
133.091
204.214
418.978
674.522
952.771
665.932
663.056
663.07
499.703
736.344
626.761
566.955
537.926
427.557
278.744
254.864
143.09
138.103
133.4
129.421
125.866
125.063
137.573
267.24
463.16
277.693
252.539
231.161
153.128
147.261
141.975
137.294
133.567
132.374
143.944
374.206
366.252
248.323
218.202
292.629
151.275
145.281
140.152
135.918
132.893
132.241
140.893
203.665
732.992
532.939
369.526
318.28
133.015
128.487
124.746
121.913
120.429
121.687
121.454
141.664
260.549
557.953
845.17
603.595
528.406
499.947
686.139
742.024
688.331
463.062
314.002
278.072
197.529
187.981
91.7993
92.2928
94.5354
97.8788
110.846
126.844
130.547
131.06
130.835
130.363
131.592
131.387
129.26
127.385
125.025
102.171
100.553
98.5406
60.555
62.2814
64.4962
66.5967
68.0197
68.8292
69.4018
69.7745
69.8716
69.6871
69.3003
68.9116
68.559
68.0089
67.2189
66.1614
64.8953
154.04
146.56
139.492
132.888
126.769
121.593
121.027
134.332
332.14
155.497
148.298
141.346
134.684
128.408
122.723
119.262
123.504
178.865
535.929
575.523
562.27
484.199
467.163
475.079
604.047
562.461
775.342
162.813
155.82
148.465
140.844
133.785
129.205
123.448
121.122
133.109
178.728
229.452
263.932
283.102
299.362
311.251
303.702
300.15
298.032
153.507
150.748
148.427
146.237
143.527
140.14
135.601
131.603
128.273
128.633
138.059
154.499
170.858
185.428
199.004
208.358
209.483
207.268
201.31
220.176
140.175
137.889
134.773
131.921
131.949
132.222
133.128
133.619
132.943
131.671
131.828
134.427
139.117
140.83
145.941
150.314
152.863
151.518
148.351
160.006
158.483
156.349
154.166
123.431
122.65
122.165
121.932
122.37
123.104
123.484
124.106
124.223
123.81
123.337
123.322
124.046
124.802
125.423
124.604
123.607
121.935
123.574
123.948
123.797
123.312
122.674
122.008
122.738
125.306
125.497
123.955
121.598
118.964
116.355
115.158
118.565
116.872
115.408
114.204
113.257
112.589
112.303
111.525
109.455
106.847
106.003
105.07
104.192
103.393
102.68
102.056
128.073
130.458
130.092
127.803
124.568
120.292
115.558
111.038
108.108
106.355
104.583
107.072
105.095
103.456
102.023
100.614
98.8841
96.9138
95.1471
93.5033
92.0025
90.6756
89.5194
88.5179
104.967
108.039
110.594
111.264
110.501
128.976
124.981
118.479
108.591
101.423
96.2562
92.4022
98.8659
96.4112
94.1986
92.1765
90.2388
88.2582
86.2775
84.4551
82.7237
81.1021
79.6172
78.2733
77.0626
89.5125
90.8581
92.1132
92.1863
91.075
107.98
105.26
102.328
99.1871
96.1242
93.2794
90.5745
87.9686
85.4818
83.1988
81.0827
79.0465
77.0189
75.0591
73.2365
71.5738
70.0081
68.5543
67.2144
65.9804
67.9265
68.1864
68.6081
68.4996
67.7939
82.5932
81.4521
80.108
78.678
77.3055
76.0518
74.9551
73.611
72.0187
70.4164
68.8337
67.208
65.5336
63.8718
62.3049
60.8929
59.5576
58.3068
57.1403
56.0507
77.9635
77.4773
76.2917
74.4034
95.6235
92.6979
89.6281
86.5939
83.7663
81.2522
79.1875
77.0344
74.6966
72.3973
70.2022
68.0089
65.8145
63.6869
61.6982
59.9172
58.2597
56.727
55.3115
54
87.9146
87.712
86.4649
84.1995
97.0408
93.9897
90.7825
87.6089
84.6445
82.0062
79.8507
77.628
75.2311
72.9008
70.6693
68.423
66.1777
64.0077
61.9836
60.1733
58.4934
56.9434
55.5154
54.1954
69.5126
69.2405
68.4198
67.0107
81.6597
80.0855
78.7305
77.2565
75.8138
74.4965
73.403
72.1409
70.7286
69.3901
67.9631
66.4541
64.879
63.3081
61.8254
60.5004
59.2482
58.0754
56.9824
55.9633
75.0514
75.3171
74.751
104.503
101.984
99.1993
96.1588
93.1331
90.3236
87.735
85.4138
83.3118
80.0653
78.9341
77.2673
75.5691
73.8991
72.335
70.909
69.5527
68.2841
67.1114
66.0318
96.7624
97.0468
96.2461
126.703
123.05
116.709
106.236
97.9033
91.4623
86.6113
97.5012
95.4886
91.948
91.1065
89.6137
88.0235
86.3613
84.8093
83.3054
81.874
80.5539
79.3613
78.297
120.32
121.441
120.526
118.346
114.899
110.936
106.755
102.81
99.6224
97.0537
107.206
105.626
104.441
103.24
102.045
100.628
98.8099
97.135
95.5732
94.1558
92.9243
91.8823
91.0184
128.692
126.952
124.105
120.342
116.164
112.461
118.962
117.356
116.168
115.336
114.731
114.325
114.229
113.701
110.702
106.07
108.628
107.842
107.129
106.514
106.013
105.637
120.606
119.887
119.008
118.224
117.979
125.009
125.312
125.146
124.918
125.181
126.188
127.144
127.961
124.959
121.243
118.448
127.465
128.151
128.271
128.042
127.671
127.32
132.779
133.015
133.056
131.372
130.154
130.399
130.725
130.572
133.79
136.979
142.362
139.828
139.474
140.977
142.247
141.312
139.013
167.614
166.157
164.08
162.018
160.278
149.219
146.878
144.046
141.469
138.46
135.7
132.873
131.436
135.266
144.532
155.628
167.022
177.516
184.945
188.524
187.418
184.036
232.484
222.419
215.446
209.521
204.973
154.541
147.628
140.309
133.513
130.544
126.08
123.512
129.849
157.31
193.636
222.622
242.562
258.709
271.131
254.675
265.843
264.764
260.948
253.826
288.859
274.664
263.354
146.673
140.257
134.092
128.228
122.494
120.448
121.806
152.703
258.915
336.992
374.956
386.08
399.55
413.092
376.98
447.677
458.791
454.781
427.031
407.373
270.794
212.99
146.814
140.31
134.02
127.999
122.648
121.275
128.993
196.205
963.635
873.213
635.382
654.019
597.366
609.598
1049.64
439.481
507.333
390.622
278.976
242.552
256.624
272.388
145.575
139.083
133.122
127.656
123.154
122.894
142.714
643.354
591.28
330.305
314.782
306.578
142.854
136.441
130.841
126.04
122.456
123.4
141.092
354.914
385.074
319.257
133.911
127.824
122.641
118.528
116.018
117.349
144.694
457.192
789.216
542.934
407.702
267.27
110.796
106.572
103.085
100.48
99.0924
99.4638
106.741
140.005
638.635
819.784
630.854
399.699
351.997
322.205
329.057
625.388
818.9
605.619
313.031
248.165
154.249
141.858
74.5065
75.2193
76.1302
83.1266
97.2653
103.749
104.227
103.101
101.765
100.525
99.5933
99.3008
98.7086
96.409
93.7788
76.6181
75.0694
73.168
52.6005
53.4114
54.5139
55.392
55.7731
55.955
55.9034
55.703
55.3605
54.89
54.3757
53.9592
53.6293
53.1803
52.55
51.6676
50.6306
144.73
138.014
131.855
126.162
120.982
116.626
116.045
136.436
839.501
143.848
136.904
130.634
125.012
119.907
116.941
113.463
117.617
188.692
524.6
627.522
735.381
776.423
528.279
751.211
442.077
316.325
349.227
290.051
152.741
144.3
136.642
131.06
123.021
117.401
113.121
114.646
148.802
214.108
384.086
518.291
568.823
796.944
665.348
470.639
415.965
383.303
158.841
155.165
151.522
146.576
138.998
131.726
124.983
122.235
127.756
132.345
169.46
224.335
281.91
338.454
454.555
569.766
636.544
577.468
418.496
307.258
144.155
141.455
140.805
141.089
140.797
140.093
138.055
135.394
134.181
136.414
143.269
193.736
192.614
206.159
225.549
246.137
269.133
285.024
308.919
265.326
239.539
219.668
204.47
144.527
143.355
144.029
141.21
137.866
135.989
134.712
133.409
146.852
147.593
152.261
154.445
155.687
159.276
163.734
169.327
175.565
180.341
199.154
190.185
181.207
172.924
165.573
206.333
204.62
197.58
184.453
168.596
154.257
143.37
135.385
132.961
133.444
134.131
134.027
132.61
131.887
131.392
131.727
130.807
129.93
140.577
140.97
139.843
137.832
135.368
235.599
233.997
223.461
210.584
198.276
185.538
172.865
161.404
150.765
141.578
134.336
128.102
124.368
122.548
120.75
118.331
116.148
113.511
111.069
113.24
113.349
113.062
112.442
111.569
249.451
242.787
238.676
229.728
217.016
202.937
188.765
177.222
167.785
159.435
152.202
144.849
136.268
128.025
121.587
116.621
112.549
108.918
105.355
106.501
104.378
102.499
100.806
99.2584
97.8251
253.869
248.003
244.461
237.352
224.861
209.115
192.01
176.412
162.908
151.808
143.124
136.174
129.884
123.462
117.587
112.577
108.038
103.667
99.4148
96.0853
99.15
96.5416
94.0907
91.8181
89.7234
173.954
176.191
179.912
180.373
176.136
169.311
211.567
198.73
186.259
174.219
163.73
152.026
135.654
123.57
113.652
106.125
100.17
94.9843
90.1808
86.0589
92.6532
90.1101
87.6219
85.2269
82.9484
195.014
193.896
195.847
192.224
184.524
175.837
227.722
211.896
196.222
181.942
170.056
158.786
142.766
130.331
119.144
110.057
102.827
96.4448
90.5813
85.4552
93.7639
90.9445
88.1575
85.4429
82.8329
225.752
226.449
219.818
209.594
196.85
229.649
213.756
197.939
183.45
171.287
159.936
143.932
131.495
120.404
111.564
104.454
97.995
92.027
86.7749
94.5878
91.8297
89.0778
86.3772
83.7655
172.371
175.146
174.394
169.118
162.349
154.159
203.538
190.813
178.453
167.311
156.133
139.451
126.821
116.231
108.051
101.508
95.6295
90.2101
85.5191
94.7711
92.2197
89.6789
87.2053
84.8364
218.031
215.124
206.574
194.917
181.536
168.286
155.843
144.835
135.724
128.753
122.89
117.279
112.54
108.572
104.546
100.466
96.3618
92.7831
100.534
97.8767
95.378
93.0611
90.9294
239.733
233.027
221.084
206.257
190.765
177.768
166.94
157.6
149.907
143.318
136.12
128.879
123.211
118.404
113.792
109.448
105.242
107.813
105.565
103.582
101.813
100.222
98.777
237.75
227.716
215.074
203.589
192.069
180.522
170.17
159.723
150.073
141.715
133.809
127.235
122.689
119.249
116.219
113.436
110.469
107.729
113.627
113.644
113.362
112.82
112.072
224.678
212.372
198.36
182.987
167.754
154.532
143.283
135.155
130.705
128.239
134.766
133.34
130.05
126.09
123.937
121.703
119.719
139.77
140.404
139.609
137.952
135.825
177.567
176.304
166.131
153.112
142.958
136.468
132.58
146.613
147.661
152.773
155.171
150.577
146.735
146.186
146.888
147.234
149.348
198.137
189.981
181.629
173.79
166.698
135.204
134.529
134.94
136.711
137.019
136.891
136.2
136.65
138.674
194.987
186.02
181.996
188.21
196.121
195.768
227.205
235.025
266.949
241.167
221.167
205.72
193.597
151.554
147.894
142.103
136.927
132.225
129.956
131.618
139.569
155.173
184.673
220.238
257.005
269.738
289.757
342.425
357.863
383.021
304.256
270.474
246.127
228.351
213.546
144.365
136.763
132.79
125.365
119.189
115.618
121.448
132.185
165.558
306.919
375.709
443.343
611.752
682.033
1084.63
575.508
398.429
353.126
321.855
260.251
234.512
205.94
136.552
130.32
124.745
119.696
116.81
112.589
113.962
166.587
245.29
446.171
591.391
620.452
767.793
553.992
436.221
377.452
281.502
254.772
234.164
186.927
197.621
137.969
131.88
126.258
121.14
116.824
115.229
124.101
269.694
562.917
859.073
1077.36
671.359
546.276
1803.09
385.142
338.295
557.072
511.092
244.78
210.561
281.827
295.388
139.905
133.403
127.49
122.321
118.478
118.801
135.498
474.191
402.562
329.533
138.316
131.831
126.09
121.293
118.316
121.271
160.894
542.135
445.441
319.426
129.498
123.796
118.886
114.981
112.852
115.282
161.558
1560.54