/*--------------------------------*- C++ -*----------------------------------*\
  =========                 |
  \\      /  F ield         | OpenFOAM: The Open Source CFD Toolbox
   \\    /   O peration     | Website:  https://openfoam.org
    \\  /    A nd           | Version:  13
     \\/     M anipulation  |
\*---------------------------------------------------------------------------*/
FoamFile
{
    format      ascii;
    class       volScalarField;
    location    "800";
    object      k;
}
// * * * * * * * * * * * * * * * * * * * * * * * * * * * * * * * * * * * * * //

dimensions      [0 2 -2 0 0 0 0];

internalField   nonuniform List<scalar> 
171247
(
1.09413
0.0698713
0.603956
0.61118
0.61965
0.630091
0.643666
0.662287
0.687034
0.722002
0.729685
0.769414
0.842878
0.908024
1.06126
1.22413
1.445
0.528041
0.517225
0.52512
0.534446
0.545742
0.559186
0.574682
0.594773
0.621248
0.654044
0.66886
0.709528
0.76329
0.83271
0.956067
1.11331
1.31368
1.46855
0.444552
0.449715
0.455758
0.462516
0.470753
0.481744
0.496108
0.514207
0.535344
0.554857
0.571922
0.605576
0.644315
0.697222
0.771482
0.865996
0.983738
1.00614
0.410051
0.413217
0.416808
0.421249
0.42673
0.433472
0.441661
0.451379
0.462439
0.473757
0.483336
0.492893
0.504597
0.51973
0.539541
0.565239
0.596555
0.642723
0.685678
0.729042
0.774746
0.824909
0.391674
0.393913
0.396458
0.399373
0.402727
0.406568
0.410935
0.415841
0.421249
0.426814
0.431812
0.436694
0.441899
0.448331
0.456815
0.467566
0.480581
0.495939
0.511518
0.52571
0.538816
0.551361
0.379388
0.380844
0.382368
0.383968
0.38568
0.387547
0.389605
0.391889
0.394429
0.397227
0.400054
0.402779
0.405406
0.40805
0.410942
0.414523
0.419056
0.424298
0.430113
0.436105
0.441736
0.44655
0.450589
0.454007
0.374801
0.375641
0.376414
0.377147
0.377908
0.37874
0.379718
0.3809
0.382316
0.383935
0.385689
0.387476
0.389161
0.390735
0.392294
0.393978
0.395913
0.398108
0.400487
0.402897
0.405156
0.407027
0.408461
0.409478
0.371326
0.371422
0.371421
0.371428
0.371591
0.372027
0.37277
0.373711
0.37482
0.376067
0.377402
0.378763
0.38009
0.381352
0.382546
0.383699
0.384846
0.386014
0.387192
0.388341
0.389399
0.390207
0.390739
0.391002
0.366785
0.366364
0.365992
0.365772
0.365853
0.366313
0.367088
0.368057
0.369179
0.3704
0.371667
0.372933
0.37416
0.375325
0.376416
0.377434
0.378393
0.379311
0.380188
0.381006
0.381734
0.382339
0.382707
0.382849
0.363454
0.362728
0.362132
0.361774
0.361777
0.362252
0.362976
0.363908
0.364996
0.366176
0.367395
0.368608
0.369788
0.370912
0.371968
0.372949
0.373864
0.374729
0.375549
0.376311
0.376992
0.377574
0.378037
0.378306
0.361631
0.36076
0.360066
0.359639
0.359613
0.360025
0.360684
0.361553
0.362573
0.363682
0.364823
0.365954
0.367052
0.368102
0.369092
0.370013
0.370873
0.371691
0.37247
0.3732
0.373861
0.374434
0.374912
0.375286
0.361099
0.360163
0.359424
0.358975
0.358945
0.359323
0.359952
0.36079
0.361777
0.362848
0.363939
0.365008
0.366032
0.367004
0.367912
0.368751
0.369533
0.370277
0.370989
0.371658
0.372264
0.37279
0.373227
0.373575
0.360949
0.360015
0.359279
0.358833
0.35881
0.359188
0.35982
0.360662
0.361656
0.362731
0.363823
0.364883
0.365888
0.366827
0.367691
0.368477
0.369204
0.369895
0.370558
0.371182
0.371746
0.372234
0.372635
0.372947
0.360232
0.359547
0.359131
0.359123
0.359537
0.360202
0.361082
0.362114
0.363228
0.36436
0.365457
0.366488
0.367437
0.368292
0.369056
0.369753
0.37041
0.37104
0.371632
0.372165
0.37262
0.372983
0.373199
0.361833
0.361242
0.36089
0.360907
0.361386
0.362115
0.363058
0.36416
0.365344
0.366543
0.367701
0.368777
0.36975
0.370603
0.371342
0.371993
0.372587
0.373142
0.373651
0.374091
0.374399
0.374543
0.374528
0.365222
0.364845
0.364623
0.364699
0.365178
0.365961
0.366945
0.368082
0.369312
0.370559
0.371763
0.372871
0.373852
0.374679
0.375353
0.375861
0.376271
0.376635
0.376944
0.377155
0.377235
0.377165
0.376949
0.370235
0.370225
0.370223
0.370384
0.370831
0.371603
0.372551
0.373669
0.374916
0.376234
0.377532
0.378732
0.379767
0.380496
0.380991
0.381356
0.381686
0.382027
0.382349
0.382587
0.382691
0.382634
0.382416
0.375258
0.375985
0.376745
0.377584
0.378581
0.379791
0.381237
0.38288
0.384636
0.386337
0.38782
0.388994
0.389884
0.390607
0.391317
0.392112
0.393068
0.394051
0.394917
0.39557
0.395972
0.396134
0.381683
0.383292
0.385027
0.386934
0.38905
0.391412
0.394044
0.396887
0.399727
0.402422
0.404815
0.406841
0.40851
0.410201
0.41223
0.414755
0.417755
0.420861
0.423602
0.425811
0.427472
0.428677
0.394241
0.396855
0.399887
0.403414
0.407486
0.412128
0.417323
0.422968
0.428583
0.433579
0.43786
0.441484
0.445204
0.449597
0.455239
0.462518
0.471514
0.48037
0.488174
0.49468
0.499804
0.504181
0.415853
0.419687
0.424459
0.430352
0.437569
0.446229
0.456283
0.467366
0.478578
0.488085
0.49565
0.503158
0.511958
0.52392
0.539549
0.558776
0.58899
0.616149
0.640673
0.664256
0.688286
0.71261
0.456099
0.46294
0.470538
0.479183
0.490368
0.504517
0.521749
0.541258
0.561098
0.576713
0.575367
0.581984
0.598311
0.623479
0.659489
0.707259
0.880351
0.947158
1.01908
1.1004
1.18487
1.27636
0.527538
0.53677
0.54779
0.561162
0.576352
0.594967
0.618903
0.648532
0.650992
0.664085
0.690052
0.730558
0.792616
0.870054
0.969253
1.10492
1.27191
1.51208
1.5662
1.6691
1.80689
1.96481
0.59957
0.60714
0.616451
0.628512
0.645001
0.667563
0.699611
0.702699
0.724645
0.767728
0.831646
0.88194
1.02081
1.17325
1.43662
1.47368
1.29393
0.948826
0.929164
1.09973
1.35936
1.55597
0.610717
0.616048
0.6242
0.635408
0.650813
0.6755
0.719727
0.727635
0.778414
0.878814
0.959539
1.12598
1.13673
0.474739
0.414008
0.712279
0.801372
0.823804
0.887763
1.02111
1.11587
1.21258
0.533149
0.535107
0.538427
0.544074
0.554277
0.57518
0.587351
0.627489
0.713175
0.796497
1.01679
0.938314
0.329627
0.847923
0.967517
0.978208
1.01033
1.03403
1.07892
1.14733
0.470098
0.46552
0.46205
0.459853
0.461682
0.472226
0.496343
0.51221
0.580346
0.693235
0.817549
1.01962
1.12927
0.603244
0.650845
0.987064
1.09578
1.03462
1.14382
1.19633
1.27201
1.39992
0.410779
0.405554
0.401216
0.39745
0.394909
0.39553
0.405462
0.427264
0.447513
0.506266
0.5737
0.667267
0.806561
0.899755
1.08789
1.39813
1.67761
1.58034
1.67726
1.81746
2.02059
2.3251
0.354793
0.352698
0.355176
0.364067
0.376886
0.39027
0.424804
0.46664
0.513926
0.563318
0.617405
0.69185
0.669012
0.734212
0.81623
0.905038
0.995684
1.09417
0.383895
0.376253
0.371486
0.369486
0.3697
0.372799
0.37891
0.387003
0.396243
0.406093
0.416481
0.435089
0.452132
0.469615
0.487605
0.505409
0.522884
0.830023
0.839168
0.85044
0.865465
0.886675
0.916846
0.959004
0.977522
1.06154
1.20146
1.35329
1.17133
0.654303
0.670586
0.689047
0.711058
0.736351
0.766096
0.805934
0.861596
0.89081
0.976356
1.08204
1.15977
1.1563
1.09703
1.09193
1.13407
1.39248
0.481392
0.493247
0.506676
0.521492
0.5401
0.565169
0.598007
0.63888
0.684103
0.71483
0.775998
0.825917
0.860268
0.879436
0.89505
0.912098
0.948852
1.03986
0.419694
0.425067
0.431552
0.439992
0.450991
0.465172
0.48308
0.504786
0.528634
0.549118
0.565755
0.581332
0.596989
0.612955
0.629467
0.646654
0.66439
0.683081
0.707874
0.731685
0.757508
0.786499
0.396826
0.400157
0.404054
0.408728
0.41442
0.42133
0.429625
0.43931
0.449919
0.458987
0.467204
0.475298
0.483707
0.492562
0.502181
0.512854
0.524599
0.536804
0.548442
0.558582
0.567457
0.575492
0.384826
0.386898
0.389066
0.391372
0.393912
0.396781
0.400053
0.403773
0.407946
0.412446
0.416505
0.419895
0.423104
0.426396
0.429917
0.433858
0.438417
0.44374
0.449633
0.455557
0.460979
0.465702
0.469736
0.473187
0.382635
0.383931
0.385077
0.386136
0.387228
0.388454
0.38988
0.391575
0.393516
0.395645
0.397773
0.399579
0.401003
0.402192
0.403338
0.404555
0.405962
0.407684
0.409747
0.411968
0.414145
0.416127
0.417852
0.419319
0.380342
0.380756
0.380996
0.381215
0.38164
0.382354
0.383278
0.384396
0.385671
0.387044
0.38844
0.389763
0.390944
0.391902
0.3926
0.39313
0.393583
0.394067
0.394641
0.395264
0.39586
0.396366
0.396748
0.397002
0.374779
0.374466
0.374207
0.374135
0.374436
0.375138
0.37608
0.377214
0.378471
0.379785
0.381093
0.382347
0.383511
0.384555
0.385438
0.386173
0.386786
0.387304
0.387751
0.38812
0.388376
0.388493
0.388467
0.388304
0.369582
0.368811
0.368201
0.367867
0.36795
0.368493
0.369303
0.37033
0.371506
0.37276
0.374025
0.375254
0.376424
0.377516
0.378505
0.379377
0.380144
0.380835
0.381468
0.382029
0.382496
0.382827
0.38296
0.382917
0.366371
0.365335
0.364503
0.363963
0.363842
0.364196
0.364816
0.365656
0.366653
0.367736
0.368839
0.369914
0.370949
0.37194
0.372864
0.373705
0.374476
0.375205
0.375901
0.376547
0.377116
0.377585
0.377942
0.37812
0.365465
0.364263
0.363275
0.362586
0.362326
0.362559
0.36306
0.363784
0.364665
0.365625
0.366595
0.367523
0.368405
0.369248
0.370036
0.370756
0.371426
0.372076
0.372714
0.373319
0.373861
0.374321
0.374685
0.374921
0.365298
0.364095
0.363106
0.362418
0.36216
0.362389
0.362889
0.363615
0.364501
0.365468
0.366441
0.367364
0.36823
0.369043
0.369785
0.370452
0.371068
0.371668
0.37226
0.372823
0.373327
0.37375
0.374082
0.374274
0.364679
0.363857
0.363328
0.363224
0.363575
0.364196
0.365042
0.36605
0.36714
0.368238
0.369285
0.370258
0.371146
0.371934
0.372616
0.373223
0.373798
0.374354
0.374873
0.375324
0.375685
0.375905
0.375959
0.367702
0.367105
0.366784
0.366886
0.367426
0.368238
0.369275
0.370465
0.371728
0.372983
0.374167
0.375247
0.376209
0.377013
0.377647
0.378146
0.37857
0.378946
0.37925
0.379442
0.379497
0.379413
0.3792
0.373101
0.372849
0.372785
0.373098
0.373798
0.374749
0.375906
0.377197
0.378545
0.379871
0.381111
0.382212
0.383134
0.383814
0.384152
0.384237
0.384211
0.384161
0.384096
0.383985
0.383805
0.383545
0.383212
0.379417
0.379653
0.379868
0.380297
0.381006
0.381946
0.383104
0.384442
0.385896
0.387378
0.388778
0.38999
0.39082
0.391209
0.391291
0.391183
0.391031
0.39095
0.390951
0.390995
0.391039
0.391062
0.391056
0.383632
0.384698
0.38581
0.387077
0.388593
0.390418
0.392538
0.39489
0.397297
0.399407
0.400989
0.402163
0.403058
0.403735
0.404334
0.405024
0.405937
0.407041
0.408211
0.409355
0.410437
0.411452
0.387951
0.39032
0.392976
0.396032
0.399578
0.403677
0.408331
0.413405
0.418114
0.421909
0.425403
0.428653
0.431679
0.434535
0.437393
0.440526
0.44401
0.447621
0.451059
0.454173
0.456968
0.459506
0.40057
0.404769
0.409896
0.416219
0.423956
0.433253
0.44405
0.455775
0.465959
0.474618
0.482559
0.490125
0.497201
0.503847
0.51043
0.517294
0.524479
0.531421
0.537314
0.542108
0.546069
0.549466
0.430779
0.43809
0.447589
0.45986
0.475462
0.49475
0.517518
0.541921
0.562543
0.577957
0.591421
0.60372
0.614864
0.624515
0.633317
0.642068
0.650986
0.66173
0.670411
0.678301
0.686292
0.694335
0.507724
0.522785
0.539293
0.558577
0.583708
0.615578
0.654077
0.693986
0.691408
0.698291
0.714361
0.730691
0.742782
0.750868
0.757646
0.766385
0.784612
0.865245
0.90644
0.953134
1.00516
1.0577
0.66862
0.686793
0.708122
0.733239
0.761571
0.798681
0.84997
0.851719
0.880148
0.932562
0.983114
0.989701
0.975609
0.953304
0.942318
0.972659
1.10433
1.32685
1.77266
1.89692
1.99792
2.08973
0.812699
0.823544
0.837764
0.857574
0.886487
0.926483
0.92633
0.978641
1.08628
1.16787
1.27575
1.2219
1.17527
1.17059
1.15915
1.26307
1.54183
1.28977
1.38787
1.47842
1.5839
1.57041
0.902901
0.905086
0.911073
0.923405
0.946748
0.994998
1.00265
1.09828
1.19891
1.30906
1.04759
0.501242
0.648917
0.609395
0.85874
1.14018
1.22724
0.907828
0.910176
0.914637
0.922764
0.938396
0.974455
0.984029
1.09554
1.22247
1.08215
0.697533
0.820337
1.17354
1.38973
1.46924
0.72384
0.728244
0.734336
0.744405
0.762021
0.790531
0.818029
0.910761
1.03407
1.09795
1.00795
0.944602
1.61834
1.78434
2.69012
2.99396
2.98102
0.508756
0.510306
0.514586
0.52388
0.53987
0.568065
0.607124
0.652957
0.764635
0.852188
0.973251
0.965619
0.924401
0.876068
0.875382
1.06633
1.40161
2.05327
1.7286
1.97371
2.19795
2.40744
0.439293
0.451743
0.474137
0.502949
0.534178
0.599383
0.650201
0.667512
0.660978
0.642122
0.619677
0.604662
0.60972
0.579479
0.615041
0.654883
0.68887
0.72724
0.449632
0.452602
0.458903
0.466384
0.474655
0.481636
0.485471
0.486258
0.484354
0.480432
0.475813
0.471987
0.4693
0.467068
0.464685
0.462661
0.462072
1.0353
1.02963
1.02926
1.0344
1.04672
1.0682
1.10408
1.12868
1.19495
1.15471
1.06181
0.895335
0.906263
0.921616
0.942735
0.967095
0.99962
1.04322
1.0749
1.16372
1.23909
1.26815
1.20222
1.15
1.05999
0.986346
0.924356
0.940391
1.15535
0.593309
0.61644
0.640952
0.667279
0.701915
0.746775
0.801777
0.862856
0.908236
0.996654
1.03517
1.02621
1.00821
0.984675
0.95247
0.914176
0.881171
0.87318
0.448441
0.458353
0.469308
0.483213
0.501881
0.52694
0.558793
0.597766
0.642088
0.682899
0.716576
0.73929
0.753595
0.767318
0.773043
0.771431
0.76444
0.756172
0.749021
0.41419
0.419411
0.425442
0.432735
0.442105
0.454321
0.469895
0.489146
0.511688
0.535181
0.556989
0.576144
0.592577
0.607349
0.619481
0.631441
0.638357
0.641111
0.643465
0.645691
0.647518
0.649107
0.650865
0.4029
0.406253
0.40971
0.413542
0.418078
0.423613
0.430345
0.43836
0.447766
0.458105
0.468962
0.479227
0.489061
0.498581
0.507338
0.515036
0.521587
0.527268
0.53269
0.537878
0.542541
0.546727
0.55059
0.554337
0.403511
0.405659
0.407364
0.408929
0.410616
0.412616
0.415241
0.418252
0.421746
0.425723
0.429894
0.433915
0.437867
0.44182
0.445649
0.449067
0.452223
0.455279
0.458474
0.461888
0.465412
0.46876
0.471935
0.475002
0.401549
0.402468
0.402843
0.403088
0.403839
0.404912
0.406315
0.407899
0.40953
0.411279
0.413034
0.41464
0.416044
0.417321
0.418445
0.419288
0.419898
0.420494
0.421325
0.422487
0.423817
0.425229
0.426683
0.428164
0.391528
0.391354
0.391024
0.39089
0.391225
0.392123
0.393372
0.394825
0.396383
0.397968
0.399453
0.400791
0.401971
0.402984
0.403694
0.404063
0.404156
0.404152
0.404233
0.404465
0.404765
0.405063
0.405339
0.405591
0.379981
0.379034
0.3782
0.377636
0.377482
0.377879
0.378809
0.380018
0.381421
0.382919
0.384406
0.385784
0.38705
0.388211
0.389221
0.390014
0.390528
0.390931
0.391327
0.391728
0.392067
0.392289
0.392385
0.392366
0.372697
0.371219
0.369924
0.36889
0.368225
0.36811
0.368609
0.369425
0.37047
0.371634
0.372822
0.373937
0.374997
0.376023
0.376967
0.37779
0.378512
0.379197
0.379875
0.380535
0.381133
0.381567
0.381818
0.3819
0.371575
0.369686
0.367918
0.36638
0.365221
0.364637
0.364695
0.365226
0.365998
0.366893
0.367804
0.368626
0.369384
0.370126
0.370821
0.371439
0.372017
0.372611
0.373237
0.373872
0.374468
0.374961
0.375272
0.375411
0.371365
0.369473
0.3677
0.366159
0.364996
0.364397
0.364443
0.364964
0.365735
0.366635
0.367555
0.368386
0.369146
0.369867
0.370527
0.371099
0.371629
0.372182
0.372775
0.373379
0.373945
0.374406
0.374692
0.374812
0.370232
0.368943
0.367922
0.367271
0.367136
0.367617
0.368412
0.369448
0.370615
0.371809
0.37292
0.373937
0.374858
0.375657
0.37629
0.376782
0.377291
0.377862
0.378452
0.378968
0.379346
0.379567
0.379641
0.377268
0.37646
0.375929
0.375802
0.376211
0.377116
0.378307
0.379713
0.38123
0.382733
0.384114
0.385344
0.386406
0.38723
0.387668
0.387845
0.387973
0.388173
0.388444
0.388701
0.388889
0.388987
0.389006
0.389221
0.388932
0.38883
0.389185
0.39008
0.391316
0.392796
0.394412
0.396095
0.39771
0.399194
0.400504
0.401567
0.402215
0.402419
0.402278
0.402033
0.401899
0.401953
0.402166
0.40246
0.402792
0.403163
0.400749
0.401101
0.4013
0.401985
0.403011
0.404404
0.406076
0.407855
0.409858
0.411979
0.414164
0.41626
0.418066
0.419515
0.420505
0.421073
0.421533
0.42219
0.423186
0.42451
0.426023
0.42766
0.429419
0.405386
0.406942
0.408638
0.410737
0.41354
0.416924
0.420905
0.425602
0.430798
0.436249
0.441615
0.446777
0.451549
0.455575
0.458921
0.462079
0.465362
0.468845
0.472374
0.475807
0.479223
0.482676
0.407685
0.411806
0.416769
0.422903
0.430449
0.439567
0.450286
0.462431
0.475301
0.48797
0.500073
0.511495
0.521752
0.530378
0.537423
0.543217
0.548514
0.55324
0.557595
0.561801
0.565994
0.570219
0.427021
0.435394
0.446132
0.460022
0.47758
0.499049
0.523981
0.550581
0.575467
0.597061
0.615471
0.631601
0.644751
0.656752
0.66374
0.66488
0.665266
0.665747
0.666092
0.666676
0.667702
0.669226
0.482574
0.498151
0.518761
0.545891
0.579744
0.620221
0.665562
0.711756
0.747489
0.768612
0.780448
0.79272
0.796713
0.792454
0.781636
0.76844
0.755695
0.744855
0.735798
0.729703
0.726426
0.725865
0.637673
0.663451
0.691028
0.725523
0.769097
0.821081
0.877825
0.938238
0.936336
0.929257
0.917702
0.904655
0.889663
0.869747
0.844427
0.817684
0.794277
0.780511
0.764916
0.771357
0.784409
0.805024
0.889478
0.904488
0.92481
0.948419
0.979504
1.02174
1.02994
1.08214
1.14927
1.16182
1.11146
1.06348
1.01013
0.948427
0.886954
0.839009
0.826038
0.869549
1.0065
1.15214
1.21353
1.2837
1.00169
1.00229
1.00768
1.02022
1.04277
1.08197
1.10763
1.19942
1.25864
1.24593
1.23549
1.3076
1.27632
1.2142
1.17216
1.12911
1.32098
1.63202
1.78219
1.84202
1.42111
1.33553
1.01401
1.00071
0.993902
0.997495
1.00243
1.01161
1.06886
1.16132
1.09478
0.216946
0.451943
0.841839
1.0654
1.1046
0.817468
0.794312
0.77481
0.759206
0.744602
0.773439
0.847453
0.94408
0.828253
0.28738
0.789341
1.42014
1.95144
0.661459
0.655405
0.653138
0.657804
0.676723
0.713367
0.745345
0.847069
0.932972
0.877639
2.14811
2.47154
3.176
3.3365
0.496908
0.495552
0.497004
0.502717
0.517628
0.547148
0.567524
0.649766
0.7634
0.841663
0.867416
0.975953
1.01713
1.02062
1.02784
1.00089
0.928934
0.842699
1.00297
0.941574
1.08002
1.22688
0.461789
0.474689
0.494898
0.504033
0.546058
0.593595
0.620646
0.623787
0.613338
0.594234
0.571315
0.553171
0.544247
0.542656
0.541446
0.549061
0.558483
0.570806
0.468725
0.472351
0.477421
0.482625
0.487276
0.489812
0.490398
0.489424
0.486989
0.483086
0.479234
0.477596
0.477591
0.477331
0.476032
0.474117
0.472108
0.932537
0.896478
0.861119
0.82674
0.797461
0.774668
0.757387
0.76989
0.851725
0.883984
0.963034
0.957455
0.954182
0.949296
0.943765
0.940836
0.928104
0.913543
0.916223
0.963051
1.03495
1.00442
0.947328
0.923931
0.894633
0.834014
0.770571
0.758377
0.75493
0.775435
0.797746
0.825682
0.861885
0.908993
0.940414
0.96513
0.972729
0.970628
0.941996
0.916664
0.898945
0.878695
0.851998
0.817943
0.780699
0.750321
0.524756
0.53687
0.554237
0.580815
0.61743
0.66912
0.722887
0.77815
0.831499
0.878602
0.905888
0.89722
0.878021
0.862027
0.836906
0.813556
0.789594
0.765964
0.723097
0.464547
0.471885
0.479954
0.49118
0.509941
0.537404
0.572647
0.61452
0.662477
0.711281
0.7501
0.774157
0.788029
0.800225
0.801613
0.787218
0.761753
0.740106
0.726199
0.716868
0.710823
0.707837
0.707759
0.447222
0.451726
0.456129
0.461789
0.470204
0.48252
0.49939
0.519981
0.546034
0.574769
0.602517
0.627805
0.649879
0.669565
0.684321
0.694344
0.696164
0.692465
0.687295
0.683148
0.680693
0.680121
0.681347
0.684236
0.454876
0.457995
0.459303
0.460841
0.46334
0.467512
0.473795
0.482255
0.49261
0.504906
0.518485
0.532373
0.546306
0.560039
0.572644
0.584138
0.59172
0.596566
0.599213
0.601681
0.604128
0.606678
0.609529
0.612776
0.455429
0.456785
0.455849
0.454787
0.454731
0.455973
0.458293
0.461621
0.465821
0.470777
0.476189
0.481827
0.487973
0.494329
0.500649
0.506329
0.510833
0.514485
0.517598
0.520388
0.523036
0.525636
0.528278
0.531032
0.429817
0.430695
0.430675
0.429222
0.428281
0.428741
0.429877
0.432531
0.435285
0.438238
0.441299
0.444255
0.446924
0.449591
0.452338
0.455099
0.457647
0.459762
0.461562
0.46326
0.464906
0.466498
0.468033
0.469533
0.471005
0.399287
0.398778
0.398191
0.396774
0.395443
0.395487
0.396229
0.397819
0.400294
0.403158
0.40611
0.408903
0.411303
0.413494
0.415585
0.417518
0.419077
0.420184
0.421183
0.422269
0.423531
0.424736
0.425841
0.426837
0.427736
0.382865
0.380959
0.378866
0.376549
0.374404
0.373118
0.372493
0.372649
0.373699
0.375574
0.377693
0.379819
0.381729
0.383458
0.385223
0.38684
0.388104
0.389098
0.390144
0.391322
0.392534
0.393693
0.394704
0.395516
0.396125
0.386534
0.383322
0.379744
0.376422
0.373999
0.372208
0.371213
0.371147
0.371992
0.373235
0.37447
0.375488
0.376211
0.377011
0.377762
0.37825
0.378598
0.37911
0.3798
0.380594
0.381386
0.382071
0.382582
0.382895
0.386422
0.383192
0.379597
0.376249
0.373819
0.371999
0.370963
0.370869
0.371715
0.372956
0.374201
0.375256
0.376095
0.37692
0.377588
0.377943
0.378177
0.378623
0.379273
0.380039
0.380812
0.381491
0.382008
0.382341
0.379462
0.377314
0.374941
0.37273
0.371409
0.370621
0.370593
0.371466
0.373216
0.375253
0.377367
0.379337
0.381203
0.382982
0.384443
0.385448
0.386241
0.387175
0.388309
0.389543
0.390765
0.391882
0.392842
0.393636
0.394631
0.393252
0.391881
0.391855
0.392456
0.393863
0.396142
0.398855
0.401752
0.404615
0.407216
0.409628
0.412217
0.414154
0.415486
0.416386
0.417291
0.418401
0.419854
0.421324
0.422735
0.42408
0.425375
0.425818
0.424562
0.423758
0.424371
0.425534
0.428091
0.430783
0.433712
0.436906
0.440232
0.443501
0.44684
0.450576
0.45378
0.456686
0.459018
0.46108
0.463286
0.465515
0.467736
0.469897
0.472101
0.474389
0.454785
0.454075
0.452931
0.452669
0.453359
0.455431
0.458615
0.462919
0.468369
0.474747
0.481723
0.489378
0.497145
0.504726
0.511551
0.517121
0.521821
0.526239
0.530401
0.534386
0.538349
0.542433
0.546746
0.457685
0.459002
0.461445
0.465641
0.472155
0.481197
0.492916
0.507152
0.523284
0.540195
0.557054
0.573398
0.588513
0.60031
0.610927
0.61835
0.623411
0.627814
0.631968
0.63634
0.641178
0.646597
0.454875
0.461795
0.47164
0.485521
0.504239
0.527131
0.555974
0.588603
0.620614
0.649945
0.675808
0.698552
0.715428
0.727023
0.73028
0.728266
0.723655
0.720248
0.719001
0.720342
0.724278
0.729716
0.488407
0.502204
0.523263
0.552978
0.590586
0.634654
0.684597
0.734951
0.775148
0.800769
0.815397
0.828464
0.829648
0.808643
0.776971
0.763282
0.748919
0.739611
0.734587
0.733977
0.737684
0.745715
0.575894
0.604061
0.642495
0.69431
0.747429
0.800473
0.850437
0.89403
0.918762
0.90891
0.886189
0.864476
0.835005
0.81318
0.790404
0.76743
0.719715
0.713368
0.710862
0.716247
0.729461
0.751164
0.775181
0.799184
0.828622
0.86382
0.907581
0.935388
0.9554
0.96038
0.965852
0.934939
0.898107
0.872116
0.846714
0.819158
0.79012
0.760764
0.736858
0.71809
0.705105
0.744302
0.814294
0.896633
0.929752
0.926092
0.92067
0.915341
0.91322
0.905723
0.919782
0.941677
0.955005
0.937371
0.923696
0.904602
0.876694
0.843637
0.801393
0.759576
0.740434
0.738721
0.765891
0.829764
1.68462
1.77573
0.875721
0.842374
0.81196
0.787129
0.768444
0.777506
0.811153
0.875919
0.944683
1.07114
1.19889
1.14477
1.13184
0.905536
0.749156
0.742603
0.686082
0.808524
1.3256
1.97563
1.37716
1.21915
0.780527
0.749048
0.720529
0.700844
0.683987
0.698139
0.745067
0.888927
0.569236
0.989945
1.07281
1.18972
0.693451
0.682526
0.674403
0.669219
0.667996
0.677385
0.721039
0.874812
0.274981
0.765448
1.04419
2.10849
0.574826
0.572481
0.573344
0.578768
0.592395
0.603761
0.645858
0.761049
1.34736
2.0591
1.6745
1.72595
0.500373
0.499211
0.500696
0.506139
0.519887
0.543866
0.548962
0.613898
0.735675
0.92349
1.0879
1.0214
0.94533
0.919317
0.868545
0.930078
1.06097
0.904123
0.763139
0.7756
0.723708
0.756654
0.489594
0.498715
0.510445
0.518247
0.548778
0.5744
0.5785
0.574331
0.567803
0.561453
0.555904
0.551646
0.548554
0.54845
0.548089
0.529969
0.532659
0.534503
0.479451
0.482269
0.485353
0.487355
0.487891
0.487084
0.485428
0.482921
0.479417
0.475059
0.471643
0.472024
0.474214
0.47658
0.478539
0.479275
0.479164
0.688646
0.651592
0.618123
0.589513
0.56499
0.547956
0.556581
0.602596
0.743699
0.844103
0.78962
0.735902
0.685263
0.639609
0.600805
0.579678
0.595094
0.662099
0.802724
0.837372
0.820347
0.859961
0.943863
1.05849
1.00935
0.945741
1.05945
0.817727
0.812634
0.791228
0.753839
0.713091
0.682045
0.644074
0.624258
0.641645
0.688493
0.729824
0.755104
0.762276
0.778937
0.798351
0.773417
0.749683
0.756573
0.504588
0.534934
0.573589
0.616647
0.65538
0.66687
0.692471
0.701972
0.697681
0.695014
0.712897
0.737601
0.746187
0.747751
0.744249
0.731111
0.715623
0.696243
0.692454
0.790618
0.465224
0.462146
0.46375
0.4674
0.500183
0.526973
0.584328
0.636245
0.677629
0.706476
0.707448
0.719691
0.726272
0.731125
0.740865
0.740788
0.730531
0.711387
0.699029
0.711336
0.722117
0.733546
0.747539
0.490094
0.481275
0.471439
0.465596
0.470844
0.483655
0.501374
0.517641
0.551072
0.58284
0.61488
0.641853
0.663629
0.682515
0.691227
0.693846
0.697322
0.693813
0.665806
0.669817
0.675472
0.682783
0.69194
0.70311
0.531115
0.532416
0.525185
0.515758
0.50857
0.503297
0.501399
0.508224
0.519819
0.53521
0.552872
0.571967
0.590465
0.608912
0.62746
0.633333
0.639733
0.640715
0.628024
0.631006
0.635121
0.640629
0.647547
0.655813
0.62669
0.628881
0.623406
0.614318
0.604789
0.592219
0.578692
0.566396
0.555766
0.549125
0.54794
0.562953
0.567629
0.57501
0.583793
0.58899
0.590633
0.5907
0.592079
0.593927
0.596461
0.600003
0.604614
0.610228
0.580372
0.592938
0.604287
0.607429
0.604901
0.6518
0.644481
0.622903
0.59438
0.576865
0.565835
0.557375
0.573027
0.568124
0.565018
0.563321
0.56196
0.559349
0.556759
0.556345
0.556548
0.55718
0.558402
0.560291
0.562822
0.495133
0.501322
0.50787
0.508986
0.506282
0.545742
0.543291
0.541139
0.538701
0.53694
0.535749
0.533599
0.528811
0.523676
0.520164
0.517259
0.51381
0.509688
0.506104
0.504356
0.503912
0.50369
0.503704
0.503991
0.504544
0.404341
0.40433
0.40507
0.403957
0.401561
0.428639
0.428433
0.429325
0.431711
0.435969
0.441494
0.446085
0.448614
0.448206
0.448408
0.448519
0.44718
0.444841
0.442621
0.441623
0.441849
0.442076
0.442284
0.44249
0.442683
0.434894
0.434209
0.430047
0.423446
0.50486
0.49563
0.487516
0.481378
0.477681
0.476285
0.474614
0.471636
0.466168
0.461386
0.457199
0.451739
0.445622
0.43998
0.435781
0.433152
0.430841
0.428773
0.426916
0.425208
0.480652
0.482021
0.477501
0.468762
0.510459
0.500831
0.492195
0.485541
0.481392
0.479664
0.47771
0.474486
0.469054
0.464389
0.459906
0.453777
0.447044
0.44098
0.436458
0.433544
0.431016
0.4288
0.426865
0.42514
0.406718
0.405282
0.401742
0.396802
0.424028
0.422351
0.422404
0.423886
0.427318
0.432389
0.437016
0.440076
0.441102
0.44281
0.44306
0.441412
0.438925
0.436856
0.436142
0.43679
0.437508
0.438269
0.439087
0.439949
0.433923
0.434022
0.432096
0.525731
0.523742
0.52191
0.519683
0.518103
0.517513
0.516764
0.514516
0.512091
0.500951
0.503315
0.501238
0.49843
0.496311
0.496107
0.497276
0.49861
0.500128
0.501896
0.503935
0.541118
0.542545
0.540328
0.641233
0.635602
0.612653
0.580052
0.558126
0.544234
0.535756
0.573393
0.571357
0.55812
0.561987
0.562952
0.562191
0.56119
0.562276
0.563816
0.565636
0.567996
0.571071
0.574907
0.626806
0.630674
0.628191
0.624319
0.615889
0.605288
0.59358
0.5822
0.572938
0.566738
0.581444
0.588586
0.598138
0.607511
0.613447
0.615569
0.614799
0.614906
0.615642
0.617369
0.620514
0.625206
0.631423
0.57726
0.570916
0.565042
0.556957
0.548923
0.543908
0.54035
0.558477
0.580045
0.602679
0.622534
0.640096
0.656182
0.663673
0.653547
0.640573
0.645301
0.646558
0.649652
0.654941
0.662513
0.672396
0.494086
0.489729
0.488957
0.492987
0.502779
0.539748
0.575137
0.609135
0.642182
0.668537
0.687447
0.702237
0.706303
0.699081
0.692693
0.687789
0.668989
0.672154
0.678113
0.687092
0.699434
0.715541
0.464289
0.48673
0.519311
0.521697
0.547052
0.589695
0.636249
0.681038
0.723493
0.73381
0.735951
0.731866
0.735782
0.73684
0.730367
0.713473
0.699049
0.706183
0.721585
0.740357
0.764703
0.796287
0.583745
0.625652
0.663815
0.663046
0.686961
0.707685
0.720717
0.728339
0.744609
0.762124
0.76166
0.755373
0.74171
0.720681
0.702374
0.683721
0.676178
0.804365
0.821751
0.86147
0.912982
0.981477
0.798651
0.784051
0.752418
0.716603
0.70456
0.688918
0.674363
0.681279
0.708471
0.731562
0.732926
0.721725
0.717046
0.722953
0.702268
0.70649
0.734902
0.766849
0.797479
1.1913
1.30312
1.43955
0.786211
0.739415
0.694265
0.652361
0.611197
0.606082
0.620216
0.660793
0.708307
0.752025
0.781418
0.7988
0.865473
0.951145
0.870062
0.95993
1.07574
1.232
1.42981
1.76228
1.60297
1.11565
0.679434
0.648455
0.619338
0.592439
0.570414
0.575684
0.611526
0.68741
0.85081
1.04366
1.07799
1.16745
1.25262
1.2498
0.829051
0.350923
0.364496
0.432954
0.825299
1.08678
1.26267
0.993259
0.604679
0.590478
0.577995
0.567174
0.562616
0.572909
0.634972
0.746777
0.258119
0.792764
0.861274
1.14277
0.571301
0.564286
0.56083
0.561267
0.570192
0.582635
0.635158
0.670493
1.50694
1.28505
0.554195
0.551021
0.550466
0.555108
0.570122
0.581696
0.654414
0.908631
1.0494
1.18487
1.21672
0.983559
0.533563
0.533043
0.534641
0.54003
0.55096
0.555514
0.584653
0.655924
0.919536
1.10209
1.14091
0.869167
0.819475
0.788368
0.794337
0.903421
1.09447
1.10985
0.805564
0.757862
0.660543
0.653052
0.528321
0.53533
0.536621
0.555756
0.584039
0.594056
0.590419
0.577355
0.565052
0.554782
0.547569
0.547744
0.550689
0.550111
0.548916
0.534383
0.534844
0.535917
0.502477
0.505515
0.507704
0.508948
0.509039
0.507795
0.504799
0.50073
0.495731
0.490517
0.48736
0.487698
0.48968
0.491839
0.493609
0.494446
0.494737
0.531626
0.518876
0.507541
0.497443
0.489852
0.488307
0.501937
0.581512
0.776669
0.576457
0.547173
0.523319
0.504155
0.488494
0.482009
0.476798
0.509926
0.594132
0.742798
0.873552
1.01284
1.28785
0.520826
0.506295
0.497188
0.880101
1.00439
0.831687
0.758805
0.699948
0.64715
0.599199
0.53644
0.499548
0.480087
0.496079
0.568606
0.629216
0.778132
0.95876
1.39072
1.3312
0.636121
1.35364
1.43303
1.50005
0.602543
0.638893
0.670468
0.664088
0.653458
0.627419
0.59057
0.566756
0.565466
0.562326
0.619515
0.65712
0.706418
0.85062
1.08794
1.06951
0.998476
1.15147
1.29962
1.08438
0.370008
0.400665
0.450218
0.508037
0.561975
0.60347
0.628489
0.634236
0.629636
0.631275
0.643724
0.692147
0.683674
0.692642
0.709166
0.709318
0.744781
0.764972
0.873543
0.828181
0.820621
0.819928
0.828533
0.385721
0.389666
0.39229
0.400807
0.429687
0.477792
0.530112
0.572533
0.592687
0.60865
0.617189
0.622429
0.633823
0.648184
0.651408
0.654642
0.644608
0.657142
0.684509
0.690757
0.697181
0.705401
0.716554
0.525523
0.494581
0.466766
0.4443
0.426115
0.419453
0.430289
0.456875
0.497446
0.532804
0.556769
0.546189
0.554971
0.569166
0.591111
0.602459
0.600299
0.60081
0.605513
0.615709
0.624433
0.632855
0.641897
0.626669
0.595046
0.559864
0.528453
0.51092
0.497709
0.487732
0.482176
0.480028
0.484236
0.493261
0.504009
0.518386
0.533974
0.547603
0.559028
0.566881
0.567652
0.571132
0.564194
0.572371
0.579923
0.587339
0.594965
0.819688
0.814808
0.805831
0.772535
0.73508
0.705951
0.681541
0.665136
0.650194
0.635056
0.621713
0.607889