/*--------------------------------*- C++ -*----------------------------------*\
  =========                 |
  \\      /  F ield         | OpenFOAM: The Open Source CFD Toolbox
   \\    /   O peration     | Website:  https://openfoam.org
    \\  /    A nd           | Version:  13
     \\/     M anipulation  |
\*---------------------------------------------------------------------------*/
FoamFile
{
    format      ascii;
    class       volScalarField;
    location    "800";
    object      nut;
}
// * * * * * * * * * * * * * * * * * * * * * * * * * * * * * * * * * * * * * //

dimensions      [0 2 -1 0 0 0 0];

internalField   nonuniform List<scalar> 
171247
(
0.00111757
0.000234433
0.00671853
0.00673906
0.00668047
0.00651386
0.00621015
0.00575813
0.00518954
0.00447537
0.00567005
0.00397955
0.00334285
0.00356066
0.00192074
0.00180515
0.000832403
0.00204868
0.00737475
0.00722971
0.00703369
0.00676592
0.00642517
0.00602935
0.00565582
0.00539566
0.00496879
0.00718117
0.00583923
0.00535506
0.00371478
0.00264241
0.00229337
0.00180162
0.00176094
0.00876486
0.00842095
0.00806293
0.00768713
0.00731696
0.00701798
0.0068252
0.00688785
0.00752144
0.00921784
0.00893786
0.00875752
0.0064827
0.00494724
0.00414826
0.00382999
0.00344237
0.00397586
0.0102654
0.00987845
0.00952701
0.00920205
0.0089091
0.00873259
0.00881223
0.00932662
0.01054
0.0132159
0.0132175
0.0128147
0.0124239
0.0109137
0.00901653
0.00775256
0.00739417
0.00740154
0.00708976
0.00662159
0.0058126
0.00522821
0.0117771
0.0115907
0.0114641
0.01135
0.0113168
0.0114901
0.0119908
0.0129743
0.0146337
0.0161861
0.0157694
0.0153567
0.0149564
0.0145622
0.0141417
0.0125831
0.0109991
0.010645
0.011256
0.0106689
0.010115
0.00968399
0.0138649
0.0139021
0.0141188
0.0144375
0.0147945
0.015218
0.0157731
0.0164901
0.0173444
0.0182306
0.0179999
0.0177411
0.0174657
0.0171826
0.0168962
0.0166072
0.0163083
0.0147569
0.0141227
0.0142057
0.0147789
0.0143904
0.0140345
0.013716
0.0163746
0.0169579
0.0178263
0.0187164
0.019322
0.0193047
0.0192749
0.0192336
0.0191759
0.0188736
0.0187257
0.0188882
0.0187732
0.0186332
0.0184839
0.0183286
0.0181696
0.017865
0.0171083
0.0171751
0.0174808
0.0173012
0.0171239
0.0169519
0.0194925
0.0194952
0.0194939
0.0194918
0.019492
0.0194938
0.0194975
0.018927
0.0180203
0.0173517
0.0170064
0.0170168
0.017288
0.0176884
0.0180617
0.0182845
0.0183104
0.0181914
0.0181253
0.0183558
0.0189218
0.018852
0.0187793
0.0187042
0.0193711
0.0193733
0.0193777
0.0193866
0.0194013
0.0194233
0.0184737
0.0170899
0.0161504
0.0156029
0.015392
0.0154258
0.0156523
0.0160145
0.0164545
0.0168959
0.017246
0.0174714
0.0176796
0.0180415
0.0186493
0.0194764
0.0194598
0.0194385
0.0191537
0.0191513
0.0191545
0.0191637
0.0191816
0.0192108
0.0172618
0.0158783
0.0150152
0.0145623
0.014408
0.0144687
0.0146731
0.0149823
0.0153866
0.0158387
0.0162456
0.0165527
0.0168262
0.0172028
0.0177617
0.0185019
0.0193894
0.0195401
0.0189437
0.0189365
0.0189348
0.0189398
0.0189547
0.018361
0.0164572
0.0151543
0.0143569
0.0139507
0.013841
0.0139343
0.0141422
0.0144233
0.0147917
0.0152192
0.0156087
0.0159016
0.0161582
0.0165012
0.017
0.0176505
0.0184168
0.019267
0.0187973
0.0187857
0.0187792
0.0187796
0.0187901
0.0177884
0.0159503
0.0146929
0.0139252
0.0135559
0.0134923
0.0136367
0.0138873
0.0141933
0.0145724
0.0150016
0.015381
0.0156557
0.0158933
0.0162149
0.0166853
0.0172951
0.0180084
0.018796
0.0187976
0.0187858
0.0187791
0.0187794
0.0187897
0.0177224
0.0158802
0.0146211
0.0138537
0.013493
0.0134509
0.0136324
0.0139361
0.0143078
0.0147538
0.0152329
0.0156308
0.015895
0.0161106
0.0164128
0.0168692
0.0174703
0.0181794
0.0189648
0.0189325
0.0189307
0.0189357
0.0189507
0.0181721
0.0162765
0.0149682
0.0141838
0.0138162
0.0137839
0.0140012
0.0143795
0.0148667
0.0154529
0.0160519
0.0165229
0.0168056
0.017005
0.0172893
0.0177458
0.0183675
0.0191168
0.0193243
0.0191414
0.0191448
0.019154
0.0191723
0.0189821
0.0170098
0.0156284
0.014776
0.0143945
0.0143751
0.0146442
0.0151282
0.0157714
0.0165645
0.0173658
0.0179861
0.0183399
0.0185482
0.0188337
0.0193237
0.0195246
0.0195317
0.0195347
0.0193599
0.019365
0.0193746
0.0193902
0.0194141
0.0182157
0.0168141
0.0159036
0.0154264
0.0153896
0.0157022
0.0163256
0.0172001
0.0182574
0.0192973
0.0195392
0.0195309
0.0195203
0.0195077
0.0194927
0.0194748
0.0194538
0.0194297
0.0194916
0.019492
0.0194921
0.0194946
0.0194995
0.0195069
0.0187112
0.0178331
0.0172689
0.0170787
0.0173891
0.0181453
0.0192826
0.0193266
0.0192667
0.0192018
0.0191352
0.0190688
0.0190032
0.0189382
0.0188734
0.0188085
0.0187431
0.0178492
0.0187352
0.0193474
0.0193337
0.0193071
0.0192678
0.0192126
0.0190689
0.0190448
0.0189316
0.0188012
0.0186571
0.0185037
0.0183458
0.0181878
0.0180326
0.0178824
0.017737
0.0175972
0.0174633
0.0173354
0.017213
0.0140971
0.0144055
0.01477
0.0152231
0.0158334
0.0166416
0.0176228
0.0182345
0.0179886
0.0177177
0.0174334
0.0171467
0.0168623
0.0165857
0.0163179
0.0160555
0.0157874
0.0155165
0.0152523
0.0150048
0.0147788
0.0145751
0.0115025
0.0113631
0.0112333
0.0111866
0.0113534
0.0118616
0.0128763
0.0146517
0.0160465
0.0156101
0.0151922
0.0148
0.0144348
0.0140835
0.0137258
0.0133363
0.012817
0.0122673
0.0117658
0.0113423
0.010998
0.0107262
0.00957406
0.00921846
0.0088959
0.00862328
0.00846147
0.00855482
0.00908857
0.0103585
0.0128508
0.0128989
0.012508
0.0121585
0.0118108
0.0114219
0.0101488
0.00904915
0.00856714
0.00812985
0.00756974
0.00721279
0.00700205
0.00651905
0.00791853
0.007605
0.00728489
0.00697179
0.00674114
0.00663448
0.00677343
0.00744705
0.00771283
0.0103607
0.0103382
0.0102102
0.00914962
0.00743389
0.00618844
0.00562337
0.00487806
0.00442409
0.00377471
0.0034193
0.00344882
0.00351507
0.00704616
0.00688857
0.0066683
0.00637732
0.00603684
0.00568855
0.00543186
0.00497502
0.00747436
0.00703294
0.00578669
0.00491624
0.00411517
0.00367953
0.00327741
0.00278576
0.0027308
0.00250471
0.00305266
0.00346991
0.00413364
0.00489931
0.00693011
0.00686434
0.00668737
0.00637375
0.00589488
0.00528808
0.00450884
0.00654044
0.00456299
0.00425112
0.00401661
0.00279641
0.00208388
0.00204038
0.0015626
0.00181654
0.00288482
0.00499885
0.00643135
0.00668731
0.00708413
0.00751674
0.00651804
0.00667853
0.00683445
0.00644662
0.00588678
0.00500911
0.00397897
0.00517208
0.00330893
0.00254599
0.00211457
0.00166529
0.00058289
0.000717116
0.00157242
0.00536831
0.00698887
0.00664391
0.0064754
0.00657882
0.00721499
0.00764658
0.00502396
0.00520692
0.00538508
0.00556
0.0057365
0.0059275
0.0060571
0.00337908
0.00244306
0.00303405
0.00113435
0.000340833
0.00052261
0.00390189
0.00795046
0.00797425
0.00825392
0.00850842
0.00871505
0.00898468
0.00384633
0.00399786
0.00415024
0.00430497
0.00447482
0.00468135
0.00493209
0.00512072
0.00305038
0.0027916
0.00223342
0.00148239
0.000790913
0.000689669
0.00291209
0.00724189
0.00801584
0.00929718
0.00952524
0.0099139
0.0103371
0.0108747
0.00298868
0.00310596
0.00322764
0.00335428
0.00349121
0.00365097
0.00386604
0.00412495
0.00435095
0.00473566
0.00483035
0.00329048
0.00259042
0.00228803
0.00186195
0.00191496
0.00215331
0.00260507
0.00326059
0.00371261
0.00432016
0.00519219
0.00296925
0.00306846
0.00320249
0.00338129
0.00357296
0.00374605
0.00408131
0.00428617
0.00422539
0.00377689
0.00325876
0.00294057
0.00294737
0.00308492
0.00318613
0.00293206
0.00298805
0.00305521
0.00359694
0.00356141
0.00355654
0.00358135
0.00361885
0.00367711
0.00374397
0.00379548
0.00381045
0.00377924
0.0037103
0.0035767
0.00351066
0.00349916
0.00352525
0.00357865
0.00365227
0.00546034
0.00554899
0.0055715
0.00550445
0.00533037
0.00502176
0.00459647
0.00478773
0.00347483
0.00299679
0.00171446
0.000482973
0.00552961
0.0055197
0.00546714
0.00535723
0.00519544
0.00498621
0.0047562
0.00417836
0.00511973
0.00453941
0.00444858
0.00312346
0.00264618
0.00190706
0.00170202
0.00176319
0.00168248
0.00647088
0.00619073
0.00591828
0.00565157
0.00541
0.00524857
0.00517822
0.00535492
0.00516468
0.0067526
0.0072294
0.00724986
0.00685408
0.00617613
0.00561858
0.0049001
0.00429037
0.00403708
0.00865553
0.00812913
0.00765026
0.00721485
0.00684619
0.00663478
0.00664908
0.00699991
0.0080837
0.00913561
0.00897152
0.00882359
0.00869206
0.00855209
0.00837329
0.00812891
0.00769906
0.00739621
0.00688437
0.00659081
0.00644311
0.00639383
0.0107901
0.0103518
0.0099407
0.0095019
0.00914266
0.00901415
0.00919156
0.00982606
0.0112065
0.0113821
0.0110389
0.0107525
0.010518
0.0103185
0.0101384
0.0099629
0.00977888
0.00957023
0.00932692
0.00909888
0.00890835
0.00875826
0.0130504
0.0128444
0.0127491
0.0126287
0.0124448
0.0122964
0.0123145
0.0126013
0.0132576
0.014504
0.0141975
0.0137999
0.0134361
0.0131128
0.0128275
0.0125765
0.0123562
0.0121621
0.0119882
0.0118279
0.011683
0.0115545
0.0114426
0.0113457
0.0150849
0.0154654
0.0160143
0.0163109
0.0161851
0.0158517
0.0155195
0.0153474
0.0153947
0.0157779
0.0164451
0.0161757
0.0159039
0.0156396
0.0153893
0.0151568
0.0149451
0.0147567
0.0145914
0.0144475
0.0143228
0.0142149
0.0141209
0.0140381
0.0186157
0.0185169
0.0184279
0.0183576
0.018299
0.0178244
0.0167449
0.0159764
0.0155406
0.015416
0.015623
0.0160978
0.0167874
0.0173712
0.0172296
0.0170893
0.0169541
0.016828
0.0167132
0.01661
0.0165176
0.0164343
0.0163588
0.0162895
0.01852
0.018471
0.0184372
0.0184168
0.018403
0.0178
0.0162314
0.0152121
0.0146573
0.0144563
0.0145441
0.014815
0.0152324
0.0157707
0.016503
0.0172149
0.0178191
0.0179737
0.0179271
0.0178825
0.0178397
0.0177983
0.0177578
0.0177179
0.0180696
0.0180439
0.0180359
0.0180366
0.0180486
0.0175629
0.0158984
0.0147713
0.0141092
0.0138256
0.0138328
0.0140272
0.0143024
0.0146517
0.0151435
0.0157331
0.0162545
0.0165896
0.0168346
0.0171888
0.0177434
0.0182446
0.0182439
0.0182398
0.0175892
0.0175678
0.0175589
0.0175602
0.0175745
0.0172038
0.0155348
0.0143996
0.0137207
0.0134245
0.0134233
0.0136267
0.0138665
0.0141174
0.0144896
0.0149611
0.0153612
0.0155975
0.0157736
0.0160678
0.0165581
0.0172099
0.0179637
0.018103
0.0171625
0.0171397
0.0171258
0.0171226
0.017133
0.0168164
0.015133
0.0139975
0.0133267
0.0130504
0.013088
0.0133487
0.0136326
0.0138873
0.0142318
0.0146579
0.0149925
0.015164
0.0152897
0.0155378
0.0159762
0.0165697
0.0172608
0.0177078
0.0171649
0.0171414
0.0171267
0.0171228
0.0171324
0.0167633
0.0150735
0.0139246
0.013244
0.0129662
0.0130149
0.0133053
0.0136431
0.0139727
0.0143933
0.0148734
0.0152175
0.0153645
0.0154624
0.015692
0.016119
0.0167034
0.0173843
0.0177023
0.0175671
0.0175579
0.017559
0.0175735
0.0170393
0.0153704
0.01422
0.0135358
0.0132583
0.0133153
0.013633
0.0140514
0.0145284
0.0151269
0.0157685
0.0162189
0.0163973
0.0164849
0.0167062
0.0171427
0.0177515
0.0180793
0.0180987
0.0180439
0.0180367
0.0180385
0.018052
0.0173427
0.0156706
0.014529
0.0138703
0.0136282
0.013742
0.0141287
0.0146767
0.0153094
0.0161883
0.0171344
0.0178483
0.0181671
0.018258
0.0182609
0.0182616
0.0182595
0.0182546
0.0182469
0.018476
0.0184461
0.0184295
0.0184202
0.0176153
0.0160054
0.0149413
0.0143645
0.0141911
0.014389
0.0148848
0.0156565
0.0166052
0.0179354
0.0181365
0.0180819
0.0180271
0.0179749
0.0179259
0.0178795
0.0178351
0.0177921
0.0177501
0.0185541
0.0184724
0.0184102
0.0183601
0.0176842
0.0165225
0.015673
0.0151758
0.0150315
0.0152967
0.0159653
0.0170576
0.0174903
0.0173451
0.0171995
0.0170587
0.0169274
0.0168088
0.0167032
0.0166097
0.0165267
0.0164523
0.0163844
0.016036
0.0163028
0.0161488
0.0157605
0.0153484
0.0150883
0.0150442
0.0153418
0.0161274
0.0163079
0.0160245
0.0157498
0.0154913
0.0152527
0.0150377
0.0148492
0.0146882
0.0145531
0.0144412
0.0143493
0.014273
0.0142079
0.0127487
0.0125846
0.0123667
0.0121817
0.0121498
0.0123704
0.0129316
0.0140346
0.0142198
0.0137966
0.0134173
0.0130871
0.012802
0.0125567
0.0123478
0.012174
0.0120314
0.0119149
0.0118217
0.0117491
0.0116928
0.0116483
0.0102387
0.00978822
0.00931236
0.00891736
0.00874616
0.008866
0.0094011
0.0105985
0.0112021
0.0108549
0.0105762
0.0103546
0.0101723
0.010018
0.00988314
0.00976322
0.00964903
0.00952427
0.0094096
0.00931715
0.00924725
0.00919617
0.00768844
0.0072232
0.00681019
0.00647656
0.00628754
0.0063138
0.00664658
0.00758655
0.00857974
0.00873076
0.00859985
0.0084887
0.00837899
0.00825681
0.00811431
0.00794447
0.00771864
0.0073414
0.00708264
0.00692496
0.00683997
0.00680476
0.00575624
0.00554262
0.00533795
0.00514647
0.00504223
0.00502921
0.00522713
0.00544396
0.00763072
0.00763477
0.00759761
0.00748874
0.00730841
0.00705501
0.00673241
0.00632417
0.00577968
0.00459092
0.00464269
0.00478082
0.00471897
0.00446425
0.00534105
0.00530849
0.00522253
0.0050969
0.00491251
0.00471919
0.004166
0.00669454
0.00524463
0.00569599
0.00480805
0.00506284
0.00449015
0.0039492
0.00357618
0.00326824
0.00323397
0.00359222
0.00438592
0.00511666
0.00566799
0.0059849
0.00550279
0.00551681
0.00544695
0.0052726
0.00496716
0.00455681
0.00707383
0.00384674
0.00357414
0.00456677
0.00164779
0.00199559
0.00123827
0.00181292
0.00141979
0.00128399
0.00182144
0.00259431
0.00311651
0.0058962
0.00581269
0.00639585
0.00582318
0.00583107
0.0057348
0.00550105
0.00503426
0.00417988
0.00584109
0.00318979
0.00348289
0.00199179
9.27274e-05
0.000906202
0.00398777
0.00352496
0.00427233
0.00582947
0.00649517
0.00533507
0.00536744
0.00532414
0.00517513
0.00479153
0.00395964
0.00505608
0.00283191
0.00208633
0.00100799
0.00357079
0.00429564
0.0062622
0.00841299
0.00910299
0.00452903
0.00473269
0.00493457
0.00514267
0.0053698
0.00519528
0.00528129
0.00341114
0.00277838
0.00194246
0.000132155
0.00250601
0.00711703
0.00839016
0.00948871
0.00749107
0.0080535
0.00331308
0.00346824
0.0036353
0.00382536
0.00404887
0.00432903
0.00464314
0.00423789
0.0040221
0.00442801
0.00236737
0.00176991
0.00122063
0.00112378
0.00136237
0.00165868
0.00235306
0.00382953
0.00426719
0.00491563
0.00525036
0.00555225
0.00347494
0.00363238
0.00384953
0.00374086
0.00415188
0.00455661
0.00442622
0.00387653
0.00348992
0.00316457
0.00290098
0.00266906
0.00258069
0.00293536
0.00308665
0.00326869
0.00344745
0.00344909
0.0043705
0.00420844
0.0042596
0.00409405
0.00445979
0.00447554
0.00445078
0.0044007
0.00433249
0.00425627
0.00418398
0.00411876
0.00405725
0.00403395
0.00404798
0.00408527
0.00413927
0.00670469
0.00688146
0.00698089
0.0067433
0.00640662
0.00578886
0.00484014
0.0040655
0.0029871
0.00166154
0.000123502
0.00599783
0.00603704
0.00600426
0.0059308
0.00575299
0.0054832
0.0052343
0.00505197
0.00413688
0.00419052
0.00282482
0.00217295
0.00190012
0.00174001
0.00163717
0.00156747
0.00164152
0.00180066
0.0047422
0.00478941
0.00480254
0.00477211
0.00477058
0.00478734
0.00488895
0.00494542
0.00584189
0.00631881
0.00688166
0.00621724
0.00571826
0.00530033
0.00487469
0.00445101
0.00406283
0.00377533
0.00579339
0.00548905
0.00523784
0.00500375
0.00480648
0.00469319
0.00472549
0.0049023
0.00535905
0.00590821
0.00705699
0.00711407
0.00712862
0.00713347
0.00708715
0.0069901
0.00685582
0.00670421
0.00653968
0.00823337
0.00773669
0.00728015
0.00677975
0.00627777
0.00591942
0.00579039
0.00585849
0.00619863
0.00685272
0.00749525
0.00749342
0.00751082
0.00754206
0.00757016
0.00741443
0.00761612
0.00761593
0.00761325
0.00760334
0.00758646
0.00757413
0.00757093
0.0106189
0.0103095
0.00986327
0.00921267
0.00855787
0.00804457
0.00778384
0.00780648
0.00794155
0.00839775
0.00895623
0.00880675
0.00870034
0.00863012
0.00858509
0.00856046
0.00855147
0.00855917
0.00858281
0.00847938
0.00825469
0.00813712
0.00806392
0.00800753
0.0125762
0.0127544
0.0127416
0.0120704
0.011223
0.0105272
0.0100651
0.010241
0.0104935
0.0107825
0.011015
0.0108046
0.0106233
0.0104724
0.0103492
0.0102543
0.0101844
0.0101402
0.0101195
0.0101202
0.0101371
0.00991583
0.00974087
0.00961136
0.0148964
0.0145614
0.0143139
0.0141565
0.0140149
0.012904
0.0120161
0.01174
0.012033
0.0122195
0.0127594
0.0128942
0.0127342
0.0125882
0.012457
0.0123412
0.0122432
0.0121656
0.0121108
0.0120781
0.0120622
0.0120591
0.0120651
0.0120774
0.0154328
0.0152448
0.0151243
0.0150296
0.0149419
0.0148674
0.0135114
0.0127877
0.0124462
0.0124001
0.0128051
0.0133645
0.0138952
0.0142704
0.0141979
0.0141277
0.0140634
0.0140099
0.0139705
0.0139445
0.0139284
0.0139192
0.0139152
0.0139146
0.0149854
0.014916
0.0148885
0.0148746
0.0148653
0.0148708
0.0145627
0.0135077
0.0128934
0.0126469
0.0127508
0.0131832
0.0135867
0.0139218
0.0144442
0.0150211
0.0150267
0.0150347
0.0150472
0.015064
0.0150829
0.015102
0.0151198
0.0151362
0.0142183
0.0141898
0.0141845
0.0141964
0.0142248
0.0142717
0.0143354
0.0132863
0.0125578
0.0122918
0.0123525
0.0127549
0.0130619
0.0132691
0.0136714
0.0142594
0.0147252
0.0148623
0.0148472
0.0149118
0.0152157
0.0153045
0.0153569
0.0154045
0.0132274
0.0132119
0.0132137
0.0132327
0.0132689
0.0133259
0.0134022
0.0128501
0.0120588
0.0117754
0.0118597
0.0123336
0.0127262
0.0129383
0.0132782
0.0137647
0.0140857
0.0141141
0.0140477
0.0140991
0.0143848
0.0147442
0.0148252
0.0149009
0.0132222
0.0132052
0.0132056
0.0132229
0.0132576
0.013313
0.0133878
0.0127869
0.0119694
0.0116611
0.0117307
0.0122032
0.0126384
0.0129478
0.0133753
0.0139165
0.0142194
0.0141963
0.0140957
0.0141306
0.0144069
0.0147312
0.0148125
0.0148885
0.0141837
0.0141793
0.0141924
0.0142227
0.0142713
0.0143373
0.0131519
0.012381
0.012083
0.0121447
0.0126097
0.0131126
0.0136725
0.0143384
0.0149554
0.015013
0.0150716
0.0151322
0.015193
0.0152517
0.0153066
0.0153569
0.0154027
0.0149535
0.0149301
0.0149212
0.0149213
0.0149357
0.0144133
0.0133412
0.0126673
0.0123981
0.0125566
0.0131056
0.0137836
0.0145436
0.015117
0.0151151
0.0151105
0.0151094
0.0151142
0.0151239
0.0151364
0.0151494
0.0151616
0.0151726
0.0153537
0.01524
0.0151519
0.0150693
0.0149015
0.0134909
0.0126298
0.0122239
0.0120835
0.0124309
0.0130501
0.0138517
0.0144516
0.0143713
0.0142887
0.0142102
0.0141426
0.0140902
0.0140525
0.0140263
0.0140081
0.0139955
0.0139867
0.0146817
0.0144418
0.0142962
0.0141686
0.013045
0.0120739
0.0115806
0.0117804
0.0117762
0.0121273
0.0126044
0.0129672
0.0128138
0.0126696
0.012538
0.0124233
0.0123294
0.0122598
0.012214
0.0121877
0.0121756
0.012173
0.0121766
0.0130295
0.012329
0.011436
0.010669
0.0101199
0.0100599
0.0102591
0.0103077
0.0105989
0.0109511
0.0108293
0.0106608
0.01052
0.0104058
0.0103196
0.0102618
0.0102296
0.0102216
0.00999724
0.00958422
0.00927611
0.00908326
0.0100095
0.00930128
0.0085993
0.00803588
0.00771584
0.00761286
0.00768947
0.00795362
0.00843017
0.00874996
0.00876462
0.00867796
0.00863936
0.00860665
0.00859089
0.00859346
0.00861221
0.00820525
0.00788548
0.00762861
0.00746768
0.00740907
0.0071645
0.00664766
0.00614108
0.005773
0.00562319
0.00565704
0.0059158
0.00646238
0.00714049
0.00749488
0.00751077
0.00748322
0.00756875
0.00697956
0.00751692
0.00763098
0.00765055
0.0076439
0.00739796
0.00719973
0.00707909
0.007045
0.00498005
0.0047763
0.00461281
0.00452835
0.0045771
0.00476673
0.00513959
0.0059727
0.00672351
0.00708702
0.00709456
0.00707817
0.00706758
0.00699075
0.006889
0.00678587
0.00668658
0.00658555
0.00644819
0.00636908
0.00633458
0.00633213
0.00471709
0.00475104
0.00474141
0.00475123
0.00477082
0.00488183
0.00497154
0.00515574
0.0071395
0.00705545
0.00684485
0.00662564
0.0063992
0.00614244
0.00586622
0.00559566
0.00534391
0.00504533
0.00418405
0.00424309
0.00435724
0.00451659
0.00597026
0.0059502
0.00586273
0.0056958
0.00545538
0.00521711
0.00639625
0.00489188
0.00518276
0.00577821
0.00468515
0.00418243
0.00381438
0.00347581
0.00319545
0.00299686
0.00289771
0.00293626
0.00329973
0.00355605
0.00395741
0.00441014
0.00673871
0.00686017
0.00665965
0.00634302
0.00575927
0.00482242
0.00497565
0.00367975
0.00381279
0.00248149
0.00176181
0.00136674
0.00131731
0.0012794
0.00127036
0.00143751
0.00137641
0.00198533
0.00371884
0.00461414
0.00470904
0.00507441
0.00686036
0.00700769
0.00717883
0.00737549
0.00667399
0.00698709
0.00388416
0.00258811
0.00198502
0.000457319
0.00217218
0.00304344
0.00461184
0.00528379
0.00606304
0.00613772
0.00621936
0.00631205
0.00640811
0.00462763
0.0031723
0.00243743
0.000406871
0.00100995
0.00351217
0.00672063
0.00908968
0.00417077
0.00430611
0.00445324
0.00463157
0.00487403
0.00428295
0.00311332
0.00219825
0.00166829
0.00150261
0.00380205
0.00582379
0.00871924
0.0101437
0.00322169
0.00332887
0.00344451
0.0035776
0.0037613
0.00402433
0.00421074
0.0026922
0.00264108
0.00189086
0.000827403
0.00130692
0.00125097
0.00124783
0.00128903
0.00165675
0.0014573
0.00207921
0.00262662
0.00331893
0.00391939
0.00459025
0.00405518
0.00416031
0.00387661
0.00430627
0.00344217
0.00394655
0.0040258
0.00381476
0.00360504
0.00341018
0.00325214
0.00317926
0.00314905
0.00315961
0.00379807
0.00387727
0.00398241
0.00411705
0.00561833
0.00537044
0.00495508
0.00526369
0.00552598
0.00544253
0.00537532
0.00531502
0.00525886
0.00521097
0.00518861
0.00519987
0.00523191
0.00527314
0.00532377
0.00538689
0.00546456
0.00609881
0.00613511
0.00615029
0.00614132
0.00612775
0.00611507
0.00603496
0.00297239
0.00208487
0.000284217
0.00602625
0.00620009
0.00638556
0.00656528
0.00673843
0.00690741
0.00532471
0.00404476
0.00329515
0.00231641
0.0017942
0.0016828
0.00169745
0.00202039
0.00201178
0.0017054
0.00154814
0.00151145
0.00500022
0.00521744
0.00545924
0.00574352
0.00608182
0.00606623
0.00567155
0.00507922
0.00506522
0.00586421
0.00481888
0.00432716
0.00410162
0.00392018
0.00371929
0.0035306
0.00336213
0.00322408
0.00465274
0.00467623
0.0047498
0.00489
0.00509943
0.00538601
0.00502778
0.00493088
0.00517333
0.00549424
0.00668915
0.00651506
0.00626682
0.00608523
0.00579256
0.00555826
0.00537637
0.00524894
0.00502083
0.00553571
0.00505383
0.00500236
0.00527033
0.00529072
0.00461781
0.00469431
0.00475331
0.00521937
0.0057784
0.00641821
0.00655496
0.00662379
0.0064388
0.00663752
0.00666073
0.00659186
0.00644987
0.0063863
0.006359
0.00635841
0.00637555
0.00640895
0.00602623
0.00583279
0.00556185
0.00531085
0.00513806
0.00505421
0.00510823
0.00551579
0.00600405
0.00625556
0.00639531
0.00653792
0.00667291
0.00680166
0.00690963
0.00631588
0.00703138
0.00710245
0.00714587
0.0071987
0.00726181
0.00733427
0.0074139
0.00749808
0.00736747
0.0071323
0.00697564
0.00689322
0.00639976
0.00590991
0.00556284
0.00541359
0.00563182
0.00595936
0.00632334
0.00656367
0.00667831
0.00677026
0.00700582
0.00613528
0.00668962
0.00711159
0.00755569
0.00765795
0.00759592
0.00743778
0.00731196
0.00723201
0.00862258
0.00832689
0.00814865
0.00803701
0.00796027
0.00791088
0.00735418
0.00679825
0.0064954
0.00641559
0.00655906
0.00681647
0.00683627
0.0069364
0.00703728
0.00723748
0.00758786
0.00786501
0.00796213
0.00785497
0.0077332
0.00763839
0.00757
0.00752554
0.00993901
0.00964353
0.0094086
0.00927126
0.00915586
0.00904958
0.00898256
0.00892247
0.00838188
0.00796204
0.00780651
0.00794453
0.00833215
0.00840592
0.00836788
0.00840828
0.00864948
0.00897602
0.00906065
0.00890486
0.00875139
0.00867131
0.00865172
0.00866271
0.00871896
0.0100447
0.00990889
0.00980664
0.00975461
0.00972
0.00967391
0.00965434
0.00966224
0.00969428
0.00922352
0.00898081
0.00916248
0.00967061
0.00983805
0.00981056
0.00994349
0.0101214
0.0101836
0.0102533
0.0103309
0.0102787
0.0102415
0.010322
0.010463
0.0106279
0.00964154
0.00959211
0.00956053
0.00955375
0.00956921
0.00959643
0.00964402
0.00971371
0.00980204
0.00990428
0.00956438
0.00962276
0.0101835
0.0103111
0.0104113
0.0105132
0.0106137
0.0107137
0.01082
0.0109304
0.011041
0.0111496
0.0112544
0.0113545
0.0114496
0.00842272
0.0084174
0.00843261
0.00847178
0.00852876
0.0086099
0.00871685
0.00884612
0.00899194
0.00884494
0.00889281
0.00943698
0.00957557
0.00971539
0.00985619
0.00999526
0.0101344
0.0102798
0.0104285
0.0105764
0.010721
0.0108607
0.0109941
0.0111207
0.0083926
0.00838528
0.00839906
0.0084367
0.00849218
0.00857206
0.00867799
0.00880699
0.00895354
0.00873501
0.00874459
0.00926982
0.00954604
0.00968779
0.00982926
0.00996797
0.0101068
0.0102525
0.0104016
0.01055
0.010695
0.0108351
0.010969
0.0110962
0.00956697
0.00953934
0.00953656
0.00955661
0.00959051
0.00964553
0.009722
0.00981824
0.00990268
0.00942945
0.00937293
0.00979766
0.0101208
0.010409
0.0105556
0.0106457
0.0107357
0.0108337
0.0109376
0.0110428
0.0111467
0.0112474
0.0113439
0.0114357
0.0099007
0.00985674
0.00983014
0.00980201
0.00979634
0.00981592
0.00985872
0.00930381
0.00893732
0.00898249
0.00938594
0.00969861
0.00943439
0.0101937
0.0102349
0.0102767
0.0103288
0.0103915
0.0104628
0.0102569
0.010249
0.0103075
0.0103952
0.00962666
0.00948601
0.00936418
0.00924351
0.00916526
0.00909587
0.00862006
0.00811344
0.00780617
0.00775937
0.00802331
0.00817585
0.00809407
0.0085534
0.00896802
0.00919473
0.00923549
0.00901876
0.00873937
0.00857946
0.00855378
0.00848313
0.00843516
0.00839988
0.00821965
0.00811327
0.0080441
0.00800279
0.00767256
0.00701612
0.00658811
0.00635407
0.00633505
0.00650177
0.00654903
0.00681354
0.00709116
0.00734167
0.00770385
0.0079823
0.00787897
0.00766801
0.00752122
0.007393
0.0072871
0.00720658
0.00718903
0.0070928
0.00675219
0.00618016
0.00573757
0.00550964
0.00548557
0.00571292
0.00596958
0.00613411
0.00637393
0.00663013
0.00688489
0.00686985
0.00635319
0.00679111
0.00764976
0.00758648
0.00740233
0.00722387
0.00709054
0.00699403
0.00574779
0.00535255
0.00511779
0.0049985
0.00502733
0.00537495
0.00581298
0.00624709
0.00654146
0.00668909
0.00682444
0.00694664
0.00704171
0.00619461
0.00676841
0.00718836
0.00722189
0.0072689
0.00733125
0.00740829
0.00749718
0.00733115
0.00493576
0.00535586
0.0052534
0.00457112
0.00464852
0.00470372
0.00514661
0.00567421
0.00651862
0.00664604
0.00669779
0.00624677
0.00651187
0.00674014
0.00675809
0.00640058
0.00633237
0.00630893
0.00632081
0.00635755
0.00641617
0.00649366
0.00482723
0.0049762
0.00519453
0.00540477
0.00501077
0.00491664
0.00511723
0.0054467
0.00663803
0.00649354
0.00620349
0.00620089
0.00614049
0.00604636
0.00593736
0.00584907
0.0048599
0.00487444
0.00491025
0.00494318
0.00502925
0.00516261
0.00517273
0.00542816
0.00572578
0.00606786
0.00605727
0.00566988
0.00502448
0.00690572
0.00622401
0.00594453
0.0053802
0.00502442
0.0047463
0.00450139
0.00430356
0.00416024
0.00406821
0.00401394
0.00395913
0.0035539
0.00389308
0.00429918
0.00607681
0.00626468
0.00644684
0.00662718
0.00680843
0.00511241
0.00479878
0.00385339
0.00473101
0.00345628
0.00313845
0.0030346
0.002906
0.00274376
0.00262822
0.00253413
0.00247242
0.00248521
0.00258466
0.00283143
0.00483683
0.0056113
0.00608742
0.00612047
0.00614073
0.00615835
0.00617404
0.00629327
0.00317418
0.00250289
0.00169382
0.00158901
0.00125902
0.00114889
0.00170659
0.00136488
0.000752485
0.000778713
0.000544968
0.000748214
0.00224269
0.00455416
0.00492239
0.00478262
0.00546139
0.00542993
0.00540731
0.00542102
0.00543995
0.00512536
0.00288443
0.00137478
0.00120191
0.00353472
0.00421966
0.00512143
0.00453027
0.00463602
0.004751
0.00487475
0.00500086
0.00432404
0.00268799
0.0012944
0.00061032
0.00305914
0.00474102
0.00719296
0.00379944
0.00393942
0.00408903
0.00425549
0.00445385
0.00412182
0.00232735
0.00155153
0.00172846
0.00385911
0.00453584
0.00542873
0.00375642
0.003879
0.00400634
0.00414306
0.00430711
0.0035121
0.00446669
0.00202622
0.00131289
0.00165631
0.00128801
0.00169301
0.00178986
0.001839
0.00126529
0.00125279
0.00154097
0.0014794
0.00243482
0.00279525
0.00366976
0.00402954
0.00531795
0.00513208
0.00395135
0.00434841
0.00349926
0.00404523
0.00441818
0.00437042
0.00433092
0.00430187
0.00422346
0.00420138
0.0038543
0.0032162
0.00365128
0.00503794
0.00530339
0.00542738
0.00727549
0.00724586
0.00702729
0.00729156
0.00714644
0.00705074
0.00696951
0.00689738
0.00683925
0.00679697
0.00678804
0.00683422
0.00577914
0.00573165
0.00629082
0.00672924
0.00707185
0.00447322
0.00444794
0.00443327
0.00443834
0.00445909
0.00450918
0.00412941
0.00235834
0.00104779
0.00543382
0.00532904
0.00521015
0.00509107
0.00498364
0.00489745
0.00486296
0.00335425
0.00255004
0.00150035
0.00145707
0.00146115
0.00178006
0.00202482
0.00197283
0.00166908
0.000799959
0.000775771
0.00502881
0.00522126
0.00533349
0.00535619
0.0053336
0.00528084
0.00521811
0.00437477
0.00397119
0.00381526
0.00319241
0.00287373
0.00270452
0.00261124
0.00256932
0.00254685
0.00249391
0.00253458
0.00329105
0.0035539
0.00387096
0.00422408
0.00457403
0.00476515
0.00466848
0.00419877
0.00393356
0.00363435
0.00395986
0.00478605
0.00438322
0.00404814
0.00375193
0.00351611
0.00341862
0.00335887
0.00343853
0.00359121
0.00332075
0.00335414
0.0034454
0.0035496
0.00379958
0.00399539
0.00413816
0.00397577
0.00416679
0.0043171
0.00537204
0.00536228
0.00523238
0.00520449
0.00508861
0.00493677
0.0047839
0.00469775
0.00471398
0.00445052
0.00456189
0.00469752
0.00485519
0.00397425
0.00392662
0.00386111
0.00382106
0.00385213
0.00393599
0.00407039
0.00418065
0.00444823
0.00472063
0.00499852
0.00521821
0.00536402
0.00548258
0.00552383
0.00557964
0.00565032
0.00569695
0.00539486
0.00541201
0.0054651
0.00554622
0.00564979
0.00577212
0.00400851
0.00421347
0.00418101
0.0041546
0.00417404
0.0042216
0.00430093
0.00440867
0.00437862
0.00457779
0.00479291
0.0050141
0.00522226
0.00541898
0.00559891
0.00569099
0.00585559
0.00600559
0.00593339
0.00601464
0.00610507
0.00620561
0.00631597
0.00643533
0.00422294
0.00441757
0.00478814
0.00479904
0.00456185
0.00447344
0.00445657
0.0043875
0.00426515
0.00450446
0.00491244
0.0051815
0.00528389
0.00542514
0.00572145
0.00545148
0.00581289
0.00609945
0.00622798
0.00635758
0.00648883
0.00662263
0.00675931
0.00689872
0.00544532
0.00521932
0.00538062
0.00545544
0.00546875
0.00505101
0.00514936
0.00524484
0.00544819
0.0056515
0.00558925
0.00560255
0.00564018
0.00583001
0.00579891
0.00591579
0.00621189
0.00632514
0.00644329
0.00657975
0.00672146
0.00686454
0.00700835
0.00715287
0.00729792
0.00553073
0.00551503
0.00550947
0.00551706
0.00555409
0.00505464
0.00515822
0.00527999
0.00541657
0.0055653
0.00571794
0.00586224
0.00598033
0.00609453
0.006221
0.00634954
0.00647156
0.00659058
0.00671732
0.00686309
0.0070182
0.00717338
0.00732676
0.0074778
0.00762649
0.00595242
0.00592953
0.00590412
0.0058979
0.00592398
0.00519289
0.00525926
0.00535348
0.00547525
0.00562277
0.00578465
0.0055015
0.00606765
0.006194
0.00633689
0.00648389
0.00662086
0.00675479
0.00689679
0.00705571
0.00722406
0.00739071
0.00755354
0.00771191
0.0078657
0.00557717
0.00560389
0.00563735
0.00569167
0.00527981
0.00534199
0.0054283
0.00554077
0.00567793
0.00583163
0.00520702
0.00572544
0.00619636
0.00632495
0.00646165
0.00658893