/*--------------------------------*- C++ -*----------------------------------*\
  =========                 |
  \\      /  F ield         | OpenFOAM: The Open Source CFD Toolbox
   \\    /   O peration     | Website:  https://openfoam.org
    \\  /    A nd           | Version:  13
     \\/     M anipulation  |
\*---------------------------------------------------------------------------*/
FoamFile
{
    format      ascii;
    class       volScalarField;
    location    "800";
    object      omega;
}
// * * * * * * * * * * * * * * * * * * * * * * * * * * * * * * * * * * * * * //

dimensions      [0 0 -1 0 0 0 0];

internalField   nonuniform List<scalar> 
171247
(
831.483
298.044
76.7577
76.8749
77.2784
78.0973
79.5416
81.9724
85.4722
91.11
92.4542
101.135
120.94
144.608
325.32
678.131
1097.85
237.077
48.0737
49.4024
50.9639
52.8574
55.0921
57.6162
61.05
65.7783
71.7975
74.7849
83.2519
96.2843
122.127
209.824
368.643
531.955
551.256
30.2981
31.259
32.3774
33.6132
35.1274
37.1788
39.8562
43.1953
47.0645
50.6417
53.7849
60.1843
68.06
82.3917
112.998
165.335
231.494
229.725
23.7371
24.1701
24.6852
25.3704
26.2669
27.4206
28.8663
30.6134
32.6219
34.7166
36.5679
38.4631
40.615
43.4072
47.57
54.1062
63.6884
81.2623
96.7138
110.101
121.97
132.847
21.216
21.4462
21.7288
22.077
22.5081
23.0399
23.6892
24.4675
25.3735
26.3692
27.383
28.4368
29.5459
30.7872
32.3027
34.2902
36.9665
40.7714
45.0386
49.275
53.2691
56.9353
19.8821
19.9856
20.1039
20.2386
20.395
20.5807
20.8043
21.0753
21.4022
21.7891
22.2254
22.7032
23.2116
23.7478
24.3216
24.9604
25.6958
26.556
27.578
28.7173
29.8896
31.0311
32.1059
33.1005
19.3606
19.4064
19.4525
19.5004
19.5542
19.6191
19.7001
19.8039
19.9362
20.0988
20.2894
20.5018
20.7296
20.9698
21.2236
21.4953
21.7899
22.109
22.4541
22.8148
23.1772
23.526
23.8532
24.1553
19.0497
19.052
19.0532
19.0556
19.0638
19.0843
19.1188
19.1668
19.2298
19.3073
19.3974
19.4967
19.602
19.7113
19.8239
19.9405
20.0622
20.1892
20.3201
20.4515
20.5794
20.6984
20.8069
20.9046
18.9347
18.9108
18.8872
18.8673
18.8572
18.8594
18.875
18.9033
18.9432
18.9918
19.0462
19.1033
19.161
19.2178
19.2732
19.3274
19.3811
19.435
19.4886
19.5403
19.5884
19.6309
19.6665
19.6954
18.9757
18.9401
18.9058
18.8781
18.8606
18.8567
18.8662
18.8886
18.9216
18.9615
19.0047
19.0483
19.0905
19.1299
19.1659
19.1984
19.2281
19.2561
19.2827
19.307
19.3278
19.344
19.355
19.3604
19.0897
19.0511
19.0161
18.9885
18.9722
18.9699
18.9815
19.0062
19.0412
19.0824
19.1258
19.1683
19.2084
19.2452
19.2779
19.3061
19.3308
19.3531
19.3735
19.3913
19.4054
19.4149
19.4195
19.4192
19.2102
19.1722
19.1395
19.1151
19.1029
19.1053
19.1223
19.153
19.1943
19.2417
19.2903
19.3369
19.3799
19.4188
19.4528
19.4818
19.5068
19.5291
19.5494
19.5668
19.5802
19.5887
19.5922
19.5906
19.2019
19.1641
19.1318
19.1078
19.0961
19.0991
19.1169
19.1487
19.1913
19.2398
19.2892
19.3358
19.3779
19.4148
19.4459
19.4715
19.4931
19.5122
19.5294
19.5441
19.5551
19.5614
19.5629
19.5594
19.0272
18.9927
18.9658
18.9504
18.949
18.962
18.9887
19.0258
19.0687
19.1124
19.1533
19.1892
19.2192
19.2429
19.261
19.2753
19.2878
19.2992
19.3089
19.3158
19.319
19.318
19.3125
18.9031
18.869
18.8414
18.8244
18.8211
18.8316
18.8556
18.8903
18.9311
18.9733
19.0129
19.0476
19.0763
19.0986
19.1155
19.129
19.1411
19.1527
19.1631
19.1712
19.1757
19.1761
19.1725
18.8649
18.8405
18.8196
18.8084
18.8099
18.8251
18.8534
18.8932
18.941
18.9924
19.0435
19.0913
19.1345
19.1725
19.2059
19.2362
19.2654
19.2945
19.3228
19.3485
19.3704
19.3877
19.4006
18.9946
18.9936
18.9936
18.9994
19.0175
19.0498
19.0955
19.156
19.2305
19.3164
19.409
19.504
19.5978
19.6877
19.7746
19.8604
19.9468
20.0342
20.1202
20.2019
20.2767
20.3437
20.403
19.3734
19.4176
19.4681
19.5299
19.6084
19.7112
19.8431
20.0058
20.1964
20.407
20.6274
20.8496
21.0706
21.2914
21.5154
21.7447
21.9807
22.2163
22.4421
22.6515
22.8418
23.0136
20.043
20.1751
20.3302
20.5165
20.7434
21.0219
21.3614
21.7657
22.2211
22.7129
23.2206
23.727
24.2262
24.7322
25.2625
25.8325
26.4613
27.1234
27.773
28.3784
28.9247
29.4116
21.4617
21.7512
22.1136
22.5687
23.137
23.8364
24.6771
25.6505
26.7089
27.7755
28.8213
29.83
30.8425
31.9235
33.1667
34.6811
36.7883
39.1585
41.491
43.6139
45.4448
47.0045
24.5009
25.0575
25.8088
26.7987
28.073
29.6564
31.5339
33.6312
35.7863
37.8393
39.6266
41.3833
43.3467
45.8699
49.4346
54.5521
65.5723
75.7884
84.636
92.0942
98.2978
103.568
32.665
34.001
35.4676
37.1191
39.2785
41.9933
45.2443
48.8703
52.4806
55.6633
55.6547
57.0005
60.2477
66.5378
78.1367
97.1501
180.426
201.451
218.776
234.679
247.97
260.064
50.4755
52.084
53.9937
56.3041
58.8581
62.0361
66.2843
71.7145
71.9283
74.0347
79.481
90.2508
116.877
166.446
241.079
326.039
389.219
420.215
398.077
384.23
371.432
355.154
73.9259
74.3385
75.11
76.4202
78.5846
81.8562
87.0908
87.2366
90.8261
100.643
123.904
145.663
272.814
474.179
705.737
566.796
263.011
144.475
144.474
164.45
191.888
207.001
93.6965
92.2431
91.3314
91.1355
91.9296
94.7072
101.709
102.529
112.922
145.607
201.126
562.899
648.05
453.362
263.294
132.682
114.664
123.994
137.098
155.212
154.66
158.579
106.121
102.769
99.9851
97.855
96.623
97.0358
96.9689
101.281
121.63
148.653
383.161
844.493
630.732
217.311
121.693
122.671
122.407
121.53
123.799
127.698
122.22
116.442
111.331
106.819
103.173
100.874
100.635
100.027
108.175
134.975
189.709
385.399
720.674
560.816
223.498
136.299
116.108
111.284
120.083
120.671
123.052
128.733
137.445
130.573
124.306
118.491
113.115
108.336
104.878
103.58
102.854
106.905
118.77
162.28
253.871
393.245
519.579
570.582
517.043
441.263
416.948
400.262
388.818
378.415
119.489
114.943
110.906
107.671
105.483
104.182
104.085
108.871
121.628
149.149
189.46
235.277
226.986
238.001
247.834
257.858
266.591
275.49
106.728
105.647
104.452
103.169
102.16
101.384
101.205
101.964
103.988
107.454
112.25
121.645
128.788
134.208
138.318
141.229
143.167
130.533
128.768
127.612
127.261
128.031
130.325
134.793
137.076
152.971
194.166
473.092
743.921
91.3503
93.1346
95.2348
97.8502
100.873
104.469
109.583
117.575
121.751
136.854
166.766
243.052
436.971
575.249
641.548
627.986
648.929
50.8593
53.8662
57.0448
60.2915
64.0067
68.5581
74.0223
80.3619
87.1393
91.6368
101.306
111.35
124.926
139.964
159.302
186.139
221.158
257.578
31.4607
33.1071
35.0064
37.3519
40.2257
43.6664
47.6433
52.0142
56.4275
60.0172
63.0613
65.8838
68.6821
71.6732
75.1756
79.5499
85.1303
92.3555
102.823
111.016
117.569
123.009
24.9243
25.8296
26.8869
28.1389
29.6388
31.42
33.4817
35.7679
38.139
40.3255
42.3234
44.2036
45.9886
47.7358
49.5326
51.4763
53.6461
56.091
58.8021
61.3903
63.6994
65.7085
21.8086
22.261
22.7506
23.2776
23.8598
24.5211
25.285
26.1659
27.1599
28.2353
29.3365
30.4273
31.4901
32.5175
33.5152
34.4975
35.4816
36.4854
37.5063
38.5154
39.4574
40.3047
41.0514
41.7065
21.028
21.3021
21.5592
21.7937
22.0171
22.2484
22.5083
22.8357
23.2312
23.6887
24.188
24.7024
25.2141
25.7162
26.209
26.6913
27.1636
27.6271
28.0813
28.5149
28.9151
29.2739
29.591
29.87
20.4312
20.5627
20.675
20.766
20.8558
20.9641
21.093
21.2466
21.427
21.6316
21.8558
22.0904
22.3273
22.5604
22.7863
23.0045
23.2146
23.4173
23.6125
23.7968
23.966
24.1182
24.2529
24.3716
20.2364
20.2731
20.2963
20.3149
20.3465
20.3944
20.4572
20.5355
20.6272
20.7289
20.8372
20.949
21.061
21.1705
21.2738
21.371
21.4623
21.5484
21.6293
21.7039
21.7703
21.8275
21.8758
21.9159
20.4533
20.4397
20.4149
20.3956
20.3866
20.3914
20.4107
20.4427
20.4853
20.5347
20.5872
20.6401
20.6918
20.7409
20.7859
20.8259
20.861
20.8929
20.9221
20.9477
20.9683
20.9831
20.9912
20.9935
20.8293
20.7956
20.7589
20.7266
20.7028
20.6912
20.693
20.706
20.7279
20.7549
20.7834
20.8104
20.8353
20.8575
20.8759
20.8896
20.8997
20.9077
20.914
20.9178
20.9178
20.9128
20.9026
20.8871
21.2944
21.2526
21.2121
21.1758
21.1478
21.1325
21.131
21.1413
21.16
21.183
21.2058
21.2254
21.2413
21.2536
21.2615
21.2642
21.2632
21.2599
21.2552
21.2478
21.2366
21.2206
21.1992
21.1727
21.2817
21.2407
21.2011
21.1658
21.1389
21.1247
21.1245
21.1365
21.1569
21.1817
21.2059
21.2259
21.2412
21.2518
21.2567
21.2559
21.2512
21.2447
21.2368
21.2267
21.213
21.1946
21.1711
21.1427
20.7592
20.7233
20.6918
20.6689
20.6583
20.6613
20.6758
20.6993
20.7278
20.7564
20.7815
20.8021
20.8175
20.8271
20.831
20.8309
20.8294
20.8275
20.8241
20.8176
20.807
20.792
20.7727
20.3782
20.3532
20.3335
20.3238
20.3278
20.3463
20.3779
20.42
20.4683
20.5179
20.5653
20.6086
20.6473
20.6792
20.7036
20.7229
20.7397
20.7551
20.7684
20.7781
20.7835
20.7846
20.7816
20.1938
20.2129
20.2276
20.2549
20.2978
20.356
20.4299
20.5173
20.6141
20.7159
20.819
20.9201
21.0165
21.1039
21.1811
21.2499
21.313
21.3721
21.4269
21.4763
21.5196
21.557
21.5893
20.4493
20.5524
20.6336
20.7133
20.8106
20.9289
21.0728
21.2448
21.4423
21.6602
21.8898
22.1216
22.3449
22.5545
22.7501
22.9316
23.1005
23.2587
23.4058
23.5401
23.661
23.7694
23.8676
21.312
21.5322
21.7431
21.9637
22.2234
22.5532
22.9571
23.4297
23.9507
24.4916
25.0236
25.5345
26.0184
26.4697
26.888
27.2758
27.6369
27.9694
28.2671
28.5278
28.7561
28.9593
22.5017
23.0159
23.5929
24.2605
25.0463
25.9699
27.0324
28.2044
29.4037
30.5806
31.7054
32.7538
33.7197
34.6059
35.4226
36.1858
36.9044
37.5683
38.1553
38.6561
39.081
39.4484
25.7719
26.8645
28.183
29.7896
31.7247
33.9892
36.5199
39.1561
41.5958
43.7239
45.627
47.3339
48.8778
50.2939
51.6465
52.9839
54.3556
55.7965
57.1028
58.1839
59.052
59.7494
34.193
36.2646
38.8526
42.0366
45.8412
50.196
54.9039
59.5496
63.2793
66.1978
68.7711
71.1204
73.3816
75.6364
78.0494
80.8194
84.3394
90.1368
94.6554
97.9502
100.336
102.037
58.7007
62.2568
65.8555
69.7003
74.252
79.5168
85.4031
91.1376
90.6085
91.462
94.0245
97.572
101.634
106.43
112.537
121.184
135.754
188.469
195.24
199.366
202.416
205.104
95.7118
97.7504
100.234
103.223
106.557
111.162
118.369
118.03
121.88
133.95
161.597
191.074
217.278
241.392
263.498
297.609
341.478
369.367
391.214
370.733
349.096
328.819
125.917
124.944
124.669
125.39
127.643
131.863
130.952
139.376
164.428
206.401
406.864
593.302
949.12
645.69
784.599
755.647
544.611
293.519
260.067
250.741
258.887
245.536
144.609
141.314
138.932
137.746
138.558
144.135
144.199
164.291
195.082
620.143
2443.17
553.124
156.653
172.88
201
195.589
188.946
160.003
155.141
151.296
148.597
147.721
151.598
151.682
181.185
257.519
882.945
193.511
190.97
177.316
165.188
161.402
159.822
153.875
148.815
144.751
141.909
141.082
141.622
154.463
188.963
565.238
1932.7
376.934
215.297
212.67
255.553
285.841
278.233
153.56
147.137
141.553
136.949
133.338
131.222
130.572
132.722
146.693
192.454
326.048
545.576
757.318
779.573
642.543
626.23
561.691
530.237
405.091
389.935
377.312
364.924
126.417
124.366
123.167
123.131
124.702
131.541
146.897
172.193
189.397
202.909
213.609
226.545
236.262
197.413
199.258
200.35
199.82
199.494
98.9314
100.817
102.75
104.633
106.145
107.615
109.075
110.496
111.796
112.876
113.723
114.594
115.669
115.784
114.794
113.251
111.631
154.415
149.623
145.614
142.522
140.456
139.926
142.843
147.997
186.523
482.319
2398.43
140.237
138.492
137.28
136.664
136.408
137.019
139.062
141.265
156.349
206.669
343.896
553.266
605.226
609.186
602.47
589.713
572.877
594.105
100.932
104.144
107.056
109.674
112.606
115.985
119.814
124.066
127.121
137.16
150.424
165.058
176.313
185.776
195.391
205.386
216.886
231.286
56.6457
60.5335
64.3547
68.4176
72.9465
78.0003
83.4043
88.9629
94.2687
98.4985
101.541
103.919
105.714
107.566
109.077
110.361
111.502
112.791
114.535
39.7278
42.2971
45.0562
48.0275
51.3195
55.0116
59.0441
63.2878
67.4978
71.262
74.3122
76.8868
78.8965
80.5282
81.832
83.0777
83.8165
84.1803
84.5191
84.9221
85.3519
85.7006
85.9689
32.1575
33.8669
35.5595
37.2585
39.0369
40.9608
43.066
45.3326
47.711
50.0741
52.3616
54.4159
56.2118
57.7721
59.0952
60.1645
60.9939
61.6027
62.0648
62.4314
62.7179
62.9354
63.1091
63.2727
29.8029
30.9324
31.8686
32.624
33.269
33.8952
34.7019
35.6406
36.7046
37.8553
39.0281
40.16
41.2177
42.1889
43.0611
43.793
44.4034
44.8986
45.3059
45.6403
45.9115
46.1274
46.3033
46.457
26.956
27.6393
28.1435
28.4737
28.8149
29.1815
29.5943
30.0503
30.5419
31.0707
31.6163
32.1571
32.6713
33.1517
33.5912
33.9746
34.2964
34.5641
34.7892
34.9795
35.1358
35.2621
35.365
35.4517
25.3698
25.6713
25.854
26.0081
26.1832
26.3747
26.5931
26.8219
27.0553
27.2969
27.5437
27.789
28.0222
28.2392
28.4334
28.6008
28.7382
28.8477
28.9348
29.0054
29.0605
29.101
29.1293
29.1487
25.3568
25.4112
25.4022
25.388
25.3934
25.4108
25.4439
25.4906
25.5462
25.6097
25.6804
25.7498
25.8159
25.8757
25.9263
25.9644
25.989
26.0019
26.0067
26.0043
25.994
25.9761
25.9518
25.9224
26.2126
26.161
26.0794
25.9848
25.8862
25.7929
25.7132
25.6463
25.593
25.548
25.5085
25.4676
25.4269
25.3867
25.3422
25.2909
25.2346
25.176
25.1168
25.0573
24.9964
24.9317
24.863
24.7914
28.0913
27.9813
27.8436
27.6875
27.5247
27.363
27.2116
27.0742
26.9509
26.8358
26.7251
26.6106
26.4953
26.3819
26.2656
26.1445
26.0213
25.899
25.7796
25.663
25.5474
25.4311
25.3131
25.1938
28.0864
27.9792
27.8444
27.6913
27.5311
27.3716
27.2221
27.0867
26.9655
26.8523
26.7428
26.6283
26.5121
26.3957
26.275
26.149
26.0213
25.8952
25.7725
25.6529
25.5346
25.4159
25.2957
25.1747
26.1026
26.0199
25.9238
25.8229
25.7254
25.6407
25.5686
25.5105
25.4606
25.4162
25.3699
25.3227
25.274
25.2206
25.1609
25.0972
25.0332
24.9707
24.9095
24.8476
24.7832
24.7164
24.6478
25.2294
25.2148
25.1943
25.1857
25.1888
25.206
25.2367
25.2806
25.3353
25.3967
25.4575
25.5164
25.5689
25.6156
25.6477
25.6672
25.6776
25.6827
25.6842
25.6799
25.6703
25.6561
25.6388
25.3503
25.5204
25.6622
25.8263
26.0043
26.207
26.4209
26.6386
26.865
27.0993
27.3366
27.5678
27.7871
27.9875
28.1634
28.309
28.4271
28.5233
28.6037
28.6722
28.7304
28.7801
28.8247
27.2958
27.7736
28.0705
28.3716
28.6959
29.0633
29.4805
29.9393
30.4484
30.9916
31.5512
32.1011
32.6261
33.1118
33.5384
33.8938
34.1892
34.4369
34.6476
34.8309
34.9899
35.1319
35.2659
30.889
31.6149
32.2315
32.8605
33.6717
34.6392
35.7494
36.9851
38.2798
39.5611
40.7795
41.9084
42.9227
43.7808
44.4709
45.0292
45.4917
45.868
46.1779
46.4421
46.684
46.921
34.5007
36.1934
37.9938
39.9727
42.1759
44.5976
47.1825
49.8633
52.5018
54.8973
57.0068
58.8422
60.3924
61.6243
62.5573
63.2129
63.6669
63.9909
64.232
64.4342
64.6285
64.8309
44.7536
47.874
51.3779
55.3464
59.7206
64.3539
68.9885
73.2545
76.7705
79.6625
81.9452
83.7684
85.186
86.4866
87.1182
87.1291
86.9566
86.7327
86.5309
86.3477
86.1976
86.1016
67.0254
71.3256
76.1247
81.4526
87.1078
92.8332
98.244
102.945
106.197
108.453
110.007
111.605
112.728
113.357
113.462
113.241
113.017
113.104
114.109
114.57
114.676
114.632
110.425
113.118
115.494
118.026
120.887
124.031
127.5
132.279
131.149
131.708
134.072
136.539
139.027
141.596
143.947
146.128
148.632
154.7
182.817
181.791
180.024
178.237
139.622
138.125
137.208
136.685
136.935
138.595
138.005
143.688
161.638
201.069
237.229
254.274
264.823
272.865
277.568
279.963
285.066
296.142
305.026
323.995
306.647
291.079
148.647
144.628
141.442
139.266
138.632
141.482
144.161
170.234
217.011
485.79
701.263
956.727
968.888
949.034
922.702
785.462
729.735
637.494
479.232
399.213
301.785
263.189
147.807
142.801
138.449
134.928
132.444
131.725
142.567
207.126
551.523
474.387
208.059
276.607
231.015
209.055
134.828
129.415
124.58
120.279
116.197
117.916
131.811
175.088
1200.32
284.55
224.745
211.31
214.688
158.594
152.203
146.666
142.026
138.843
138.414
140.822
173.954
554.854
529.071
479.337
338.53
364.252
328.923
154.238
148.865
144.289
140.518
137.619
135.96
134.78
143.121
195.523
445.122
1048.36
746.76
813.069
817.918
797.374
604.131
511.453
405.297
381.847
283.698
275.56
267.28
113.876
114.099
115.592
117.046
124.912
140.296
154.167
163.519
170.133
174.253
175.674
173.994
172.829
171.748
142.558
141.61
140.238
138.645
76.4062
79.3015
82.5824
85.639
88.1791
89.9971
91.2314
92.0832
92.6036
92.7057
92.3627
91.8478
91.2842
90.5211
89.4162
88.0131
86.3945
152.905
146.123
140.013
134.619
130.139
126.682
125.5
135.915
213.939
1262.47
159.807
154.426
149.428
144.593
140.057
136.207
134.381
136.518
171.992
320.044
576.83
596.875
558.088
457.303
444.697
489.043
497.739
501.753
150.979
148.624
146.128
143.759
141.715
140.639
139.414
140.063
143.648
165.517
195.48
211.84
219.168
224.147
229.076
231.673
232.204
232.724
112.784
114.808
116.686
118.776
121.078
124.004
126.778
129.234
131.201
133.08
135.426
137.715
140.106
141.659
144.479
146.369
146.864
145.927
144.019
83.9182
87.2705
90.36
93.1972
96.3841
100.417
104.48
108.422
111.913
114.81
116.871
118.103
118.97
119.661
119.594
118.188
115.56
114.747
113.712
112.733
111.793
111.024
110.433
67.0516
70.1322
72.8836
75.4224
77.9317
80.5595
83.3806
86.1131
89.0533
91.8812
94.2123
96.0252
97.3906
98.4413
99.0386
99.3231
98.5976
97.4967
96.1807
94.8989
93.7361
92.7319
91.9013
91.2548
61.7251
64.2142
65.8439
66.8542
67.6845
68.719
69.9762
71.4126
72.8819
74.3571
75.7305
76.9292
77.965
78.8477
79.5053
80.1852
80.2998
79.9779
79.3062
78.5695
77.8377
77.1598
76.5626
76.0573
52.8182
54.8566
55.9416
56.5866
57.1251
57.6387
58.2099
58.8803
59.6234
60.4099
61.1566
61.786
62.3553
62.8445
63.2445
63.5016
63.5678
63.4509
63.1965
62.8716
62.5171
62.1586
61.817
61.5061
43.2455
44.6615
45.7747
46.296
46.7767
47.3769
47.8568
48.4766
48.9067
49.25
49.5661
49.8477
50.0678
50.2498
50.3961
50.5069
50.56
50.5222
50.3998
50.2224
50.0117
49.7815
49.5403
49.2974
49.0581
39.7511
40.2445
40.6042
40.6755
40.6834
40.8819
41.0415
41.1726
41.2918
41.395
41.4892
41.5695
41.5996
41.5986
41.5671
41.5059
41.4048
41.2609
41.0776
40.8742
40.6711
40.4626
40.2487
40.0314
39.814
39.7099
39.7159
39.6282
39.4137
39.1259
38.8809
38.6243
38.3632
38.1246
37.9204
37.741
37.566
37.38
37.1889
37.0003
36.7958
36.5665
36.3176
36.0577
35.8013
35.5525
35.3102
35.071
34.8333
34.5973
45.8918
45.5393
45.0329
44.4324
43.8515
43.2302
42.5857
41.9559
41.3695
40.8264
40.3026
39.789
39.2886
38.8055
38.3274
37.8429
37.3578
36.8789
36.4195
35.9851
35.5736
35.1791
34.7988
34.4307
46.0432
45.6982
45.1952
44.5968
44.0192
43.3967
42.7476
42.1107
41.5159
40.9642
40.4312
39.9065
39.398
38.9067
38.4146
37.9157
37.4182
36.9298
36.463
36.0228
35.6066
35.2087
34.8261
34.4569
39.6638
39.5534
39.3162
39.0023
38.7267
38.4241
38.119
37.8343
37.5871
37.3709
37.1706
36.9709
36.7849
36.6093
36.4209
36.2069
35.9773
35.7379
35.5023
35.2756
35.0566
34.8419
34.6302
34.4218
39.8589
39.8968
39.8653
39.977
40.0615
40.1249
40.1819
40.2437
40.316
40.3942
40.4517
40.5006
40.6233
40.6284
40.5949
40.5174
40.4006
40.2637
40.1283
39.9905
39.8479
39.7035
39.5615
44.2332
44.7566
45.2531
45.9101
46.429
47.0644
47.4873
47.8065
48.1084
48.415
48.7087
49.0053
49.4003
49.6439
49.8304
49.9218
49.9248
49.8802
49.8029
49.7061
49.5926
49.4821
49.3843
54.1419
55.2426
55.8259
56.2735
56.6501
57.0666
57.595
58.2396
59.0031
59.8216
60.6151
61.4155
62.1558
62.8114
63.3154
63.6104
63.7187
63.7103
63.6281
63.5024
63.3669
63.2496
63.1697
63.6645
64.7137
65.5452
66.5859
67.883
69.4176
71.1276
72.9215
74.691
76.3529
77.8502
79.1689
80.2583
81.024
81.6984
81.8391
81.4942
81.0472
80.585
80.1704
79.8374
79.6064
70.5639
73.3236
76.0843
78.986
82.1527
85.344
88.7791
92.0814
94.8739
97.165
99.0276
100.56
101.599
102.356
102.069
101.312
100.203
99.0863
98.0735
97.2345
96.6041
96.2018
90.2248
93.3356
96.8247
101.184
105.579
109.83
113.597
116.731
118.913
120.488
121.741
122.954
123.291
119.974
114.969
119.252
118.268
117.232
116.217
115.45
114.973
114.837
119.301
121.39
123.687
126.501
129.164
131.379
133.056
134.681
137.122
139.971
142.853
139.412
135.983
134.491
133.124
131.205
148.092
146.349
144.771
144.896
145.044
145.501
149.859
147.229
144.718
142.36
140.838
139.201
139.456
139.07
145.325
157.277
166.928
173.575
178.394
181.979
183.597
182.865
181.126
178.899
178.096
209.432
209.165
208.559
153
147.828
142.809
138.119
134.131
132.663
134.104
150.932
201.226
271.208
294.316
298.096
301.684
307.474
304.919
299.738
299.477
297.247
296.322
293.054
348.29
316.456
143.857
137.632
132.225
127.815
124.464
123.546
133.073
203.994
418.327
674.089
952.241
665.913
663.217
663.456
500.177
737.929
628.729
569.76
542.366
433.807
279.775
254.912
142.917
137.948
133.251
129.283
125.734
124.94
137.459
267.038
473.609
280.063
254.24
232.302
153.071
147.222
141.95
137.283
133.576
132.368
143.926
373.596
365.025
250.217
220.246
293.132
151.292
145.321
140.215
136.005
133.007
132.348
140.908
203.72
733.388
533.569
369.17
317.929
133.205
128.696
124.976
122.166
120.704
121.974
121.748
141.974
260.979
557.558
844.634
603.305
528.16
499.9
686.442
742.404
688.507
462.804
313.428
277.47
197.209
187.777
92.0643
92.5647
94.8126
98.1664
111.164
127.208
130.936
131.413
131.104
130.514
131.623
131.301
129.081
127.145
124.754
102.015
100.437
98.4826
60.7536
62.4973
64.7256
66.8381
68.2705
69.0827
69.6502
70.0152
70.0979
69.8927
69.4815
69.0677
68.6922
68.1226
67.3193
66.2557
64.9888
153.949
146.493
139.428
132.823
126.705
121.52
121.018
134.336
331.604
155.342
148.173
141.244
134.601
128.342
122.677
119.203
123.463
178.61
535.024
574.695
561.441
483.108
466.147
474.705
604.735
563.617
779.872
162.608
155.639
148.351
140.742
133.698
129.155
123.431
121.118
133.052
178.32
228.612
262.761
281.853
298.301
310.724
303.676
300.605
298.5
153.321
150.52
148.178
145.984
143.283
139.948
135.497
131.591
128.325
128.681
137.949
154.115
170.237
184.715
198.364
207.932
209.331
207.285
201.381
220.154
140.096
137.784
134.6
131.677
131.642
131.895
132.802
133.351
132.768
131.599
131.691
134.214
138.803
140.48
145.593
150.055
152.706
151.432
148.288
159.832
158.293
156.156
153.967
123.317
122.567
122.099
121.85
122.23
122.88
123.176
123.818
123.886
123.467
123.013
123.002
123.718
124.488
125.135
124.353
123.413
121.787
123.415
123.765
123.597
123.108
122.472
121.812
122.719
125.353
125.612
124.141
121.841
119.219
116.579
115.278
118.717
116.914
115.352
114.072
113.067
112.367
112.068
111.287
109.252
106.686
105.846
104.912
104.032
103.234
102.525
101.908
128.047
130.501
130.198
128.009
124.87
120.727
116.112
111.656
108.677
106.792
104.86
107.349
105.266
103.537
102.036
100.584
98.8285
96.8448
95.0675
93.4203
91.9212
90.5989
89.4491
88.4552
104.907
108.023
110.627
111.344
110.61
129.044
125.158
118.765
109.097
102.073
96.9503
93.0411
99.4169
96.8717
94.5689
92.4677
90.4652
88.4327
86.4091
84.5541
82.8017
81.1678
79.6767
78.3309
77.1209
89.524
90.9009
92.1813
92.2568
91.1548
107.969
105.325
102.489
99.4544
96.48
93.6961
91.0232
88.4249
85.9255
83.6142
81.464
79.3952
77.3358
75.3431
73.4883
71.8007
70.2165
68.7485
67.3982
66.1568
67.9289
68.1892
68.6081
68.4917
67.7857
82.5435
81.4625
80.1955
78.8476
77.5364
76.3217
75.2564
73.9354
72.3613
70.7616
69.1743
67.5411
65.8557
64.1778
62.5908
61.1635
59.815
58.5532
57.3775
56.2802
77.9774
77.4834
76.2853
74.3974
95.6208
92.78
89.8101
86.8793
84.1294
81.6727
79.6568
77.5409
75.2326
72.947
70.7557
68.5603
66.3566
64.2118
62.1997
60.4003
58.7247
57.1744
55.7424
54.4156
87.9617
87.7382
86.4594
84.1888
97.0472
94.0768
90.9698
87.9015
85.0185
82.4408
80.3361
78.1493
75.7795
73.4624
71.2351
68.9874
66.7334
64.5474
62.5021
60.6752
58.9797
57.4153
55.9745
54.6433
69.548
69.2663
68.4373
67.0132
81.6327
80.1099
78.8329
77.4455
76.0779
74.817
73.7739
72.5376
71.1468
69.8245
68.4056
66.9
65.323
63.745
62.2515
60.9207
59.6645
58.4894
57.3964
56.3796
74.9662
75.2376
74.6773
104.391
101.942
99.2468
96.3126
93.389
90.6601
88.1247
85.8293
83.739
80.4971
79.3676
77.6915
75.9826
74.301
72.7266
71.2959
69.9406
68.6769
67.5128
66.4454
96.6104
96.9337
96.1542
126.661
123.119
116.857
106.562
98.3891
92.0537
87.2246
98.062
95.9941
92.4207
91.4918
89.9675
88.3566
86.6803
85.1191
83.6157
82.1926
80.8856
79.7105
78.6671
120.102
121.289
120.491
118.437
115.147
111.351
107.308
103.432
100.235
97.6033
107.585
105.927
104.679
103.439
102.224
100.804
98.9932
97.3269
95.7786
94.3782
93.1651
92.1426
91.2993
128.672
127.055
124.325
120.676
116.578
112.898
119.24
117.537
116.258
115.36
114.71
114.282
114.185
113.677
110.726
106.17
108.74
107.969
107.263
106.656
106.165
105.799
120.514
119.886
119.069
118.291
118.005
124.908
125.163
124.97
124.727
124.975
125.966
126.931
127.791
124.852
121.236
118.533
127.599
128.271
128.37
128.128
127.749
127.39
132.708
132.91
132.904
131.201
129.958
130.187
130.509
130.396
133.609
136.731
142.037
139.545
139.305
140.975
142.412
141.582
139.319
167.818
166.301
164.176
162.077
160.302
149.111
146.748
143.894
141.323
138.325
135.602
132.817
131.381
135.118
144.234
155.216
166.622
177.305
185.044
188.92
187.965
184.594
232.898
222.713
215.594
209.575
204.956
154.382
147.482
140.169
133.386
130.441
126.009
123.46
129.757
156.985
193.026
221.814
241.761
258.24
271.308
255.489
267.039
265.909
261.718
254.165
288.769
274.644
263.521
146.545
140.146
133.998
128.15
122.417
120.378
121.736
152.499
258.282
335.993
373.667
384.828
398.783
413.192
378.116
450.27
460.497
454.946
426.466
406.275
270.222
212.086
146.71
140.225
133.946
127.933
122.581
121.227
128.936
195.872
962.5
872.516
635.284
653.127
596.792
608.806
1048.02
435.566
515.139
396.609
281.806
244.11
254.765
272.332
145.486
139.009
133.065
127.614
123.124
122.889
142.61
642.188
592.848
327.375
315.891
306.844
142.815
136.415
130.842
126.052
122.48
123.434
141.034
358.466
386.945
319.321
133.945
127.873
122.704
118.602
116.099
117.43
144.673
457.343
788.688
542.801
407.525
267.137
110.923
106.71
103.235
100.639
99.2574
99.6092
106.83
140.021
638.622
819.756
630.804
399.662
351.895
322.108
328.991
625.442
818.968
605.45
312.778
247.926
154.118
141.774
74.6848
75.3911
76.309
83.2942
97.4188
103.905
104.38
103.225
101.833
100.529
99.5286
99.1586
98.5328
96.2301
93.6083
76.5345
75.0021
73.122
52.7538
53.5682
54.6739
55.5559
55.9407
56.1269
56.0738
55.8666
55.5125
55.0262
54.494
54.0611
53.7181
53.2586
52.6208
51.7327
50.692
144.668
137.98
131.849
126.183
121.028
116.689
116.104
136.393
838.087
143.77
136.83
130.576
124.978
119.89
116.943
113.478
117.605
188.268
523.389
626.676
734.754
778.918
531.424
749.633
443.097
317.332
350.337
290.926
152.642
144.228
136.61
131.052
123.04
117.427
113.152
114.667
148.62
213.434
382.731
516.216
568.002
796.945
666.881
470.795
416.689
383.508
158.452
154.808
151.226
146.368
138.945
131.794
125.122
122.336
127.798
132.331
169.189
223.41
280.552
336.988
453.52
569.331
636.888
577.429
418.926
307.403
143.912
141.142
140.424
140.651
140.398
139.832
137.998
135.381
134.172
136.408
143.201
193.252
192.087
205.504
224.976
245.732
268.926
284.645
308.474
265.176
239.434
219.563
204.339
144.533
143.442
144.225
141.388
137.893
135.8
134.444
133.182
146.762
147.457
151.996
154.115
155.352
158.965
163.481
169.154
175.398
180.054
198.931
190.006
181.07
172.818
165.488
206.41
204.707
197.8
185.006
169.442
155.138
144.057
135.804
133.149
133.466
134.026
134.031
132.529
131.766
131.245
131.598
130.69
129.804
140.343
140.744
139.643
137.669
135.242
235.554
233.962
223.396
210.592
198.51
186.101
173.731
162.441
151.78
142.433
134.972
128.521
124.587
122.621
120.743
118.292
116.098
113.457
111.013
113.138
113.226
112.933
112.321
111.463
249.56
242.914
238.823
229.804
217.019
203.023
189.129
177.942
168.755
160.496
153.228
145.757
137.022
128.623
122.04
116.948
112.778
109.08
105.468
106.615
104.457
102.555
100.845
99.2899
97.8547
253.94
248.048
244.456
237.236
224.629
208.92
192.133
177.01
163.951
153.097
144.443
137.387
130.954
124.389
118.357
113.2
108.543
104.082
99.7568
96.3492
99.4299
96.7902
94.32
92.035
89.9333
173.678
175.928
179.635
180.018
175.684
168.903
211.525
199.085
187.009
175.358
165.138
153.539
137.21
125.087
115.054
107.308
101.142
95.7744
90.8168
86.5559
93.2309
90.6343
88.1099
85.6882
83.3902
194.964
193.858
195.777
192.023
184.238
175.645
227.711
212.205
196.9
182.957
171.292
160.168
144.304
131.956
120.793
111.577
104.187
97.6454
91.6255
86.3389
94.8016
91.9263
89.0974
86.3458
83.7036
225.889
226.458
219.618
209.213
196.506
229.228
213.811
198.504
184.456
172.579
161.383
145.535
133.171
122.094
113.122
105.858
99.2478
93.1283
87.7233
95.5837
92.7708
89.9821
87.2533
84.62
172.484
175.156
174.251
168.884
162.154
154.241
203.98
191.926
180.012
169.176
158.087
141.439
128.764
118.048
109.636
102.865
96.7772
91.1719
86.3177
95.536
92.929
90.356
87.8627
85.4842
217.854
214.903
206.235
194.546
181.36
168.511
156.542
145.913
137.016
130.107
124.19
118.474
113.605
109.504
105.348
101.157
96.9605
93.3056
100.942
98.2636
95.761
93.4499
91.3312
239.912
233.128
221.092
206.259
190.93
178.229
167.711
158.566
150.923
144.275
136.966
129.596
123.815
118.902
114.196
109.789
105.539
107.962
105.714
103.744
101.994
100.428
99.0094
238.235
228.098
215.425
204.036
192.667
181.29
171.062
160.641
150.912
142.413
134.335
127.601
122.933
119.415
116.35
113.561
110.597
107.87
113.726
113.754
113.486
112.962
112.235
224.769
212.47
198.802
183.78
168.709
155.444
143.99
135.619
130.972
128.372
134.815
133.358
130.078
126.139
124.027
121.819
119.857
139.857
140.489
139.7
138.052
135.931
178.012
176.905
166.859
153.813
143.409
136.642
132.549
146.541
147.584
152.617
154.99
150.463
146.697
146.228
147.026
147.423
149.501
198.198
190.033
181.674
173.82
166.7
135.128
134.415
134.761
136.475
136.773
136.629
135.924
136.428
138.498
194.633
185.754
181.755
188.063
196.16
196.015
227.45
234.948
266.968
241.181
221.142
205.619
193.404
151.374
147.72
141.96
136.84
132.173
129.826
131.382
139.396
154.95
184.189
219.481
256.061
269.197
290.13
342.897
357.762
382.835
304.714
270.667
245.949
228.008
213.043
144.234
136.673
132.711
125.321
119.173
115.601
121.389
132.088
165.225
305.624
373.82
441.164
610.701
681.767
1083.65
576.34
399.351
353.848
322.412
258.369
232.37
202.171
136.456
130.242
124.688
119.654
116.77
112.564
113.938
166.297
244.623
445.117
589.393
620
771.047
558.487
434.355
372.988
278.636
255.418
233.681
185.991
197.204
137.9
131.834
126.235
121.142
116.844
115.24
124.053
269.207
562.429
858.323
1079.32
675.095
552.472
1788.46
389.636
340.634
561.482
515.374
247.473
211.488
279.176
295.859
139.894
133.42
127.534
122.383
118.552
118.861
135.476
474.968
402.535
329.252
138.374
131.918
126.206
121.432
118.46
121.397
160.867
540.718
445.091
319.121
129.639
123.969
119.087
115.206
113.093
115.502
161.601
1561.03