/*--------------------------------*- C++ -*----------------------------------*\
  =========                 |
  \\      /  F ield         | OpenFOAM: The Open Source CFD Toolbox
   \\    /   O peration     | Website:  https://openfoam.org
    \\  /    A nd           | Version:  13
     \\/     M anipulation  |
\*---------------------------------------------------------------------------*/
FoamFile
{
    format      ascii;
    class       volScalarField;
    location    "800";
    object      p;
}
// * * * * * * * * * * * * * * * * * * * * * * * * * * * * * * * * * * * * * //

dimensions      [0 2 -2 0 0 0 0];

internalField   nonuniform List<scalar> 
171247
(
-14.858
-51.1261
-2.68372
-2.56577
-2.175
-1.48534
-0.526143
0.576915
1.61224
2.14224
3.46137
0.368587
-8.15408
-12.9621
-29.0933
-58.3062
-44.6182
-40.5311
-3.73739
-3.90212
-3.893
-3.73223
-3.50427
-3.38272
-3.75023
-5.34761
-9.16012
-11.0146
-20.389
-30.4694
-37.7131
-39.3479
-37.8865
-39.4709
-39.9809
-5.12636
-5.59983
-5.98822
-6.3124
-6.68694
-7.37561
-8.79496
-11.4233
-15.6562
-21.439
-25.179
-31.9358
-35.8185
-36.6683
-36.2747
-36.8329
-38.6309
-40.5504
-6.88046
-7.63523
-8.3436
-9.04654
-9.89515
-11.1352
-13.0446
-15.8595
-19.6787
-24.28
-28.9439
-32.4934
-34.6703
-35.5781
-35.8727
-36.2248
-36.7408
-38.0547
-38.9869
-38.5121
-36.9372
-34.8354
-8.78866
-9.78488
-10.7745
-11.7916
-12.9487
-14.4227
-16.3882
-18.9522
-22.0986
-25.6114
-29.0306
-31.8243
-33.6992
-34.7455
-35.3131
-35.721
-36.0503
-36.3008
-36.2623
-35.5615
-34.1699
-32.334
-9.58152
-10.7575
-11.974
-13.1864
-14.3913
-15.6658
-17.1399
-18.9299
-21.0901
-23.5835
-26.2525
-28.8181
-30.969
-32.5297
-33.5395
-34.1591
-34.5247
-34.6673
-34.5592
-34.1412
-33.2982
-32.0122
-30.4025
-28.6145
-11.2648
-12.5953
-13.9714
-15.3238
-16.6154
-17.8907
-19.2497
-20.783
-22.5335
-24.4792
-26.5206
-28.4883
-30.1944
-31.5172
-32.4453
-33.0396
-33.3572
-33.4047
-33.1545
-32.5813
-31.6729
-30.4564
-29.0077
-27.4189
-12.7527
-14.1745
-15.6377
-17.0601
-18.3775
-19.6032
-20.8158
-22.0963
-23.4908
-25.0007
-26.5769
-28.1206
-29.5071
-30.6327
-31.4551
-31.9876
-32.253
-32.2457
-31.9366
-31.3135
-30.4009
-29.2505
-27.9259
-26.4911
-13.925
-15.3971
-16.9096
-18.3708
-19.6926
-20.8634
-21.9461
-23.0183
-24.1317
-25.3114
-26.5462
-27.7833
-28.9347
-29.9055
-30.6355
-31.1121
-31.34
-31.3039
-30.9735
-30.3423
-29.4485
-28.3543
-27.1204
-25.7976
-14.7778
-16.2787
-17.8189
-19.2992
-20.6141
-21.7354
-22.7152
-23.6291
-24.5375
-25.4807
-26.4728
-27.4921
-28.4754
-29.3346
-29.9959
-30.4294
-30.6301
-30.5775
-30.2393
-29.6118
-28.739
-27.6878
-26.5176
-25.2728
-15.3289
-16.8475
-18.4028
-19.8907
-21.1967
-22.2828
-23.195
-24.0066
-24.7817
-25.57
-26.4029
-27.2797
-28.1547
-28.9447
-29.5653
-29.9743
-30.1607
-30.101
-29.7608
-29.1376
-28.2787
-27.2537
-26.1217
-24.9241
-15.5993
-17.1257
-18.6869
-20.1761
-21.4744
-22.5391
-23.4132
-24.1676
-24.8675
-25.5684
-26.3117
-27.1095
-27.9272
-28.6852
-29.2934
-29.7012
-29.8914
-29.8363
-29.499
-28.8788
-28.026
-27.0124
-25.8974
-24.7214
-15.5982
-17.1271
-18.6908
-20.1822
-21.4818
-22.5461
-23.4178
-24.1672
-24.8585
-25.5468
-26.2756
-27.0606
-27.8713
-28.6311
-29.2498
-29.6735
-29.8795
-29.8345
-29.4993
-28.8749
-28.0151
-26.9939
-25.8719
-24.6899
-16.8551
-18.4182
-19.9129
-21.2231
-22.3084
-23.2131
-24.0091
-24.7578
-25.5088
-26.299
-27.1382
-27.993
-28.788
-29.4375
-29.8902
-30.1199
-30.0873
-29.7516
-29.1159
-28.2363
-27.1887
-26.0357
-24.8206
-16.2903
-17.8434
-19.3356
-20.6589
-21.781
-22.7505
-23.6402
-24.5072
-25.3925
-26.319
-27.2816
-28.2367
-29.1073
-29.8139
-30.3095
-30.5685
-30.549
-30.2112
-29.559
-28.6496
-27.5596
-26.3538
-25.0804
-15.4164
-16.9453
-18.4224
-19.756
-20.9295
-22.0005
-23.0421
-24.1038
-25.2123
-26.3677
-27.5379
-28.6589
-29.6479
-30.4344
-30.9814
-31.2672
-31.2542
-30.9073
-30.2318
-29.2818
-28.1316
-26.8478
-25.4865
-14.2
-15.6819
-17.1232
-18.4555
-19.6862
-20.8877
-22.1361
-23.476
-24.9125
-26.4093
-27.8898
-29.2539
-30.4079
-31.2949
-31.8962
-32.2022
-32.1879
-31.8264
-31.1242
-30.1274
-28.8994
-27.508
-26.0233
-14.0287
-15.3995
-16.7063
-17.9873
-19.3361
-20.8391
-22.5396
-24.4213
-26.3999
-28.3275
-30.04
-31.4168
-32.4169
-33.0612
-33.376
-33.3594
-32.9935
-32.2836
-31.2501
-29.9297
-28.3939
-26.7396
-12.0374
-13.2667
-14.4867
-15.7688
-17.2363
-19.0027
-21.1246
-23.5748
-26.2159
-28.7823
-30.9949
-32.6674
-33.7664
-34.401
-34.6825
-34.6566
-34.3236
-33.6799
-32.663
-31.2486
-29.5274
-27.6473
-9.86404
-10.8666
-11.896
-13.0612
-14.5351
-16.4894
-19.0338
-22.1657
-25.7023
-29.1813
-32.1217
-34.2067
-35.3791
-35.9106
-36.0915
-36.0696
-35.8849
-35.5003
-34.6046
-33.088
-31.1193
-28.9369
-7.73697
-8.4665
-9.18864
-10.0501
-11.2983
-13.2112
-16.027
-19.8563
-24.5274
-29.301
-33.3166
-35.7956
-36.8751
-37.0738
-36.9787
-36.9044
-37.2791
-37.7258
-37.1404
-35.5022
-33.1867
-30.578
-5.72774
-6.14692
-6.5152
-6.9419
-7.67618
-9.12998
-11.7827
-16.0484
-21.9615
-28.6615
-33.4064
-37.1687
-38.3427
-38.068
-37.5197
-37.425
-38.9828
-41.2996
-40.9999
-39.1469
-36.2928
-33.0274
-4.12249
-4.15503
-4.04471
-3.88647
-3.85523
-4.30549
-5.92279
-9.69611
-16.1668
-24.5505
-32.8223
-39.7519
-41.5392
-39.5019
-38.0358
-38.8652
-39.819
-44.5797
-44.0354
-41.9545
-38.4112
-34.3254
-2.90728
-2.55941
-1.92238
-1.02363
0.0171454
0.995971
1.54838
-1.80384
-6.3515
-16.2678
-30.2783
-41.3775
-49.6913
-43.4558
-38.6442
-40.2959
-41.2219
-43.8624
-44.6435
-42.52
-38.7199
-34.4446
-2.18635
-1.53564
-0.4748
1.04777
3.0525
5.45586
7.9616
7.63642
6.93927
2.36459
-8.24417
-32.5361
-81.6738
-57.7141
-39.9186
-40.5583
-41.2509
-42.9357
-43.0462
-39.7772
-36.8818
-33.5445
-1.67822
-0.917247
0.280217
1.99087
4.27065
7.02463
9.12743
11.7369
13.0138
12.5142
11.8689
41.7511
-38.3788
-39.236
-40.3954
-41.953
-41.5101
-38.6008
-36.2736
-33.4484
-1.11733
-0.485279
0.50948
1.90274
3.66868
5.61351
7.26819
8.65957
6.95052
-0.25454
-8.72176
-25.9593
-71.5879
-49.6853
-39.6864
-39.7365
-40.6701
-41.9065
-40.9451
-38.8638
-36.5143
-33.5534
-0.590442
-0.209567
0.402562
1.20368
2.05741
2.65828
2.36316
0.15836
-2.61151
-12.304
-24.9651
-35.4284
-43.3039
-41.4435
-39.1363
-39.3147
-40.935
-43.1963
-40.4715
-37.7806
-35.0293
-31.9949
0.313975
-0.118465
-1.5757
-4.76634
-10.2149
-15.4114
-23.6897
-29.6964
-32.8914
-33.8971
-35.0288
-36.7402
-37.5872
-39.3229
-38.0609
-36.0248
-33.8552
-31.5011
-2.16313
-4.01679
-7.09609
-11.4978
-16.6333
-21.6483
-25.4935
-28
-29.6888
-31.1512
-32.4972
-34.0158
-34.6849
-34.0026
-32.5224
-30.7649
-28.8788
-3.08518
-2.94903
-2.49928
-1.69485
-0.553822
0.827213
2.1896
4.60957
5.08684
-0.993364
-12.2567
-6.34164
-3.98196
-4.15359
-4.11825
-3.89333
-3.55019
-3.28415
-3.6233
-5.56721
-5.84123
-13.8411
-27.025
-36.618
-51.2602
-48.1266
-38.0833
-37.9787
-39.9214
-5.20589
-5.72266
-6.12537
-6.41913
-6.74394
-7.43864
-9.00322
-12.0486
-17.0163
-20.1009
-28.7236
-35.5275
-38.9658
-38.5452
-37.1943
-37.2404
-38.5116
-40.8293
-6.92468
-7.72553
-8.44988
-9.14117
-9.98588
-11.2881
-13.3721
-16.5247
-20.8441
-26.0148
-30.6585
-34.0842
-35.9607
-36.629
-36.9077
-37.2834
-37.7067
-38.0262
-38.4824
-37.9538
-36.2709
-33.9922
-8.87478
-9.93296
-10.9578
-11.9807
-13.1466
-14.6769
-16.7657
-19.5242
-22.9189
-26.6504
-30.138
-32.8256
-34.5183
-35.4384
-35.9924
-36.3831
-36.6059
-36.5325
-36.1298
-35.2283
-33.7353
-31.8121
-9.68385
-10.9442
-12.2467
-13.5069
-14.7147
-15.985
-17.4789
-19.3189
-21.5565
-24.1417
-26.8895
-29.4716
-31.5651
-33.0412
-33.9967
-34.6097
-34.9735
-35.0712
-34.8073
-34.1682
-33.1624
-31.7815
-30.1056
-28.2746
-11.4488
-12.877
-14.3577
-15.7716
-17.0612
-18.3058
-19.6384
-21.1564
-22.9052
-24.8651
-26.9231
-28.8924
-30.5747
-31.8579
-32.7555
-33.3424
-33.6595
-33.684
-33.3475
-32.6428
-31.6191
-30.3251
-28.826
-27.2075
-12.9952
-14.5062
-16.0767
-17.5704
-18.8866
-20.0643
-21.2194
-22.4422
-23.7853
-25.259
-26.8188
-28.3622
-29.7485
-30.8584
-31.659
-32.1801
-32.4456
-32.4308
-32.0759
-31.3699
-30.3743
-29.1642
-27.8021
-26.3475
-14.1795
-15.7302
-17.3531
-18.8972
-20.2263
-21.3478
-22.3617
-23.3555
-24.3879
-25.4994
-26.6934
-27.9229
-29.0843
-30.0553
-30.7709
-31.2378
-31.4712
-31.438
-31.079
-30.3864
-29.4268
-28.2846
-27.0222
-25.6857
-15.0194
-16.5935
-18.2474
-19.8195
-21.1478
-22.2181
-23.1211
-23.9467
-24.7626
-25.6233
-26.5616
-27.5674
-28.5666
-29.4393
-30.0931
-30.5181
-30.7277
-30.684
-30.3255
-29.6463
-28.7165
-27.6234
-26.4293
-25.1742
-15.5585
-17.1482
-18.8187
-20.4027
-21.7255
-22.762
-23.5976
-24.3188
-24.9949
-25.69
-26.4582
-27.3149
-28.2084
-29.022
-29.6421
-30.0452
-30.2441
-30.1978
-29.8406
-29.1692
-28.2567
-27.1922
-26.0382
-24.8316
-15.8226
-17.4211
-19.0989
-20.6863
-22.003
-23.0199
-23.8177
-24.4791
-25.0739
-25.6723
-26.3411
-27.112
-27.9487
-28.7382
-29.3547
-29.7638
-29.9734
-29.9358
-29.582
-28.9131
-28.0067
-26.954
-25.8173
-24.6322
-15.8205
-17.4219
-19.1028
-20.693
-22.0116
-23.0286
-23.8247
-24.4824
-25.0678
-25.6502
-26.299
-27.0512
-27.8771
-28.668
-29.2991
-29.7322
-29.9657
-29.9422
-29.5905
-28.9158
-28.0012
-26.94
-25.7954
-24.6037
-17.1546
-18.8345
-20.4273
-21.7565
-22.793
-23.6218
-24.3292
-24.9757
-25.6227
-26.3319
-27.134
-27.9961
-28.8145
-29.4754
-29.9463
-30.2123
-30.2054
-29.8543
-29.1671
-28.2307
-27.1413
-25.9638
-24.7374
-16.6025
-18.2719
-19.8597
-21.2006
-22.2742
-23.1685
-23.9696
-24.7368
-25.5222
-26.3692
-27.2925
-28.2492
-29.1382
-29.856
-30.3758
-30.6752
-30.6823
-30.3281
-29.6222
-28.6524
-27.5168
-26.2834
-24.9961
-15.7465
-17.3889
-18.954
-20.3009
-21.4294
-22.433
-23.3941
-24.3643
-25.3822
-26.4641
-27.5932
-28.7055
-29.7007
-30.4958
-31.071
-31.3985
-31.4105
-31.0447
-30.3098
-29.2921
-28.0898
-26.7734
-25.3948
-14.5292
-16.1216
-17.6399
-18.9777
-20.1659
-21.3115
-22.4981
-23.7735
-25.148
-26.5922
-28.0352
-29.3763
-30.5169
-31.4064
-32.0362
-32.3823
-32.3868
-31.9946
-31.2169
-30.1374
-28.846
-27.4136
-25.9056
-14.4155
-15.8528
-17.1637
-18.4185
-19.7409
-21.2218
-22.905
-24.7742
-26.7352
-28.6305
-30.2947
-31.6287
-32.6197
-33.2933
-33.6498
-33.6449
-33.2175
-32.3904
-31.2422
-29.8382
-28.2469
-26.5596
-12.3095
-13.5889
-14.8156
-16.0948
-17.5782
-19.3844
-21.5661
-24.082
-26.7757
-29.3376
-31.4685
-33.0383
-34.0958
-34.7641
-35.0955
-35.0707
-34.6242
-33.7815
-32.5917
-31.065
-29.2692
-27.3448
-10.0071
-11.0427
-12.0779
-13.2504
-14.774
-16.8397
-19.5603
-22.9194
-26.6702
-30.205
-33.0142
-34.8691
-35.9086
-36.4708
-36.7106
-36.6626
-36.252
-35.5112
-34.3595
-32.7032
-30.6353
-28.3976
-7.82456
-8.56411
-9.26956
-10.1222
-11.4257
-13.5036
-16.6351
-20.946
-26.227
-30.9773
-34.6859
-36.8046
-37.6344
-37.8879
-37.9498
-37.893
-37.6538
-37.4734
-36.6245
-34.808
-32.3349
-29.6754
-5.85284
-6.28768
-6.62961
-7.00755
-7.74486
-9.34939
-12.4303
-17.4285
-23.055
-29.5813
-35.4687
-38.5514
-39.1904
-38.7557
-38.252
-38.159
-38.35
-39.9945
-40.2669
-38.1325
-34.9323
-31.7104
-4.40651
-4.41217
-4.23888
-3.97791
-3.81934
-4.24696
-6.23654
-11.5113
-18.3039
-28.9443
-38.5594
-44.0243
-43.4336
-40.6956
-38.4593
-38.5826
-40.0368
-41.6749
-44.8747
-42.0827
-37.7319
-33.5387
-3.31225
-2.90366
-2.15137
-1.06625
0.238027
1.52128
-0.27761
-1.48753
-9.14258
-22.5096
-40.4516
-54.3158
-63.028
-59.1692
-38.5239
-39.5106
-40.9538
-44.1254
-45.9442
-43.5763
-39.1452
-34.6921
-2.64096
-1.89213
-0.671726
1.10254
3.51172
6.56153
7.26505
10.1429
6.13801
-10.5195
11.0244
-42.2072
-43.9025
-45.3313
-42.2784
-37.2427
-34.0404
-2.06724
-1.22517
0.115503
2.07702
4.82809
8.48366
11.2162
15.5838
16.0426
10.0209
-42.7408
-42.1817
-39.4865
-36.289
-33.8149
-1.51167
-0.790957
0.350399
1.96037
4.07086
6.54374
9.14627
11.6731
9.70661
-3.45786
4.27677
-40.6647
-42.4037
-41.6249
-38.6976
-36.7178
-33.7958
-0.678392
-0.235549
0.482821
1.45096
2.54889
3.38238
3.13051
3.49894
-3.09173
-16.6789
-30.5079
-42.2363
-49.9652
-46.1112
-36.4338
-38.4902
-40.8272
-42.3659
-40.4849
-37.6333
-35.1601
-32.2639
0.721835
0.3901
-1.15957
-4.77342
-7.96469
-17.5723
-26.0961
-31.5407
-32.9557
-33.7667
-35.0603
-37.0847
-38.8021
-38.4233
-37.6345
-35.4293
-33.0788
-30.7093
-1.96465
-3.89813
-7.27999
-12.1644
-17.6858
-22.6185
-26.0656
-28.1936
-29.8571
-31.5739
-33.2168
-34.3293
-34.6927
-33.7789
-32.0597
-30.1208
-28.1931
-3.54086
-3.45714
-3.00839
-2.12755
-0.775193
0.97313
2.77009
7.0768
4.503
-7.04714
-1.02572
-4.23214
-4.43089
-4.38474
-4.08644
-3.59747
-3.21579
-3.63512
-2.31365
-7.77415
-22.7183
-40.0701
-59.1455
-51.8033
-41.5066
-36.2476
-36.742
-39.4547
-42.225
-5.22446
-5.84074
-6.28045
-6.52853
-6.79825
-7.57061
-9.4445
-13.2886
-15.0948
-24.9914
-35.3914
-40.9674
-40.8252
-38.9275
-38.1649
-38.9938
-40.2344
-40.9565
-5.93005
-6.8933
-7.80948
-8.58132
-9.24318
-10.0845
-11.5452
-13.9685
-17.7878
-23.1008
-28.5892
-33.4616
-36.4597
-37.6457
-37.8884
-38.389
-39.0736
-39.4207
-39.0887
-7.77065
-8.97785
-10.2137
-11.3415
-12.3564
-13.5253
-15.1896
-17.5123
-20.6172
-24.4427
-28.4566
-31.9451
-34.3556
-35.6684
-36.4327
-37.1688
-37.6051
-37.7785
-37.2809
-36.2267
-34.8391
-33.0496
-30.9444
-9.84105
-11.3303
-12.8703
-14.2497
-15.4425
-16.6832
-18.191
-20.0877
-22.4042
-25.0987
-27.9261
-30.4816
-32.4523
-33.7819
-34.6914
-35.3682
-35.7955
-35.9028
-35.3861
-34.3516
-33.0102
-31.4165
-29.6129
-27.7075
-11.8436
-13.5211
-15.2707
-16.8189
-18.0608
-19.1942
-20.418
-21.8373
-23.5179
-25.4487
-27.503
-29.4692
-31.1139
-32.336
-33.2041
-33.8233
-34.1748
-34.2054
-33.732
-32.7865
-31.5466
-30.1066
-28.5173
-26.8494
-13.497
-15.2096
-17.0463
-18.7025
-19.9755
-20.9997
-21.9909
-23.0489
-24.2519
-25.6242
-27.1345
-28.6817
-30.0735
-31.155
-31.9177
-32.4344
-32.7356
-32.7494
-32.3275
-31.4646
-30.3183
-29.0053
-27.581
-26.0946
-14.6563
-16.3771
-18.2776
-20.0249
-21.3511
-22.3083
-23.1406
-23.9293
-24.7804
-25.7562
-26.8771
-28.1147
-29.3104
-30.2799
-30.955
-31.4059
-31.6767
-31.6777
-31.2712
-30.4554
-29.374
-28.1508
-26.8428
-25.4848
-15.4399
-17.1725
-19.1159
-20.917
-22.2587
-23.1676
-23.8796
-24.5064
-25.1273
-25.8187
-26.6528
-27.653
-28.7161
-29.6253
-30.2435
-30.6446
-30.8937
-30.8908
-30.4931
-29.7013
-28.6608
-27.4965
-26.2653
-24.9943
-15.9427
-17.6862
-19.6485
-21.4705
-22.8139
-23.7088
-24.3704
-24.9028
-25.3737
-25.8742
-26.5141
-27.3508
-28.3249
-29.2036
-29.7945
-30.1689
-30.411
-30.4091
-30.0125
-29.2281
-28.2042
-27.0696
-25.8808
-24.66
-16.1856
-17.9408
-19.9142
-21.7415
-23.0823
-23.9707
-24.6024
-25.0732
-25.4508
-25.8346
-26.352
-27.0858
-28.0096
-28.8854
-29.4886
-29.8798
-30.1451
-30.1565
-29.7596
-28.9742
-27.9551
-26.8323
-25.6612
-24.4621
-16.1835
-17.9425
-19.9206
-21.7524
-23.096
-23.984
-24.6161
-25.0867
-25.4535
-25.8136
-26.2987
-26.9999
-27.9024
-28.7772
-29.4037
-29.838
-30.1471
-30.1822
-29.7858
-28.9903
-27.96
-26.8268
-25.6461
-24.4385
-17.6941
-19.6692
-21.5046
-22.8586
-23.7525
-24.4085
-24.9331
-25.368
-25.7976
-26.3418
-27.0827
-27.9955
-28.8733
-29.526
-30.0264
-30.3927
-30.4571
-30.0654
-29.2568
-28.2036
-27.0402
-25.8238
-24.5791
-17.1809
-19.1454
-20.971
-22.3339
-23.2511
-23.9592
-24.5641
-25.1211
-25.6977
-26.379
-27.2326
-28.2174
-29.1524
-29.8416
-30.4195
-30.8425
-30.9335
-30.5471
-29.7215
-28.6345
-27.4225
-26.1461
-24.837
-16.3872
-18.3148
-20.0962
-21.4548
-22.4296
-23.2575
-24.0132
-24.7812
-25.6109
-26.5377
-27.5893
-28.6907
-29.6999
-30.47
-31.1186
-31.5734
-31.6719
-31.2772
-30.4209
-29.2792
-27.9924
-26.6251
-25.2191
-15.2264
-17.0934
-18.7896
-20.1024
-21.1516
-22.1399
-23.1565
-24.2654
-25.4785
-26.7817
-28.1325
-29.4213
-30.5375
-31.4428
-32.1568
-32.6266
-32.7058
-32.2687
-31.3482
-30.1239
-28.7281
-27.2287
-25.6841
-15.328
-16.9148
-18.1961
-19.3538
-20.5706
-21.9411
-23.5237
-25.299
-27.1691
-28.975
-30.5448
-31.8184
-32.8323
-33.6052
-34.1031
-34.1505
-33.6141
-32.5752
-31.2246
-29.6722
-27.9851
-26.2456
-12.9262
-14.3344
-15.5603
-16.8175
-18.3093
-20.1541
-22.3744
-24.9247
-27.6228
-30.1007
-32.0641
-33.481
-34.5366
-35.3404
-35.8175
-35.8678
-35.2266
-34.0315
-32.5154
-30.7612
-28.8288
-26.8343
-10.265
-11.4035
-12.4386
-13.6176
-15.2622
-17.5343
-20.5471
-24.2495
-28.2599
-31.7706
-34.2554
-35.707
-36.604
-37.4022
-37.7806
-37.7926
-37.0645
-35.7353
-34.0694
-32.0624
-29.798
-27.4677
-7.88892
-8.66495
-9.33705
-10.1828
-11.63
-14.0143
-17.7163
-22.7511
-28.7591
-33.6277
-36.7153
-38.1116
-38.4996
-39.002
-39.4825
-39.5097
-38.8101
-37.5156
-35.9722
-33.7048
-30.9464
-28.1267
-5.97628
-6.45135
-6.74479
-7.0534
-7.85555
-9.75225
-13.6407
-19.4897
-26.613
-34.1546
-38.6376
-39.939
-39.6497
-39.5572
-39.8806
-40.1209
-39.7533
-39.0551
-38.1918
-36.0566
-32.6939
-29.3008
-4.7409
-4.73094
-4.48642
-4.06962
-3.76598
-4.2597
-8.10595
-13.4794
-23.9818
-38.6356
-46.3776
-45.0343
-41.1034
-39.4635
-40.0986
-40.9388
-40.824
-41.3758
-41.2833
-38.6588
-34.3507
-29.7855
-3.88038
-3.45259
-2.60399
-1.30545
0.372665
2.09196
0.828829
-3.51616
-17.3841
-45.2579
-71.0071
-62.0542
-48.908
-40.9376
-42.2665
-40.4949
-39.5222
-43.1668
-45.5575
-43.893
-36.7638
-32.9496
-3.35457
-2.48217
-1.05165
1.03992
3.85569
5.50367
10.5329
11.3936
1.9068
-45.4879
-47.6483
-42.3853
-37.3546
-34.2372
-2.46442
-1.45369
0.121332
2.40724
5.54031
8.92257
15.4761
19.8393
24.068
-44.1168
-39.352
-37.0239
-34.6481
-1.47968
-0.666966
0.65674
2.58734
5.24586
8.732
12.9467
15.8223
10.4914
-42.9763
-41.6537
-39.0826
-36.7431
-33.6544
-0.787666
-0.256915
0.615579
1.85231
3.40259
4.92224
6.79352
5.39542
-6.22468
-27.1058
-45.598
-45.7707
-37.6045
-34.7263
-42.7553
-44.1936
-42.2471
-44.0464
-41.1652
-36.5278
-34.0261
-31.4716
1.05156
0.892457
-0.755608
-2.29495
-10.7633
-22.3739
-30.3119
-32.28
-31.7794
-32.5124
-35.4878
-39.7503
-42.0862
-41.3858
-37.434
-34.6913
-32.105
-29.7705
-2.05732
-4.22353
-8.21149
-13.6822
-19.7033
-24.2529
-26.6539
-28.0575
-29.6528
-31.8553
-34.2817
-35.8502
-35.6625
-34.1173
-31.8512
-29.6237
-27.6201
-3.94194
-3.87043
-3.40967
-2.44869
-0.954863
0.886472
4.34928
6.45129
4.71504
-4.34543
-4.98049
-5.24312
-5.18248
-4.74552
-4.07582
-3.6733
-4.36243
-3.60447
-13.5596
-32.5667
-61.2346
-56.1245
-40.7363
-33.7883
-34.2291
-37.1826
-44.1868
-42.1088
-5.43091
-6.27446
-6.81422
-7.06038
-7.25712
-8.29399
-10.4691
-14.9496
-18.1896
-31.1193
-40.8346
-42.1507
-39.3808
-37.9272
-38.946
-41.4314
-43.2079
-42.2029
-5.51754
-6.71322
-7.9051
-8.86437
-9.49923
-10.2943
-12.2205
-15.2114
-19.7833
-25.95
-31.8642
-36.317
-38.1251
-39.0282
-39.0447
-40.0558
-41.3618
-42.0455
-40.151
-7.51266
-8.942
-10.4936
-11.9409
-12.9686
-14.1278
-16.1724
-18.9728
-22.4883
-26.6454
-30.8398
-33.9929
-35.7559
-36.4876
-37.2704
-38.4648
-39.4892
-39.3878
-38.2546
-36.4785
-34.3884
-32.1165
-29.7275
-9.8697
-11.7874
-13.7976
-15.4326
-16.6921
-18.0097
-19.6039
-21.6964
-23.9907
-26.637
-29.3897
-31.7782
-33.4455
-34.4775
-35.3407
-36.232
-36.8525
-37.0569
-36.154
-34.6295
-32.8189
-30.8807
-28.8828
-26.9009
-12.3197
-14.5109
-16.854
-18.665
-19.8383
-20.8606
-21.9348
-23.1646
-24.7761
-26.5119
-28.4245
-30.31
-31.8318
-32.907
-33.72
-34.4583
-34.9115
-34.9698
-34.2918
-32.9974
-31.4474
-29.7827
-28.0603
-26.3358
-14.253
-16.3635
-18.7793
-20.7366
-21.9055
-22.6747
-23.3848
-24.1329
-25.0558
-26.2382
-27.6496
-29.287
-30.6703
-31.6511
-32.2828
-32.7546
-33.1833
-33.3241
-32.7912
-31.6405
-30.2548
-28.7881
-27.2757
-25.7511
-13.8652
-15.3778
-17.4166
-19.8925
-21.9866
-23.4141
-24.1045
-24.7014
-25.0018
-25.408
-26.0782
-27.0509
-28.4258
-29.7431
-30.7038
-31.2566
-31.6703
-32.0628
-32.1803
-31.6794
-30.6053
-29.3062
-27.9594
-26.5905
-25.2103
-14.5601
-16.0209
-18.0476
-20.5865
-22.7924
-24.2453
-24.8963
-25.2755
-25.5217
-25.751
-26.0965
-26.7348
-27.7781
-29.054
-30.0425
-30.5348
-30.8868
-31.2666
-31.3887
-30.9053
-29.8658
-28.6035
-27.3166
-26.0332
-24.7469
-14.9814
-16.442
-18.4777
-21.0478
-23.2936
-24.707
-25.381
-25.735
-25.9132
-25.9868
-26.1015
-26.4996
-27.2993
-28.5517
-29.6075
-30.0901
-30.4127
-30.8071
-30.9331
-30.4518
-29.4231
-28.172
-26.9103
-25.6696
-24.4345
-16.6605
-18.7161
-21.3166
-23.5638
-24.9617
-25.6561
-25.9916
-26.0961
-26.0522
-26.0136
-26.2423
-26.9011
-28.1372
-29.2567
-29.7905
-30.1544
-30.5977
-30.7292
-30.2294
-29.1927
-27.9454
-26.6929
-25.4673
-24.2516
-16.6524
-18.7134
-21.3219
-23.5754
-24.981
-25.6752
-26.029
-26.1435
-26.0832
-26.0051
-26.1781
-26.7759
-27.9648
-29.0737
-29.6506
-30.0959
-30.6238
-30.7915
-30.2816
-29.2248
-27.9627
-26.699
-25.4629
-24.2374
-16.4294
-18.48
-21.0693
-23.337
-24.7704
-25.4343
-25.8178
-26.0078
-26.0289
-26.029
-26.2596
-26.8782
-28.002
-29.0472
-29.6656
-30.2353
-30.857
-31.0807
-30.5834
-29.508
-28.2175
-26.9215
-25.6478
-24.3829
-18.0437
-20.6143
-22.8626
-24.3508
-25.0145
-25.4179
-25.6589
-25.8027
-25.9625
-26.3261
-27.0956
-28.2398
-29.3799
-29.9031
-30.5683
-31.2586
-31.5362
-31.0595
-29.9647
-28.6423
-27.2993
-25.963
-24.6307
-17.4069
-19.9225
-22.0761
-23.5639
-24.2912
-24.9012
-25.1916
-25.4958
-25.9312
-26.5488
-27.5622
-28.7162
-29.8666
-30.5028
-31.2484
-31.9506
-32.2523
-31.7846
-30.6598
-29.2913
-27.8753
-26.4401
-25.0027
-16.3601
-18.8224
-20.8497
-22.0944
-22.9242
-23.6557
-24.3707
-25.1781
-26.1088
-27.138
-28.3833
-29.5449
-30.5859
-31.5173
-32.3376
-33.044
-33.3234
-32.8041
-31.6073
-30.1503
-28.6005
-27.0055
-25.4128
-16.9083
-18.79
-20.0426
-21.1231
-22.2051
-23.3828
-24.8731
-26.3564
-27.9114
-29.4451
-30.7792
-31.9327
-33.0097
-33.9081
-34.8193
-34.9445
-34.1921
-32.8429
-31.215
-29.447
-27.6238
-25.8225
-13.8511
-15.5369
-16.8635
-18.221
-19.7994
-21.8295
-23.9875
-26.4013
-28.8632
-31.0057
-32.5806
-33.7315
-34.8388
-35.9556
-36.6956
-36.9373
-35.9791
-34.3679
-32.4342
-30.3525
-28.2281
-26.16
-10.5347
-11.9926
-13.061
-14.2494
-16.2664
-18.9912
-22.365
-26.3426
-30.3777
-33.427
-35.2137
-36.0988
-37.0577
-37.445
-38.2315
-39.2557
-38.0294
-36.1104
-33.8198
-31.3438
-28.8017
-26.3696
-7.96312
-8.91513
-9.55893
-10.3654
-12.2648
-15.1866
-19.5931
-25.5826
-31.536
-35.9762
-37.9057
-37.8327
-38.4559
-39.45
-40.4365
-40.7056
-39.8327
-37.7803
-35.2113
-32.4151
-29.3657
-26.3997
-6.41043
-6.96338
-7.23035
-7.45352
-8.50929
-10.6734
-14.8678
-21.2449
-30.6898
-37.8523
-40.2612
-39.7446
-39.4233
-40.4883
-41.9127
-42.65
-41.316
-39.5499
-37.151
-33.129
-30.0211
-26.7273
-5.55855
-5.53218
-5.13782
-4.51354
-4.17264
-5.06506
-9.43319
-16.2994
-32.0147
-46.0456
-46.4823
-40.1235
-37.5599
-38.673
-41.637
-43.57
-42.1735
-40.6984
-38.7719
-35.5484
-29.5638
-25.1229
-4.37142
-3.90106
-2.94768
-1.47796
0.318349
-0.0970886
0.104899
-9.32362
-34.752
-79.9841
-72.1495
-42.8473
-34.1287
-34.8157
-38.5335
-47.6406
-43.4245
-39.9125
-39.3687
-38
-35.4478
-31.2115
-3.52846
-2.71235
-1.25056
1.09491
4.59155
6.92676
12.1855
6.72806
-41.385
-40.4636
-39.0941
-35.2986
-2.87021
-1.8476
-0.109781
2.65492
6.97918
11.5066
21.9134
29.7633
-41.9562
-40.6343
-39.841
-36.2514
-1.34214
-0.457314
1.04004
3.37657
6.86783
10.9544
19.9446
28.0623
-42.8214
-38.8145
-35.6737
-32.8048
-0.311296
0.229787
1.18575
2.63232
4.59886
7.00896
10.7622
8.24052
-6.55839
-66.3753
-63.4337
-36.0008
-25.3859
-24.88
-31.7411
-62.1844
-73.7778
-57.3326
-43.5412
-37.7821
-32.6793
-30.2545
1.51692
1.57149
0.104699
-2.07538
-14.3268
-28.7501
-33.7579
-31.1223
-28.7923
-29.5509
-33.2422
-40.7118
-48.2189
-47.5256
-41.3686
-34.2163
-31.1558
-28.7083
-2.11398
-4.44541
-9.04498
-15.4322
-21.8571
-25.5172
-26.6757
-27.4539
-28.9736
-31.5096
-34.851
-37.6274
-37.6936
-35.0517
-31.863
-29.0929
-26.8626
-4.18716
-4.27642
-3.85352
-2.79614
-1.06142
1.12224
4.8651
6.99137
0.962572
-4.33259
-4.87085
-5.01697
-4.72679
-4.06023
-3.54322
-4.6031
-5.65416
-18.9381
-48.3223
-57.9612
-44.5589
-35.0645
-34.0343
-31.5219
-45.9558
-44.5191
-45.3919
-4.92398
-5.90928
-6.5261
-6.93802
-6.72467
-6.24652
-8.12553
-13.3248
-22.5538
-35.1431
-42.158
-40.5105
-36.9847
-36.8085
-41.385
-45.611
-47.4199
-43.7761
-4.92547
-6.31413
-7.99159
-9.30201
-9.82934
-8.10993
-10.072
-13.4021
-19.0052
-27.0043
-34.8194
-39.3867
-39.8852
-38.7293
-39.8674
-42.5992
-44.2224
-45.7902
-42.6514
-37.8653
-7.26318
-7.72026
-9.43756
-12.9408
-14.134
-13.1232
-15.142
-18.5648
-22.8913
-27.8215
-33.0148
-35.6036
-36.9649
-37.8496
-38.6555
-40.436
-41.4808
-42.3969
-40.0986
-36.364
-33.8035
-31.1875
-28.5953
-8.8025
-11.3688
-13.6407
-15.0702
-16.3845
-18.2074
-19.7411
-23.8126
-25.8374
-28.1987
-30.5213
-32.743
-34.1451
-34.9093
-35.6259
-37.3624
-38.5223
-39.2816
-36.53
-34.7394
-32.6455
-30.418
-28.2349
-26.2004
-11.7956
-14.5006
-17.6726
-19.7111
-20.6036
-21.6109
-22.5251
-23.1728
-25.9822
-27.4696
-29.2366
-31.0029
-32.3873
-33.2272
-33.9861
-34.3797
-35.6399
-36.4429
-34.6576
-33.0812
-31.3365
-29.4749
-27.6279
-25.8691
-14.0886
-16.5362
-19.8267
-22.3241
-23.1161
-23.7799
-24.2988
-24.7344
-25.0282
-26.0303
-27.3859
-29.5615
-31.0136
-31.9042
-32.3063
-32.5225
-33.2992
-33.8938
-33.1824
-31.7008
-30.1047
-28.4897
-26.8952
-25.3545
-13.9447
-15.0822
-17.4141
-20.8719
-23.6977
-25.7296
-26.1252
-25.6874
-25.9053
-25.8806
-26.1357
-26.8288
-28.4477
-30.0221
-30.9161
-31.2013
-31.5448
-32.2184
-32.6674
-32.1078
-30.6959
-29.1492
-27.6599
-26.2227
-24.8303
-14.7086
-15.5885
-17.8387
-21.3863
-24.3951
-26.467
-26.9416
-26.9727
-26.7714
-26.4049
-26.1154
-26.3803
-27.5679
-29.4076
-30.3851
-30.4947
-30.7938
-31.5164
-31.9703
-31.3452
-30.0226
-28.4821
-27.0283
-25.6705
-24.3695
-15.0849
-15.8979
-18.1263
-21.702
-24.7997
-26.8974
-27.6031
-27.6664
-27.3782
-26.8219
-26.2502
-26.3459
-26.9882
-28.9106
-30.0714
-30.1041
-30.3812
-31.1911
-31.6013
-30.9433
-29.5965
-28.0561
-26.6154
-25.2939
-24.0425
-16.1369
-18.3536
-21.9512
-25.0549
-27.1569
-27.9217
-27.993
-27.6146
-26.8925
-26.0873
-25.8969
-26.3318
-28.3248
-29.6738
-29.7918
-30.1797
-31.1161
-31.4774
-30.7565
-29.372
-27.8369
-26.4012
-25.0878
-23.8507
-16.2004
-18.4364
-22.0681
-25.1898
-27.1649
-27.9064
-28.0591
-27.7275
-26.9855
-26.1185
-25.8348
-26.1677
-28.0538
-29.3449
-29.5491
-30.1254
-31.2382
-31.6289
-30.8562
-29.4301
-27.8731
-26.4232
-25.096
-23.8457
-16.0279
-18.2659
-21.8742
-25.0122
-27.0035
-27.4731
-27.8064
-27.6025
-26.9887
-26.2408
-26.0351
-26.3374
-27.9433
-28.9364
-29.3959
-30.2128
-31.4443
-31.9518
-31.2061
-29.774
-28.1766
-26.6882
-25.3205
-24.0274
-17.9747
-21.5736
-24.6676
-26.6317
-27.0802
-27.2194
-27.0648
-26.6055
-26.022
-25.7733
-26.426
-27.9355
-29.0377
-29.5736
-30.4978
-31.7194
-32.3698
-31.6866
-30.2635
-28.6311
-27.0971
-25.6663
-24.3028
-17.6396
-21.1813
-24.1261
-25.9706
-26.4213
-26.6288
-26.7251
-26.4951
-26.251
-26.1471
-26.9551
-28.1727
-28.982
-30.1003
-31.0679
-32.1851
-32.911
-32.3788
-30.882
-29.2465
-27.6745
-26.1565
-24.6927
-16.9812
-20.4381
-23.2634
-24.3647
-25.0306
-25.3131
-25.759
-25.8586
-26.1425
-26.5178
-28.0393
-29.0415
-29.9337
-31.1248
-32.0749
-33.0691
-33.9086
-33.2725
-31.7541
-30.0997
-28.4069
-26.7262
-25.1088
-19.0041
-21.3733
-22.3168
-23.2746
-24.0654
-24.5355
-26.3227
-27.441
-28.5623
-29.5982
-30.562
-31.555
-32.9112
-33.6075
-34.4424
-35.3085
-34.5912
-33.0073
-31.2187
-29.2699
-27.3261
-25.4865
-15.9019
-17.9154
-19.1588
-20.5259
-21.6958
-24.137
-25.9855
-27.9848
-29.7395
-31.4329
-32.5777
-33.5575
-34.7403
-35.4886
-36.5837
-37.5483
-36.3465
-34.5463
-32.4032
-30.07
-27.7748
-25.6534
-11.8261
-13.0038
-14.2967
-16.3799
-18.2351
-21.1457
-24.1386
-27.4679
-32.3698
-34.6526
-35.9212
-35.6725
-36.6878
-38.4631
-39.6669
-40.3372
-38.5321
-36.1323
-33.4874
-30.7136
-27.9837
-25.5215
-7.96634
-9.36485
-9.93626
-11.287
-13.0832
-16.4981
-21.4395
-27.4837
-33.2994
-36.8444
-38.0126
-37.8759
-39.2882
-41.6016
-42.723
-43.7936
-40.8085
-37.6744
-34.3325
-31.1381
-27.8253
-24.8874
-6.00972
-6.6651
-7.08037
-6.90452
-8.68086
-11.1989
-16.0263
-25.0869
-34.8706
-40.4817
-40.4819
-38.4391
-39.3735
-42.8373
-44.0711
-46.5583
-43.0763
-39.7217
-36.233
-31.6025
-27.7452
-24.3053
-5.14759
-5.28308
-4.97485
-4.28762
-3.69241
-6.16402
-10.0541
-19.8897
-36.6264
-46.179
-42.3803
-36.3585
-36.3657
-40.5576
-46.0883
-47.374
-44.5666
-42.458
-39.3295
-33.8636
-26.9323
-23.9184
-4.57059
-4.14083
-3.0871
-1.35227
0.860211
0.247267
-1.01952
-15.2986
-65.6029
-76.0512
-50.0395
-35.5573
-35.0297
-33.7093
-41.8427
-43.8678
-44.4167
-42.6441
-40.8896
-36.8532
-32.4437
-27.9888
-3.52098
-2.63374
-0.95381
1.85791
6.26243
9.43009
15.8936
3.53175
-41.5401
-44.0296
-41.4165
-34.246
-2.08717
-1.08095
0.791673
4.05055
9.6832
17.0122
29.9501
-47.6222
-43.5272
-34.026
-0.661279
0.154179
1.72056
4.43387
8.98809
16.4324
31.0121
50.2242
-60.9944
-40.0091
-37.075
-29.7829
0.0385059
0.531471
1.5146
3.13359
5.51003
9.53482
15.4393
15.7191
-31.517
-82.016
-58.8333
-25.2281
-24.2164
-24.2842
-22.4991
-35.4903
-108.833
-111.877
-52.6313
-38.5266
-31.1364
-28.1993
1.64571
1.69644
3.02873
-2.87928
-19.0713
-34.2008
-34.3485
-28.4165
-27.1388
-27.9589
-30.936
-38.6964
-52.3319
-56.0796
-46.0739
-34.3605
-30.2095
-27.3313
-2.50245
-5.18678
-10.0642
-17.2757
-23.6872
-26.2216
-26.4356
-26.9752
-28.514
-31.1886
-34.9844
-38.9188
-39.7535
-36.3907
-32.0533
-28.5242
-25.9518
-4.643
-4.66656
-4.13804
-2.89876
-0.930171
1.64068
6.76113
8.32296
-13.0586
-4.87188
-5.36715
-5.30106
-4.54711
-3.52459
-2.05574
-1.269
-3.31001
-14.8446
-40.8201
-60.779
-47.3886
-35.805
-36.3459
-33.4703
-52.2069
-52.0954
-46.8989
-43.3211
-4.91525
-6.11431
-6.36114
-6.26193
-5.68378
-5.42683
-6.15627
-10.333
-22.8335
-38.3939
-50.2974
-46.5695
-38.84
-37.9305
-47.0582
-51.6136
-43.882
-40.3417
-3.19253
-5.22291
-7.79357
-7.15385
-7.55446
-8.66765
-10.0656
-14.3706
-24.161
-33.7599
-45.0733
-46.9182
-43.8298
-40.0335
-42.2508
-51.8671
-45.3895
-51.7542
-44.2121
-38.1366
-4.85606
-6.98984
-9.94549
-11.68
-12.4448
-14.4943
-18.5128
-23.886
-29.5465
-34.4008
-37.143
-37.2377
-37.5763
-37.8495
-39.4456
-42.2137
-41.0081
-46.1226
-41.1397
-35.7733
-32.7875
-30.2036
-27.7104
-11.6328
-16.3947
-18.6647
-19.9355
-22.1622
-24.1263
-25.351
-27.5003
-30.1845
-31.8697
-33.5882
-34.3679
-35.1899
-35.9324
-37.2652
-38.3129
-42.1584
-38.4377
-33.6718
-31.6506
-29.5573
-27.4979
-25.6234
-17.1428
-23.0657
-24.3172
-24.3817
-25.4856
-26.2267
-26.5916
-26.9733
-27.8778
-29.5982
-31.5683
-33.2569
-33.4838
-34.2288
-34.8324
-35.7091
-38.5869
-35.888
-32.5762
-30.835
-28.9753
-27.16
-25.4813
-15.7363
-18.3715
-24.1254
-27.1848
-26.6476
-26.8722
-27.1249
-27.0748
-26.7662
-26.9425
-28.1533
-30.0948
-31.5716
-32.2371
-32.3073