/*--------------------------------*- C++ -*----------------------------------*\
  =========                 |
  \\      /  F ield         | OpenFOAM: The Open Source CFD Toolbox
   \\    /   O peration     | Website:  https://openfoam.org
    \\  /    A nd           | Version:  13
     \\/     M anipulation  |
\*---------------------------------------------------------------------------*/
FoamFile
{
    format      ascii;
    class       volScalarField;
    location    "500";
    object      nut;
}
// * * * * * * * * * * * * * * * * * * * * * * * * * * * * * * * * * * * * * //

dimensions      [0 2 -1 0 0 0 0];

internalField   nonuniform List<scalar> 
171745
(
0.0187239
0.0187105
0.0186972
0.018684
0.0186709
0.018658
0.0186451
0.0186322
0.0186195
0.0186067
0.0185939
0.0185811
0.0185682
0.0185552
0.0185422
0.0185291
0.0185159
0.0185027
0.0184894
0.0184761
0.0184629
0.0184497
0.0184366
0.0184236
0.018725
0.0187115
0.0186982
0.018685
0.0186719
0.018659
0.0186461
0.0186334
0.0186206
0.0186079
0.0185952
0.0185824
0.0185696
0.0185567
0.0185437
0.0185307
0.0185175
0.0185044
0.0184912
0.0184779
0.0184648
0.0184517
0.0184386
0.0184258
0.0187271
0.0187136
0.0187003
0.0186872
0.0186741
0.0186612
0.0186484
0.0186357
0.018623
0.0186104
0.0185977
0.0185851
0.0185723
0.0185595
0.0185467
0.0185338
0.0185208
0.0185077
0.0184946
0.0184815
0.0184685
0.0184555
0.0184426
0.0184299
0.0187305
0.018717
0.0187037
0.0186906
0.0186776
0.0186648
0.0186521
0.0186394
0.0186269
0.0186143
0.0186018
0.0185893
0.0185768
0.0185642
0.0185515
0.0185387
0.0185259
0.0185131
0.0185002
0.0184873
0.0184745
0.0184617
0.018449
0.0184365
0.0187355
0.0187221
0.0187088
0.0186957
0.0186828
0.01867
0.0186574
0.0186449
0.0186325
0.0186202
0.0186079
0.0185956
0.0185832
0.0185709
0.0185584
0.018546
0.0185334
0.0185208
0.0185082
0.0184956
0.0184831
0.0184706
0.0184582
0.018446
0.0187426
0.0187291
0.0187159
0.0187028
0.01869
0.0186774
0.0186649
0.0186526
0.0186404
0.0186283
0.0186163
0.0186043
0.0185923
0.0185802
0.0185681
0.018556
0.0185438
0.0185316
0.0185194
0.0185072
0.018495
0.0184829
0.0184709
0.0184591
0.0187524
0.0187389
0.0187257
0.0187128
0.0187001
0.0186876
0.0186754
0.0186633
0.0186514
0.0186396
0.018628
0.0186163
0.0186047
0.0185931
0.0185815
0.0185698
0.0185581
0.0185463
0.0185346
0.0185229
0.0185112
0.0184996
0.0184881
0.0184767
0.0187659
0.0187526
0.0187395
0.0187267
0.0187142
0.018702
0.01869
0.0186783
0.0186667
0.0186554
0.0186441
0.018633
0.0186219
0.0186109
0.0185998
0.0185887
0.0185776
0.0185665
0.0185553
0.0185442
0.0185331
0.0185222
0.0185113
0.0185005
0.0187849
0.0187717
0.0187588
0.0187463
0.018734
0.0187221
0.0187106
0.0186993
0.0186882
0.0186774
0.0186668
0.0186563
0.0186459
0.0186355
0.0186252
0.0186149
0.0186046
0.0185942
0.0185838
0.0185735
0.0185632
0.018553
0.0185428
0.0185328
0.0188118
0.0187988
0.0187862
0.018774
0.0187622
0.0187508
0.0187397
0.018729
0.0187186
0.0187085
0.0186987
0.0186891
0.0186796
0.0186702
0.0186608
0.0186515
0.0186422
0.0186328
0.0186234
0.018614
0.0186046
0.0185953
0.0185861
0.0185769
0.01885
0.0188375
0.0188253
0.0188136
0.0188024
0.0187916
0.0187813
0.0187714
0.0187619
0.0187528
0.018744
0.0187355
0.0187272
0.0187191
0.018711
0.0187029
0.0186949
0.0186868
0.0186786
0.0186703
0.0186621
0.0186539
0.0186457
0.0186375
0.0189046
0.0188926
0.0188811
0.0188701
0.0188597
0.0188497
0.0188404
0.0188315
0.0188232
0.0188154
0.018808
0.018801
0.0187942
0.0187877
0.0187813
0.0187749
0.0187685
0.0187619
0.0187552
0.0187485
0.0187416
0.0187347
0.0187276
0.0187205
0.0189817
0.0189704
0.0189596
0.0189495
0.01894
0.0189311
0.0189229
0.0189153
0.0189084
0.0189021
0.0188964
0.0188913
0.0188865
0.018882
0.0188777
0.0188734
0.018869
0.0188644
0.0188596
0.0188545
0.0188492
0.0188437
0.0188379
0.0188318
0.0190865
0.0190758
0.0190656
0.0190562
0.0190475
0.0190395
0.0190323
0.0190259
0.0190204
0.0190157
0.0190119
0.0190087
0.0190062
0.0190041
0.0190023
0.0190005
0.0189986
0.0189964
0.0189938
0.0189907
0.0189873
0.0189833
0.0189788
0.0189738
0.0192163
0.0192053
0.019195
0.0191855
0.0191767
0.0191688
0.0191618
0.0191559
0.0191511
0.0191474
0.019145
0.0191436
0.0191432
0.0191435
0.0191442
0.0191452
0.0191461
0.0191468
0.019147
0.0191465
0.0191453
0.0191433
0.0191403
0.0191363
0.0193454
0.0193326
0.0193204
0.019309
0.0192983
0.0192886
0.01928
0.0192727
0.0192668
0.0192625
0.0192599
0.0192589
0.0192593
0.0192607
0.0192627
0.0192651
0.0192675
0.0192701
0.0192726
0.019275
0.0192763
0.0192762
0.0192747
0.0192716
0.0194078
0.019391
0.0193748
0.019359
0.0193438
0.0193294
0.019316
0.019304
0.0192933
0.0192839
0.0192759
0.0192688
0.019262
0.0192548
0.0192469
0.0192384
0.0192298
0.0192223
0.0192171
0.0192153
0.0192158
0.0192148
0.0192121
0.0192078
0.0192956
0.0192727
0.0192493
0.0192253
0.0192008
0.0191754
0.019149
0.0191211
0.0190907
0.0190567
0.0190169
0.0189689
0.0189105
0.0188411
0.0187623
0.0186778
0.0185929
0.0185139
0.0184473
0.0183989
0.0183744
0.0183624
0.0183522
0.0183436
0.0188612
0.0188241
0.0187827
0.0187358
0.0186819
0.0186187
0.0185428
0.0184499
0.0183341
0.0181885
0.0180052
0.0171413
0.0162284
0.0157583
0.0156388
0.0157404
0.015956
0.0159614
0.0157317
0.0155543
0.0154373
0.0153949
0.015391
0.0153996
0.0154197
0.0178294
0.0177354
0.0176202
0.0174792
0.0173067
0.0170955
0.0168372
0.0165225
0.0160796
0.0143928
0.0130859
0.0121571
0.0115833
0.0113167
0.0112795
0.0113466
0.0114319
0.0112632
0.0109418
0.0106883
0.0105044
0.0103913
0.0103646
0.0104051
0.0104659
0.0154275
0.0151044
0.0147355
0.0143219
0.0138645
0.0133633
0.0127167
0.0114614
0.0103389
0.00940089
0.00867487
0.00816536
0.00786089
0.00773226
0.00771063
0.00754393
0.00722855
0.00696696
0.00675072
0.00657455
0.00643545
0.00633468
0.0062722
0.0062543
0.00629258
0.0102142
0.00969982
0.00920576
0.00873438
0.00828513
0.00785555
0.0074424
0.00704245
0.00657553
0.00613788
0.00578952
0.00554373
0.00532398
0.00509369
0.00491339
0.00477599
0.00466944
0.00458037
0.00449791
0.00441715
0.00433406
0.00426535
0.00421812
0.00419222
0.00418518
0.00492391
0.00471029
0.00452211
0.00435623
0.00420969
0.00407995
0.00396508
0.00386388
0.00377632
0.00370455
0.00365448
0.00363439
0.00364481
0.0036699
0.00371755
0.00377616
0.00381978
0.00381814
0.00375867
0.0036582
0.00351541
0.00345672
0.00345638
0.00349272
0.0035521
0.00275439
0.00274315
0.0027429
0.00275386
0.00277553
0.00280779
0.0028519
0.00290811
0.00297857
0.00307023
0.003197
0.00336842
0.00355815
0.0035922
0.00374524
0.00393014
0.00405173
0.00395289
0.00364327
0.00331988
0.0029064
0.00310075
0.00309206
0.00306177
0.00308315
0.00309266
0.00265554
0.00275712
0.0028629
0.0029721
0.00308355
0.00319869
0.00331808
0.00344919
0.00360619
0.00382111
0.00407905
0.00413037
0.00435324
0.00456098
0.0044228
0.00391846
0.00287316
0.00244548
0.0024305
0.00268815
0.00291243
0.0036178
0.00414514
0.00485764
0.00595579
0.00350365
0.00364939
0.00379584
0.00394316
0.00409159
0.00424335
0.00440796
0.00460946
0.00487856
0.00492074
0.00393538
0.00426734
0.00462579
0.0040794
0.00188358
0.00167571
0.00135155
0.0024604
0.00480553
0.00745475
0.00945897
0.0095929
0.00976923
0.0105333
0.00457446
0.00476512
0.00495034
0.00513187
0.00530818
0.00548074
0.00565486
0.0058483
0.00473499
0.00530036
0.00284794
0.0031751
0.00186991
0.00175209
0.000645668
0.000957481
0.00181921
0.00619594
0.00759398
0.0090289
0.008806
0.00883428
0.00907327
0.00936451
0.00622592
0.00640115
0.00657028
0.00660045
0.00628612
0.00575951
0.00497818
0.00403548
0.00592089
0.00294087
0.00352603
0.0013452
0.000315523
0.00253306
0.00782946
0.00722717
0.00697704
0.00700841
0.00743393
0.00781806
0.00570934
0.00687511
0.00652228
0.00647705
0.00669381
0.00701063
0.00702494
0.00206613
0.00276859
0.00340129
0.00413276
0.00563741
0.00336048
0.00324869
0.00330921
0.00332581
0.00604719
0.00571809
0.00542321
0.00516539
0.00495327
0.00478965
0.00466754
0.00457565
0.00450256
0.00443919
0.00438053
0.00431945
0.00426785
0.00423233
0.00421352
0.00421197
0.00423794
0.00925493
0.00856301
0.0080853
0.00781913
0.00774531
0.00770708
0.00735484
0.00706678
0.00683216
0.00664261
0.00649255
0.00637828
0.00629981
0.00625638
0.00626467
0.00632122
0.00639683
0.00648947
0.014193
0.0129409
0.0120625
0.0115454
0.0113572
0.0114349
0.011652
0.0114441
0.0110923
0.0108091
0.0105939
0.0104469
0.010371
0.0103872
0.0104367
0.0105057
0.0105929
0.0106961
0.0180501
0.0178484
0.0169766
0.0161306
0.0157498
0.0157607
0.0160432
0.0160639
0.0158139
0.0156115
0.0154646
0.0153803
0.0153689
0.0153704
0.0153843
0.0154095
0.015445
0.0154893
0.0190097
0.0189639
0.0189094
0.0188444
0.018769
0.0186858
0.0185992
0.0185153
0.0184407
0.0183813
0.0183421
0.0183283
0.0183166
0.018307
0.0182994
0.0182938
0.0182903
0.0182889
0.0192679
0.0192588
0.0192504
0.0192422
0.0192337
0.0192246
0.0192151
0.019206
0.0191985
0.0191937
0.019193
0.0191922
0.0191899
0.0191862
0.0191809
0.0191743
0.0191665
0.019158
0.0192574
0.0192547
0.0192537
0.0192541
0.0192554
0.0192574
0.0192596
0.0192619
0.0192643
0.0192666
0.0192684
0.0192689
0.0192681
0.0192658
0.019262
0.0192567
0.0192502
0.0192425
0.0191466
0.0191443
0.0191431
0.0191428
0.0191432
0.0191441
0.0191451
0.0191461
0.0191467
0.0191468
0.0191461
0.0191446
0.0191423
0.0191389
0.0191345
0.0191291
0.0191228
0.0191158
0.0190167
0.0190129
0.01901
0.0190076
0.0190056
0.0190039
0.0190021
0.0190003
0.0189981
0.0189954
0.0189923
0.0189888
0.0189848
0.0189802
0.018975
0.0189693
0.0189631
0.0189563
0.0189037
0.0188982
0.0188931
0.0188884
0.018884
0.0188798
0.0188756
0.0188712
0.0188667
0.0188618
0.0188568
0.0188515
0.018846
0.0188402
0.0188341
0.0188278
0.0188212
0.0188144
0.0188173
0.01881
0.018803
0.0187964
0.0187899
0.0187835
0.0187772
0.0187708
0.0187643
0.0187576
0.0187509
0.0187441
0.0187372
0.0187302
0.0187232
0.018716
0.0187088
0.0187015
0.0187548
0.0187461
0.0187376
0.0187294
0.0187213
0.0187132
0.0187052
0.0186972
0.0186891
0.0186809
0.0186728
0.0186646
0.0186565
0.0186483
0.0186402
0.0186322
0.0186242
0.0186162
0.0187107
0.0187009
0.0186912
0.0186818
0.0186724
0.018663
0.0186537
0.0186444
0.018635
0.0186257
0.0186163
0.018607
0.0185978
0.0185886
0.0185795
0.0185706
0.0185617
0.018553
0.0186796
0.0186689
0.0186584
0.018648
0.0186377
0.0186274
0.018617
0.0186067
0.0185963
0.018586
0.0185757
0.0185654
0.0185552
0.0185452
0.0185352
0.0185255
0.0185158
0.0185064
0.0186575
0.0186462
0.0186351
0.018624
0.0186129
0.0186018
0.0185907
0.0185796
0.0185685
0.0185573
0.0185462
0.0185352
0.0185242
0.0185134
0.0185028
0.0184923
0.018482
0.0184719
0.0186417
0.01863
0.0186183
0.0186067
0.018595
0.0185834
0.0185717
0.0185599
0.0185482
0.0185364
0.0185247
0.018513
0.0185015
0.01849
0.0184788
0.0184677
0.0184568
0.0184461
0.0186303
0.0186182
0.0186062
0.0185941
0.018582
0.0185699
0.0185577
0.0185455
0.0185333
0.018521
0.0185088
0.0184967
0.0184846
0.0184727
0.0184609
0.0184493
0.018438
0.0184268
0.018622
0.0186097
0.0185973
0.018585
0.0185726
0.0185601
0.0185476
0.018535
0.0185224
0.0185098
0.0184972
0.0184846
0.0184722
0.0184599
0.0184477
0.0184357
0.018424
0.0184125
0.0186161
0.0186036
0.018591
0.0185784
0.0185658
0.018553
0.0185402
0.0185274
0.0185145
0.0185016
0.0184887
0.0184759
0.0184632
0.0184506
0.0184381
0.0184258
0.0184138
0.018402
0.0186121
0.0185994
0.0185867
0.0185739
0.0185611
0.0185482
0.0185352
0.0185222
0.0185091
0.018496
0.0184829
0.0184699
0.0184569
0.0184441
0.0184314
0.0184189
0.0184067
0.0183946
0.0186096
0.0185968
0.018584
0.0185711
0.0185582
0.0185452
0.0185321
0.0185189
0.0185057
0.0184925
0.0184793
0.0184661
0.018453
0.0184401
0.0184273
0.0184146
0.0184022
0.01839
0.0186084
0.0185956
0.0185827
0.0185698
0.0185568
0.0185437
0.0185305
0.0185173
0.018504
0.0184907
0.0184774
0.0184642
0.018451
0.018438
0.0184251
0.0184124
0.0183999
0.0183876
0.018724
0.0187105
0.0186972
0.0186841
0.018671
0.0186581
0.0186452
0.0186324
0.0186196
0.0186068
0.0185941
0.0185812
0.0185684
0.0185554
0.0185424
0.0185293
0.0185161
0.0185029
0.0184896
0.0184763
0.018463
0.0184499
0.0184368
0.0184238
0.018725
0.0187116
0.0186983
0.0186851
0.0186721
0.0186591
0.0186463
0.0186335
0.0186208
0.0186081
0.0185954
0.0185826
0.0185698
0.0185569
0.0185439
0.0185309
0.0185178
0.0185046
0.0184914
0.0184782
0.0184651
0.0184519
0.0184389
0.0184261
0.0187272
0.0187138
0.0187005
0.0186874
0.0186744
0.0186615
0.0186487
0.018636
0.0186233
0.0186107
0.0185981
0.0185854
0.0185727
0.0185599
0.0185471
0.0185342
0.0185212
0.0185081
0.0184951
0.018482
0.018469
0.018456
0.0184431
0.0184304
0.0187308
0.0187174
0.0187041
0.018691
0.0186781
0.0186652
0.0186526
0.01864
0.0186274
0.0186149
0.0186025
0.01859
0.0185774
0.0185648
0.0185522
0.0185395
0.0185267
0.0185138
0.018501
0.0184881
0.0184753
0.0184625
0.0184499
0.0184374
0.0187361
0.0187227
0.0187094
0.0186964
0.0186835
0.0186708
0.0186582
0.0186458
0.0186334
0.0186211
0.0186088
0.0185966
0.0185843
0.018572
0.0185596
0.0185471
0.0185346
0.018522
0.0185095
0.0184969
0.0184844
0.0184719
0.0184596
0.0184474
0.0187435
0.01873
0.0187168
0.0187039
0.0186911
0.0186785
0.0186661
0.0186539
0.0186417
0.0186297
0.0186177
0.0186057
0.0185938
0.0185818
0.0185697
0.0185577
0.0185455
0.0185333
0.0185212
0.018509
0.0184968
0.0184848
0.0184729
0.0184611
0.0187535
0.0187401
0.018727
0.0187141
0.0187015
0.0186891
0.0186769
0.0186649
0.0186531
0.0186414
0.0186297
0.0186182
0.0186066
0.0185951
0.0185835
0.0185719
0.0185602
0.0185485
0.0185369
0.0185252
0.0185136
0.018502
0.0184906
0.0184793
0.0187671
0.0187539
0.0187409
0.0187282
0.0187157
0.0187036
0.0186917
0.01868
0.0186686
0.0186573
0.0186462
0.0186351
0.0186241
0.0186131
0.0186021
0.0185911
0.0185801
0.018569
0.018558
0.0185469
0.018536
0.0185251
0.0185143
0.0185036
0.0187861
0.018773
0.0187602
0.0187477
0.0187356
0.0187238
0.0187123
0.0187011
0.0186902
0.0186794
0.0186689
0.0186585
0.0186482
0.018638
0.0186277
0.0186175
0.0186073
0.018597
0.0185867
0.0185765
0.0185663
0.0185562
0.0185462
0.0185363
0.0188129
0.0188
0.0187875
0.0187754
0.0187637
0.0187524
0.0187414
0.0187308
0.0187206
0.0187106
0.0187009
0.0186913
0.018682
0.0186727
0.0186634
0.0186542
0.018645
0.0186358
0.0186265
0.0186173
0.0186081
0.0185989
0.0185898
0.0185809
0.0188509
0.0188384
0.0188264
0.0188149
0.0188038
0.0187931
0.0187829
0.0187732
0.0187638
0.0187548
0.0187462
0.0187378
0.0187296
0.0187216
0.0187137
0.0187058
0.0186979
0.0186899
0.0186819
0.0186739
0.0186659
0.0186579
0.01865
0.0186421
0.0189052
0.0188934
0.0188821
0.0188713
0.018861
0.0188512
0.018842
0.0188334
0.0188252
0.0188175
0.0188103
0.0188034
0.0187968
0.0187905
0.0187842
0.018778
0.0187718
0.0187655
0.018759
0.0187525
0.018746
0.0187394
0.0187327
0.018726
0.0189822
0.0189712
0.0189607
0.0189508
0.0189415
0.0189329
0.0189249
0.0189175
0.0189108
0.0189047
0.0188993
0.0188943
0.0188897
0.0188854
0.0188813
0.0188772
0.0188731
0.0188688
0.0188643
0.0188596
0.0188548
0.0188498
0.0188446
0.0188392
0.0190875
0.0190772
0.0190675
0.0190585
0.0190501
0.0190425
0.0190356
0.0190296
0.0190244
0.01902
0.0190164
0.0190136
0.0190113
0.0190095
0.0190079
0.0190064
0.0190048
0.019003
0.0190009
0.0189985
0.0189957
0.0189926
0.018989
0.0189849
0.0192197
0.0192094
0.0191998
0.0191909
0.0191828
0.0191756
0.0191692
0.0191638
0.0191596
0.0191564
0.0191544
0.0191534
0.0191534
0.0191541
0.0191552
0.0191566
0.0191579
0.0191592
0.0191602
0.0191606
0.0191605
0.0191597
0.0191582
0.0191558
0.0193556
0.0193441
0.0193332
0.019323
0.0193136
0.0193051
0.0192976
0.0192914
0.0192865
0.0192831
0.0192813
0.0192811
0.0192824
0.0192848
0.019288
0.0192918
0.019296
0.0193004
0.019305
0.0193093
0.0193128
0.0193152
0.0193165
0.0193163
0.0194332
0.0194189
0.019405
0.0193916
0.0193788
0.0193668
0.0193556
0.0193457
0.0193372
0.0193303
0.0193253
0.0193219
0.01932
0.0193191
0.0193189
0.0193194
0.0193208
0.0193235
0.0193283
0.0193353
0.0193416
0.0193466
0.01935
0.0193515
0.0193466
0.0193281
0.0193093
0.0192901
0.0192706
0.0192508
0.0192307
0.0192104
0.0191897
0.0191683
0.0191455
0.0191206
0.0190923
0.0190601
0.0190248
0.0189881
0.0189528
0.0189225
0.0189008
0.018891
0.0188895
0.0188884
0.0188873
0.0188859
0.0189382
0.0189122
0.0188835
0.0188518
0.0188163
0.018776
0.0187296
0.0186752
0.0186099
0.0185298
0.0184303
0.0183073
0.0174263
0.0168388
0.0166021
0.0165994
0.0167087
0.016852
0.0170166
0.0170636
0.0170285
0.0170042
0.0169888
0.016983
0.0169851
0.0179441
0.017897
0.0178393
0.0177687
0.0176817
0.0175741
0.0174398
0.0172711
0.0170579
0.0161265
0.0147917
0.0137754
0.0131084
0.0127825
0.0127419
0.012878
0.0130722
0.0132547
0.0132379
0.0130476
0.0129314
0.0128918
0.0128753
0.0128821
0.0129107
0.0158774
0.0157434
0.0155785
0.0153793
0.0151408
0.0148568
0.0144652
0.0133289
0.0122164
0.0112083
0.0103711
0.00974546
0.00937695
0.00920391
0.0091822
0.00924509
0.00919742
0.00889668
0.00865348
0.0084678
0.00834008
0.00827792
0.00826946
0.00828694
0.00832961
0.0116589
0.0113576
0.011036
0.0106968
0.0103407
0.00982918
0.00915128
0.00845114
0.00777741
0.00717892
0.00669776
0.00649282
0.0064706
0.00648098
0.00626614
0.00604984
0.00586864
0.00571298
0.0055793
0.00546895
0.00538409
0.00532576
0.00530784
0.00532395
0.00535996
0.00592199
0.00576701
0.00561956
0.00548001
0.0053478
0.00522187
0.00510114
0.00498147
0.0047886
0.00448143
0.00427356
0.00427226
0.00406982
0.00438561
0.00453762
0.00449568
0.00442745
0.00433705
0.004233
0.00412936
0.00403525
0.00395009
0.00391832
0.00393119
0.00397349
0.00312209
0.00313259
0.00315066
0.00317665
0.00321123
0.00325581
0.0033132
0.00338798
0.0034881
0.00362888
0.00370406
0.00354365
0.0040758
0.00409851
0.00430586
0.00418425
0.00396147
0.00370548
0.00343928
0.0031938
0.00301141
0.00276859
0.00298673
0.00321906
0.00343538
0.00334343
0.00285553
0.00298388
0.00311713
0.003255
0.00339922
0.00355468
0.00372541
0.00392743
0.00419117
0.00432325
0.00457725
0.00349812
0.00467434
0.00392357
0.00290407
0.00271089
0.00235407
0.00190574
0.00192487
0.00222078
0.00292372
0.00457237
0.0052552
0.0056604
0.00596592
0.00402821
0.00422851
0.00441808
0.00459893
0.00477519
0.00495514
0.00516392
0.00542044
0.00543737
0.00390642
0.00340741
0.00400272
0.00164527
0.00139981
0.000637315
0.000464141
0.00092134
0.00100416
0.0021468
0.00508393
0.00607175
0.0105075
0.00749568
0.00842346
0.005019
0.00516232
0.00527646
0.00534336
0.00533623
0.00522847
0.00486163
0.00402974
0.00587737
0.00292626
0.00361262
0.0011919
0.00159003
0.00767487
0.00869644
0.00948544
0.00948092
0.010176
0.00575309
0.005848
0.00586265
0.00576518
0.00552536
0.00504863
0.00421964
0.00485653
0.00298787
0.00290064
0.000405778
0.000246442
0.00549463
0.00469518
0.00559414
0.0062081
0.00676416
0.000166426
0.00224871
0.00492891
0.00469777
0.00542594
0.006055
0.00623685
0.00261693
0.00331563
0.00463328
0.00549032
0.00622286
0.00448976
0.00438606
0.00419772
0.00417896
0.00694994
0.00649687
0.00634772
0.00630297
0.00628796
0.00605557
0.00586923
0.00571623
0.00558834
0.00548224
0.00539938
0.00534024
0.00530465
0.00531242
0.00533893
0.00538273
0.00544319
0.010967
0.0101548
0.00956235
0.00924497
0.00914822
0.00922771
0.00925259
0.0089305
0.00866998
0.00846674
0.00831956
0.00822795
0.00820973
0.00821706
0.00824933
0.00830512
0.00838201
0.00847772
0.0158653
0.0145683
0.0135949
0.0129849
0.0127423
0.0128201
0.0131102
0.0134676
0.0132507
0.0130305
0.0128812
0.0128159
0.0127899
0.0127877
0.0128078
0.0128483
0.0129067
0.0129806
0.018417
0.0183024
0.0181637
0.0172337
0.0167234
0.0165966
0.0167407
0.0170242
0.0171165
0.0170089
0.0169437
0.016916
0.0168982
0.0168899
0.0168905
0.016899
0.0169146
0.0169365
0.019126
0.0190993
0.0190699
0.019037
0.0190004
0.0189613
0.0189222
0.0188862
0.018857
0.0188385
0.0188344
0.018832
0.0188303
0.0188291
0.0188279
0.0188268
0.0188257
0.018825
0.0193137
0.0193079
0.0193039
0.0193012
0.0192996
0.0192987
0.0192987
0.0192997
0.0193023
0.0193071
0.0193132
0.0193184
0.0193224
0.0193248
0.0193255
0.0193245
0.0193219
0.0193179
0.019277
0.0192752
0.0192751
0.0192764
0.0192788
0.0192822
0.019286
0.0192902
0.0192946
0.019299
0.0193029
0.0193059
0.0193078
0.0193084
0.0193076
0.0193054
0.0193019
0.0192973
0.019155
0.019153
0.0191522
0.0191523
0.0191531
0.0191544
0.0191559
0.0191573
0.0191586
0.0191594
0.0191598
0.0191595
0.0191586
0.0191568
0.0191541
0.0191505
0.0191461
0.0191408
0.0190205
0.0190171
0.0190143
0.0190122
0.0190104
0.019009
0.0190075
0.019006
0.0190043
0.0190021
0.0189997
0.0189969
0.0189938
0.0189901
0.018986
0.0189813
0.0189761
0.0189706
0.0189061
0.0189007
0.0188958
0.0188913
0.0188871
0.0188831
0.0188791
0.018875
0.0188707
0.0188663
0.0188617
0.0188569
0.0188519
0.0188467
0.0188413
0.0188356
0.0188297
0.0188236
0.0188193
0.0188121
0.0188053
0.0187988
0.0187924
0.0187862
0.0187801
0.0187739
0.0187676
0.0187612
0.0187548
0.0187483
0.0187417
0.0187351
0.0187285
0.0187218
0.018715
0.0187082
0.0187568
0.0187482
0.0187398
0.0187317
0.0187237
0.0187158
0.0187079
0.0187
0.0186921
0.0186841
0.0186762
0.0186682
0.0186603
0.0186524
0.0186446
0.0186368
0.0186291
0.0186214
0.0187127
0.0187029
0.0186934
0.018684
0.0186748
0.0186655
0.0186563
0.0186471
0.0186379
0.0186286
0.0186194
0.0186103
0.0186012
0.0185922
0.0185833
0.0185746
0.0185659
0.0185574
0.0186815
0.018671
0.0186606
0.0186503
0.01864
0.0186298
0.0186195
0.0186093
0.018599
0.0185888
0.0185786
0.0185684
0.0185584
0.0185484
0.0185386
0.018529
0.0185195
0.0185102
0.0186594
0.0186482
0.0186371
0.0186261
0.0186151
0.0186041
0.018593
0.018582
0.0185709
0.0185599
0.0185489
0.0185379
0.0185271
0.0185163
0.0185058
0.0184954
0.0184851
0.0184751
0.0186434
0.0186317
0.0186201
0.0186085
0.0185969
0.0185853
0.0185737
0.018562
0.0185503
0.0185386
0.018527
0.0185154
0.0185039
0.0184925
0.0184813
0.0184702
0.0184594
0.0184488
0.0186316
0.0186196
0.0186076
0.0185956
0.0185835
0.0185715
0.0185593
0.0185472
0.018535
0.0185228
0.0185106
0.0184985
0.0184865
0.0184746
0.0184629
0.0184513
0.01844
0.0184289
0.018623
0.0186107
0.0185983
0.018586
0.0185736
0.0185612
0.0185487
0.0185361
0.0185235
0.0185109
0.0184984
0.0184859
0.0184734
0.0184612
0.018449
0.0184371
0.0184254
0.0184138
0.0186167
0.0186042
0.0185917
0.0185791
0.0185664
0.0185537
0.0185409
0.0185281
0.0185152
0.0185023
0.0184895
0.0184767
0.0184639
0.0184513
0.0184389
0.0184266
0.0184146
0.0184028
0.0186125
0.0185998
0.0185871
0.0185743
0.0185615
0.0185486
0.0185356
0.0185226
0.0185095
0.0184964
0.0184833
0.0184703
0.0184574
0.0184445
0.0184319
0.0184194
0.0184071
0.0183951
0.0186098
0.0185971
0.0185842
0.0185714
0.0185584
0.0185454
0.0185323
0.0185192
0.018506
0.0184927
0.0184795
0.0184664
0.0184533
0.0184403
0.0184275
0.0184149
0.0184025
0.0183903
0.0186086
0.0185957
0.0185829
0.0185699
0.0185569
0.0185438
0.0185307
0.0185175
0.0185042
0.0184909
0.0184776
0.0184644
0.0184512
0.0184381
0.0184252
0.0184125
0.0184
0.0183877
0.0187241
0.0187107
0.0186975
0.0186843
0.0186713
0.0186584
0.0186455
0.0186327
0.01862
0.0186072
0.0185945
0.0185817
0.0185688
0.0185558
0.0185428
0.0185297
0.0185165
0.0185033
0.01849
0.0184767
0.0184635
0.0184503
0.0184372
0.0184242
0.0187253
0.0187119
0.0186986
0.0186855
0.0186725
0.0186596
0.0186468
0.018634
0.0186213
0.0186086
0.0185959
0.0185832
0.0185704
0.0185575
0.0185446
0.0185315
0.0185184
0.0185053
0.0184921
0.0184789
0.0184657
0.0184526
0.0184396
0.0184267
0.0187278
0.0187144
0.0187012
0.0186881
0.0186751
0.0186623
0.0186495
0.0186368
0.0186242
0.0186116
0.0185991
0.0185864
0.0185738
0.018561
0.0185482
0.0185353
0.0185223
0.0185093
0.0184962
0.0184832
0.0184701
0.0184572
0.0184443
0.0184316
0.018732
0.0187186
0.0187054
0.0186924
0.0186795
0.0186667
0.0186541
0.0186415
0.0186291
0.0186166
0.0186042
0.0185918
0.0185793
0.0185668
0.0185541
0.0185415
0.0185287
0.0185159
0.0185031
0.0184902
0.0184774
0.0184647
0.0184521
0.0184396
0.0187382
0.0187248
0.0187117
0.0186987
0.0186859
0.0186733
0.0186608
0.0186485
0.0186362
0.018624
0.0186118
0.0185996
0.0185874
0.0185752
0.0185628
0.0185505
0.018538
0.0185255
0.018513
0.0185005
0.018488
0.0184756
0.0184633
0.0184512
0.0187466
0.0187333
0.0187202
0.0187074
0.0186948
0.0186823
0.01867
0.0186579
0.0186459
0.018634
0.0186221
0.0186102
0.0185984
0.0185865
0.0185746
0.0185626
0.0185506
0.0185385
0.0185264
0.0185143
0.0185023
0.0184903
0.0184784
0.0184667
0.0187575
0.0187443
0.0187313
0.0187186
0.0187062
0.018694
0.0186819
0.0186701
0.0186584
0.0186469
0.0186354
0.018624
0.0186126
0.0186012
0.0185897
0.0185783
0.0185668
0.0185552
0.0185437
0.0185321
0.0185207
0.0185093
0.018498
0.0184868
0.0187717
0.0187586
0.0187458
0.0187333
0.0187211
0.0187092
0.0186975
0.018686
0.0186748
0.0186637
0.0186527
0.0186418
0.018631
0.0186202
0.0186094
0.0185986
0.0185878
0.0185769
0.018566
0.0185552
0.0185444
0.0185337
0.0185231
0.0185126
0.0187909
0.018778
0.0187654
0.0187532
0.0187413
0.0187297
0.0187185
0.0187075
0.0186968
0.0186863
0.018676
0.0186658
0.0186557
0.0186457
0.0186357
0.0186257
0.0186157
0.0186056
0.0185956
0.0185856
0.0185757
0.0185658
0.0185561
0.0185464
0.0188175
0.0188049
0.0187927
0.0187809
0.0187694
0.0187584
0.0187477
0.0187374
0.0187274
0.0187177
0.0187082
0.0186989
0.0186898
0.0186808
0.0186718
0.0186629
0.0186539
0.0186449
0.018636
0.018627
0.0186181
0.0186093
0.0186006
0.018592
0.0188552
0.0188431
0.0188314
0.0188202
0.0188094
0.0187991
0.0187892
0.0187797
0.0187707
0.018762
0.0187537
0.0187456
0.0187378
0.01873
0.0187224
0.0187148
0.0187072
0.0186996
0.018692
0.0186844
0.0186768
0.0186692
0.0186617
0.0186543
0.0189092
0.0188977
0.0188868
0.0188764
0.0188665
0.0188572
0.0188484
0.0188401
0.0188323
0.018825
0.0188181
0.0188116
0.0188054
0.0187994
0.0187935
0.0187877
0.0187819
0.018776
0.01877
0.018764
0.0187581
0.0187521
0.0187461
0.01874
0.0189859
0.0189754
0.0189655
0.0189561
0.0189474
0.0189393
0.0189318
0.0189249
0.0189187
0.0189131
0.0189081
0.0189036
0.0188995
0.0188956
0.018892
0.0188884
0.0188847
0.018881
0.0188771
0.0188732
0.0188692
0.0188651
0.0188608
0.0188564
0.0190919
0.0190823
0.0190734
0.0190652
0.0190576
0.0190508
0.0190447
0.0190394
0.0190349
0.0190312
0.0190283
0.019026
0.0190243
0.0190231
0.0190221
0.0190212
0.0190203
0.0190192
0.019018
0.0190166
0.0190151
0.0190132
0.0190111
0.0190086
0.0192275
0.0192186
0.0192103
0.0192027
0.0191959
0.0191899
0.0191848
0.0191806
0.0191775
0.0191754
0.0191743
0.0191743
0.0191751
0.0191766
0.0191785
0.0191808
0.0191831
0.0191854
0.0191875
0.0191894
0.0191911
0.0191924
0.019193
0.0191929
0.0193744
0.0193652
0.0193566
0.0193487
0.0193416
0.0193353
0.0193299
0.0193256
0.0193226
0.0193209
0.0193208
0.0193221
0.0193247
0.0193285
0.0193332
0.0193386
0.0193445
0.0193509
0.0193576
0.0193642
0.0193704
0.0193761
0.0193809
0.0193846
0.0194782
0.0194679
0.019458
0.0194485
0.0194396
0.0194312
0.0194237
0.0194172
0.019412
0.0194082
0.0194063
0.0194062
0.0194081
0.0194116
0.0194167
0.0194231
0.019431
0.0194406
0.0194522
0.0194643
0.0194765
0.0194881
0.0194985
0.0195074
0.019438
0.0194263
0.0194142
0.0194018
0.019389
0.0193759
0.0193627
0.0193494
0.0193363
0.0193238
0.0193119
0.0193009
0.0192908
0.019282
0.0192746
0.0192694
0.0192675
0.0192704
0.01928
0.0192934
0.019308
0.0193229
0.0193371
0.01935
0.0190787
0.0190662
0.0190515
0.0190343
0.0190147
0.0189921
0.018966
0.0189359
0.0189008
0.0188599
0.0188121
0.0187571
0.0186954
0.0185255
0.0180812
0.0178688
0.017738
0.0175618
0.0173121
0.0170454
0.0168629
0.0168747
0.0171707
0.0177487
0.0183521
0.0181101
0.0181004
0.0180839
0.01806
0.0180276
0.0179847
0.0179285
0.0178555
0.0177603
0.017637
0.0170399
0.0160015
0.0151561
0.0146081
0.0143935
0.0144354
0.0145574
0.0145961
0.0144861
0.0142493
0.0139987
0.0139136
0.0141173
0.0146049
0.0152733
0.0160621
0.0160542
0.0160424
0.0160101
0.0159543
0.0158702
0.0157253
0.0150339
0.0142758
0.0135047
0.0127751
0.012137
0.0115932
0.0112266
0.0111448
0.0113284
0.0115992
0.0117938
0.0116599
0.0115263
0.0112492
0.0110372
0.0111315
0.0113082
0.0113331
0.0116753
0.0117521
0.011754
0.0116754
0.0115092
0.0112611
0.01093
0.0104924
0.00998858
0.00949056
0.00907254
0.00872363
0.0085041
0.00833518
0.00829907
0.00821819
0.00798561
0.00778977
0.00763319
0.00752865
0.00746252
0.0074281
0.00742289
0.00744576
0.00749468
0.00706397
0.00705589
0.00703397
0.00699928
0.00695215
0.00690404
0.00682459
0.00650803
0.00615825
0.00583765
0.005608
0.0051582
0.00542224
0.00568953
0.00562748
0.00553821
0.00545496
0.00537122
0.0052934
0.00523657
0.00522011
0.00522497
0.00524194
0.0052744
0.00532594
0.00385675
0.00389315
0.00392878
0.00396455
0.00400079
0.00403626
0.00407082
0.00412199
0.00418795
0.00427685
0.00389377
0.00440275
0.00382161
0.00374118
0.00410492
0.00438449
0.00425864
0.004104
0.00394175
0.0038086
0.00372467
0.00364115
0.00356171
0.00365764
0.00378916
0.00395809
0.00296468
0.00305537
0.00314968
0.00324804
0.0033514
0.00346176
0.00358347
0.00373655
0.00397789
0.00405899
0.00286748
0.00286764
0.00321472
0.00317939
0.00275124
0.00244441
0.00222358
0.00206652
0.00198166
0.00193187
0.00202514
0.00253024
0.00335082
0.00407085
0.0049018
0.00360198
0.00373847
0.0038762
0.00401841
0.00417138
0.00434671
0.00456692
0.00461197
0.00349174
0.00256653
0.00251909
0.00115195
0.000112875
0.000759384
0.00181107
0.00424025
0.00802817
0.0102413
0.0102057
0.00568395
0.00576533
0.00581932
0.00585092
0.00586977
0.00592331
0.00599702
0.00496312
0.00338433
0.00274921
0.00108851
0.000711255
0.0039622
0.005869
0.00749436
0.0104393
0.00668803
0.00682361
0.00696961
0.00713492
0.00731958
0.00673859
0.00575221
0.0032493
0.00232859
0.000342685
0.00132663
0.00345948
0.00481216
0.00570129
0.00115778
0.00260946
0.00324377
0.00474721
0.00513196
0.00289915
0.00417365
0.00460012
0.00528977
0.00376474
0.00414897
0.00436689
0.00465343
0.00639422
0.0061926
0.00608692
0.00605498
0.00925857
0.00881406
0.00847274
0.00831435
0.00824616
0.00818823
0.00794222
0.00774242
0.00758107
0.00746004
0.00738521
0.00734451
0.00733537
0.00735413
0.00739746
0.00746293
0.00754862
0.0132861
0.0125445
0.0119137
0.0114157
0.0111326
0.01116
0.0114762
0.0118246
0.0116015
0.0114405
0.0113276
0.011247
0.0108666
0.0108024
0.0110334
0.011242
0.0113071
0.011394
0.0174601
0.0168027
0.0157654
0.014953
0.0144731
0.0143592
0.0145318
0.0147961
0.0149409
0.0148571
0.014562
0.0141985
0.0139792
0.0140651
0.0144628
0.0150683
0.0155537
0.015605
0.0187819
0.0187271
0.0186646
0.0185955
0.0182873
0.0179223
0.0178194
0.0178138
0.0177539
0.0175749
0.0173233
0.0171036