/*--------------------------------*- C++ -*----------------------------------*\
  =========                 |
  \\      /  F ield         | OpenFOAM: The Open Source CFD Toolbox
   \\    /   O peration     | Website:  https://openfoam.org
    \\  /    A nd           | Version:  13
     \\/     M anipulation  |
\*---------------------------------------------------------------------------*/
FoamFile
{
    format      ascii;
    class       volScalarField;
    location    "500";
    object      omega;
}
// * * * * * * * * * * * * * * * * * * * * * * * * * * * * * * * * * * * * * //

dimensions      [0 0 -1 0 0 0 0];

internalField   nonuniform List<scalar> 
171745
(
16.4015
16.3343
16.2678
16.2021
16.1371
16.0728
16.0091
15.946
15.8835
15.8215
15.7601
15.6991
15.6386
15.5785
15.5188
15.4594
15.4005
15.342
15.2838
15.2261
15.1689
15.1121
15.0558
15
16.4022
16.335
16.2685
16.2028
16.1378
16.0735
16.0098
15.9467
15.8843
15.8224
15.761
15.7001
15.6396
15.5795
15.5199
15.4606
15.4018
15.3433
15.2852
15.2276
15.1704
15.1137
15.0575
15.0018
16.4039
16.3367
16.2702
16.2045
16.1395
16.0751
16.0115
15.9485
15.8861
15.8243
15.763
15.7021
15.6417
15.5818
15.5222
15.4631
15.4043
15.346
15.288
15.2305
15.1735
15.1169
15.0608
15.0052
16.4065
16.3392
16.2727
16.207
16.142
16.0778
16.0142
15.9513
15.889
15.8272
15.766
15.7053
15.6451
15.5853
15.526
15.467
15.4084
15.3502
15.2925
15.2351
15.1783
15.1219
15.066
15.0106
16.4105
16.3432
16.2767
16.2109
16.146
16.0818
16.0183
15.9554
15.8932
15.8317
15.7707
15.7102
15.6501
15.5906
15.5314
15.4727
15.4144
15.3565
15.299
15.2419
15.1853
15.1291
15.0735
15.0184
16.4162
16.3489
16.2823
16.2166
16.1517
16.0875
16.0241
15.9614
15.8994
15.838
15.7772
15.717
15.6573
15.598
15.5392
15.4807
15.4227
15.3652
15.308
15.2513
15.195
15.1392
15.0839
15.0292
16.4245
16.3571
16.2905
16.2248
16.1599
16.0959
16.0326
15.9701
15.9083
15.8471
15.7866
15.7267
15.6673
15.6084
15.55
15.492
15.4344
15.3772
15.3205
15.2642
15.2084
15.153
15.0982
15.0439
16.4363
16.3688
16.3022
16.2365
16.1717
16.1078
16.0447
15.9824
15.9209
15.8601
15.7999
15.7404
15.6814
15.623
15.5651
15.5076
15.4505
15.3939
15.3377
15.282
15.2267
15.1719
15.1175
15.0637
16.4532
16.3857
16.3191
16.2535
16.1888
16.125
16.0621
16.0001
15.9389
15.8785
15.8188
15.7598
15.7014
15.6435
15.5862
15.5294
15.473
15.417
15.3615
15.3064
15.2518
15.1976
15.1439
15.0907
16.4775
16.41
16.3435
16.2779
16.2134
16.1498
16.0873
16.0256
15.9648
15.9049
15.8458
15.7874
15.7297
15.6726
15.6161
15.56
15.5044
15.4493
15.3945
15.3402
15.2863
15.2329
15.1799
15.1274
16.5126
16.4452
16.3787
16.3134
16.2491
16.1858
16.1236
16.0624
16.0022
15.9429
15.8846
15.827
15.7702
15.714
15.6585
15.6034
15.5488
15.4946
15.4408
15.3875
15.3345
15.2819
15.2297
15.1778
16.5636
16.4962
16.43
16.3649
16.3009
16.2381
16.1764
16.1158
16.0563
15.9979
15.9406
15.8841
15.8285
15.7736
15.7193
15.6655
15.6122
15.5593
15.5066
15.4543
15.4023
15.3506
15.2992
15.2481
16.6379
16.5707
16.5047
16.44
16.3765
16.3142
16.2533
16.1936
16.1352
16.078
16.022
15.9671
15.9132
15.8601
15.8076
15.7557
15.7041
15.6527
15.6015
15.5504
15.4996
15.4488
15.3982
15.3477
16.7466
16.6797
16.6141
16.5499
16.4871
16.4258
16.3659
16.3076
16.2508
16.1956
16.1419
16.0895
16.0383
15.988
15.9385
15.8893
15.8404
15.7914
15.7421
15.6927
15.6432
15.5935
15.5435
15.4933
16.9071
16.8407
16.7758
16.7125
16.6509
16.591
16.5331
16.4772
16.4234
16.3717
16.3221
16.2744
16.2284
16.1836
16.1395
16.0957
16.0517
16.0072
15.9616
15.9147
15.8672
15.8188
15.7695
15.7192
17.1495
17.0839
17.0202
16.9586
16.8993
16.8425
16.7885
16.7375
16.6899
16.6457
16.6051
16.5679
16.5335
16.5012
16.4699
16.4386
16.4062
16.3719
16.3347
16.2933
16.2497
16.2038
16.1554
16.1046
17.5301
17.4663
17.4054
17.3478
17.2938
17.244
17.1991
17.1602
17.1277
17.1025
17.085
17.0752
17.0722
17.0745
17.0796
17.0849
17.0875
17.0846
17.0736
17.0518
17.0178
16.9778
16.9316
16.8792
18.1603
18.1025
18.0498
18.0032
17.9638
17.9333
17.9138
17.9081
17.9191
17.95
18.0034
18.0801
18.1788
18.2955
18.4233
18.5539
18.6783
18.7869
18.87
18.9189
18.9226
18.894
18.848
18.7854
19.2717
19.2365
19.2135
19.2057
19.217
19.2531
19.3215
19.4316
19.5946
19.8208
20.1211
20.5005
20.9549
21.4677
22.0129
22.5611
23.0844
23.5556
23.9483
24.2385
24.4049
24.4115
24.3204
24.1818
24.0024
21.464
21.5344
21.6447
21.8046
22.0272
22.3304
22.737
23.2737
23.9732
24.866
25.9764
27.3042
28.8103
30.4169
32.0315
33.5758
34.9952
36.2522
37.3135
38.1431
38.7043
38.9694
38.8597
38.4475
37.9215
26.8913
27.5023
28.2383
29.1166
30.1616
31.4067
32.8932
34.6684
36.7795
39.2585
42.0864
45.1757
48.3619
51.4375
54.2362
56.6864
58.7899
60.5768
62.0697
63.2716
64.1529
64.6533
64.7535
64.3844
63.4437
45.4194
47.8396
50.3525
52.9451
55.6189
58.3892
61.2807
64.3191
67.503
70.7882
74.0702
77.1863
79.935
82.1562
83.8274
85.0888
86.1448
87.204
88.4208
89.8347
91.5603
93.0013
93.9011
94.1941
93.8947
99.9574
102.494
104.433
105.82
106.72
107.205
107.347
107.203
106.811
106.192
105.374
104.404
103.309
102.392
101.653
101.525
102.512
105.139
109.656
115.794
126.693
134.532
140.077
143.801
146.057
163.871
158.148
152.252
146.403
140.698
135.196
129.972
124.973
120.166
115.638
111.625
108.4
106.317
105.034
103.495
103.739
107.291
118.308
138.412
165.089
242.098
251.175
259.336
266.149
272.835
281.832
163.458
154.052
145.687
138.172
131.299
124.996
119.112
113.736
109.06
105.747
104.58
103.587
103.773
108.559
123.166
155.339
246.043
336.334
410.598
436.161
431.311
405.434
393.877
384.591
373.584
136.685
129.405
123.007
117.37
112.388
108.019
104.428
102.134
102.267
101.548
104.642
117.705
150.319
179.688
362.513
640.878
803.803
433.545
168.121
134.667
125.179
132.238
142.676
142.644
117.239
112.818
108.985
105.735
103.018
100.918
99.6921
100.144
104.268
104.596
118.293
137.816
205.322
572.199
1149.89
446.724
325.156
152.613
105.524
100.103
102.634
109.438
113.47
115.732
100.381
98.5635
97.2071
96.3251
96.1171
96.9781
99.8825
106.919
107.384
122.049
147.083
349.918
659.727
288.85
111.511
115.739
126.976
139.24
140.99
142.696
121.263
110.601
119.314
139.566
156.908
176.78
167.355
454.367
406.984
380.571
369.715
313.207
254.138
272.348
288.968
305.099
72.319
75.4261
78.3416
80.8717
82.8657
84.2995
85.3056
86.0656
86.7657
87.5447
88.4597
89.6622
90.6707
91.2633
91.3702
90.9397
89.7725
40.5258
43.3702
46.4386
49.5604
52.5231
55.1568
57.3917
59.2406
60.7451
61.9424
62.8518
63.465
63.7403
63.6676
63.0752
62.0173
60.7976
59.4554
25.4273
26.5919
27.9639
29.4956
31.0994
32.6737
34.1343
35.4302
36.5336
37.4218
38.0722
38.462
38.5629
38.2782
37.8325
37.2868
36.6648
35.9873
20.0163
20.3418
20.7459
21.2212
21.7469
22.2922
22.8241
23.311
23.7277
24.0534
24.2696
24.359
24.2934
24.1812
24.0264
23.835
23.6135
23.3685
18.0173
18.079
18.1641
18.2706
18.3931
18.5235
18.652
18.7682
18.8623
18.9261
18.9526
18.9309
18.8929
18.8386
18.7688
18.6852
18.5896
18.4843
17.1275
17.1127
17.1056
17.1052
17.1094
17.1156
17.1206
17.1213
17.1148
17.0986
17.0693
17.0323
16.9893
16.9402
16.885
16.8243
16.7588
16.6892
16.6558
16.6162
16.58
16.5466
16.5151
16.4843
16.453
16.4203
16.385
16.3463
16.3038
16.2591
16.2121
16.1626
16.1105
16.0562
15.9998
15.9417
16.3765
16.3274
16.2802
16.2346
16.1902
16.1464
16.1027
16.0587
16.0139
15.9679
15.9209
15.8731
15.8243
15.7746
15.7239
15.6721
15.6194
15.566
16.1987
16.1453
16.0931
16.0422
15.9922
15.9428
15.8938
15.8449
15.7959
15.7465
15.6971
15.6475
15.5977
15.5477
15.4973
15.4466
15.3957
15.3445
16.0808
16.025
15.9702
15.9165
15.8635
15.8112
15.7593
15.7078
15.6565
15.6052
15.5542
15.5034
15.4527
15.4021
15.3515
15.301
15.2505
15.2001
16.0008
15.9435
15.8871
15.8316
15.7768
15.7226
15.6689
15.6157
15.5627
15.5101
15.4579
15.4059
15.3543
15.3029
15.2518
15.201
15.1504
15.1001
15.9459
15.8876
15.8301
15.7733
15.7172
15.6617
15.6067
15.5521
15.498
15.4442
15.3909
15.3379
15.2854
15.2332
15.1815
15.1301
15.079
15.0284
15.908
15.8489
15.7905
15.7328
15.6757
15.6192
15.5632
15.5076
15.4525
15.3977
15.3435
15.2896
15.2362
15.1833
15.1308
15.0788
15.0272
14.976
15.8816
15.8219
15.7629
15.7045
15.6466
15.5893
15.5324
15.476
15.4201
15.3645
15.3095
15.2549
15.2007
15.1471
15.0939
15.0412
14.9891
14.9374
15.8631
15.8029
15.7434
15.6844
15.626
15.568
15.5105
15.4534
15.3968
15.3406
15.2849
15.2296
15.1748
15.1205
15.0668
15.0135
14.9608
14.9086
15.8501
15.7895
15.7296
15.6702
15.6112
15.5528
15.4947
15.4371
15.3799
15.3232
15.2669
15.2111
15.1558
15.101
15.0467
14.9929
14.9397
14.8871
15.8409
15.7801
15.7198
15.66
15.6007
15.5418
15.4833
15.4253
15.3677
15.3105
15.2538
15.1975
15.1418
15.0865
15.0318
14.9776
14.924
14.8709
15.8344
15.7734
15.7128
15.6527
15.5931
15.5339
15.4752
15.4168
15.3588
15.3013
15.2442
15.1876
15.1315
15.0759
15.0208
14.9663
14.9124
14.859
15.8299
15.7687
15.7079
15.6476
15.5878
15.5284
15.4693
15.4107
15.3525
15.2947
15.2374
15.1805
15.1241
15.0682
15.0129
14.9581
14.9039
14.8503
15.8269
15.7655
15.7046
15.6442
15.5842
15.5246
15.4654
15.4066
15.3482
15.2902
15.2327
15.1756
15.119
15.0629
15.0074
14.9524
14.898
14.8442
15.825
15.7635
15.7026
15.642
15.5819
15.5222
15.4629
15.404
15.3455
15.2874
15.2297
15.1725
15.1158
15.0596
15.004
14.9489
14.8943
14.8404
15.8241
15.7626
15.7016
15.641
15.5808
15.5211
15.4617
15.4027
15.3441
15.286
15.2283
15.171
15.1142
15.0579
15.0022
14.947
14.8924
14.8383
16.4015
16.3343
16.2678
16.2021
16.1371
16.0728
16.0091
15.946
15.8835
15.8216
15.7601
15.6992
15.6386
15.5785
15.5188
15.4595
15.4005
15.342
15.2839
15.2261
15.1689
15.1121
15.0558
15
16.4021
16.3349
16.2685
16.2028
16.1378
16.0735
16.0098
15.9468
15.8843
15.8224
15.761
15.7001
15.6396
15.5796
15.5199
15.4607
15.4018
15.3433
15.2853
15.2276
15.1704
15.1137
15.0575
15.0018
16.4038
16.3366
16.2701
16.2044
16.1394
16.0751
16.0115
15.9485
15.8861
15.8243
15.763
15.7021
15.6418
15.5818
15.5223
15.4631
15.4044
15.346
15.2881
15.2305
15.1735
15.1169
15.0608
15.0052
16.4064
16.3391
16.2726
16.2069
16.1419
16.0777
16.0141
15.9512
15.8889
15.8272
15.766
15.7053
15.6451
15.5853
15.5259
15.467
15.4084
15.3502
15.2924
15.2351
15.1782
15.1218
15.0659
15.0105
16.4102
16.3429
16.2764
16.2107
16.1458
16.0816
16.0181
15.9553
15.8931
15.8315
15.7705
15.71
15.65
15.5904
15.5313
15.4726
15.4142
15.3563
15.2988
15.2417
15.1851
15.129
15.0733
15.0182
16.4158
16.3485
16.282
16.2162
16.1513
16.0872
16.0238
15.9611
15.8991
15.8378
15.777
15.7167
15.657
15.5977
15.5389
15.4805
15.4225
15.3649
15.3077
15.251
15.1947
15.1389
15.0836
15.0289
16.4239
16.3565
16.29
16.2243
16.1594
16.0954
16.0321
15.9696
15.9079
15.8467
15.7862
15.7263
15.6669
15.608
15.5496
15.4916
15.434
15.3768
15.3201
15.2638
15.208
15.1526
15.0978
15.0435
16.4356
16.3681
16.3016
16.2359
16.1711
16.1072
16.0441
15.9819
15.9203
15.8595
15.7994
15.7399
15.6809
15.6225
15.5646
15.5071
15.45
15.3934
15.3372
15.2815
15.2262
15.1714
15.1171
15.0633
16.4523
16.3848
16.3183
16.2527
16.188
16.1243
16.0614
15.9994
15.9383
15.8779
15.8182
15.7592
15.7008
15.643
15.5856
15.5288
15.4724
15.4165
15.361
15.3059
15.2513
15.1971
15.1434
15.0903
16.4764
16.4089
16.3424
16.277
16.2125
16.149
16.0864
16.0248
15.964
15.9041
15.8451
15.7867
15.729
15.6719
15.6154
15.5594
15.5038
15.4487
15.394
15.3397
15.2859
15.2325
15.1796
15.1271
16.5113
16.4439
16.3775
16.3122
16.2479
16.1847
16.1226
16.0614
16.0013
15.942
15.8837
15.8262
15.7694
15.7133
15.6577
15.6027
15.5482
15.494
15.4403
15.387
15.3341
15.2817
15.2296
15.1779
16.5619
16.4947
16.4285
16.3635
16.2996
16.2369
16.1752
16.1147
16.0553
15.997
15.9396
15.8832
15.8276
15.7728
15.7186
15.6649
15.6116
15.5588
15.5062
15.4541
15.4023
15.3508
15.2997
15.2488
16.636
16.569
16.5032
16.4386
16.3752
16.3131
16.2523
16.1927
16.1343
16.0772
16.0213
15.9665
15.9126
15.8595
15.8071
15.7552
15.7037
15.6525
15.6014
15.5507
15.5001
15.4498
15.3996
15.3495
16.7449
16.6783
16.613
16.5491
16.4865
16.4253
16.3656
16.3074
16.2508
16.1956
16.1419
16.0895
16.0383
15.988
15.9384
15.8892
15.8403
15.7914
15.7424
15.6934
15.6445
15.5954
15.5462
15.4967
16.9067
16.8407
16.7762
16.7133
16.6521
16.5925
16.5348
16.4791
16.4253
16.3735
16.3237
16.2758
16.2293
16.1841
16.1395
16.0952
16.0508
16.0059
15.9603
15.9139
15.8671
15.8196
15.7714
15.7223
17.1523
17.0874
17.0244
16.9634
16.9046
16.8481
16.7942
16.7431
16.695
16.6501
16.6083
16.5695
16.5332
16.4985
16.4647
16.4308
16.3961
16.3596
16.3208
16.2793
16.2363
16.1916
16.1447
16.0958
17.5394
17.4767
17.4166
17.3595
17.3057
17.2557
17.21
17.1693
17.1341
17.1049
17.082
17.0652
17.0535
17.0453
17.0386
17.0314
17.0214
17.0069
16.9859
16.9556
16.9215
16.8828
16.8391
16.7901
18.1823
18.1247
18.0716
18.0238
17.9821
17.9476
17.9218
17.9065
17.9036
17.9152
17.9426
17.9859
18.043
18.1102
18.1825
18.2538
18.3184
18.3706
18.4046
18.4151
18.4026
18.378
18.3405
18.29
19.3261
19.2829
19.2489
19.2259
19.2165
19.2239
19.2529
19.3092
19.3997
19.5308
19.7081
19.9347
20.2061
20.5111
20.8324
21.1515
21.4508
21.7133
21.9219
22.0597
22.1018
22.1042
22.0698
22.0012
21.9002
21.5098
21.5165
21.5466
21.6054
21.7006
21.8431
22.047
22.3294
22.7128
23.2198
23.8706
24.6729
25.6075
26.6242
27.6594
28.6572
29.5746
30.3759
31.0268
31.4937
31.7493
31.7643
31.6803
31.4991
31.232
26.2321
26.4567
26.749
27.1225
27.5973
28.2004
28.9682
29.9449
31.1865
32.7492
34.6665
36.9124
39.3702
41.8645
44.2305
46.3699
48.2446
49.8361
51.1184
52.056
52.6135
52.7078
52.3967
51.8751
51.1668
39.2478
40.3137
41.5053
42.836
44.3339
46.0432
48.0241
50.3489
53.0849
56.2732
59.8928
63.766
67.6032
71.1095
74.1175
76.6167
78.6953
80.4203
81.7929
82.7919
83.392
83.5011
82.9008
81.7648
80.3879
81.4755
83.2232
84.8842
86.4618
87.982
89.4899
91.0437
92.6286
94.3972
96.4186
98.6685
100.988
103.258
105.137
106.954
108.886
110.929
113.03
115.048
116.855
118.547
120.452
120.924
119.939
118.136
151.005
148.011
144.815
141.51
138.184
134.925
131.822
128.96
126.446
124.49
123.31
123.273
122.233
122.856
126.747
134.593
143.789
153.22
162.674
171.942
182.289
211.498
213.262
213.672
212.477
211.85
179.491
170.163
161.874
154.496
147.952
142.24
137.267
133.233
130.702
129.792
129.236
134.868
153.636
190.128
254.085
262.064
293.18
350.879
356.455
375.896
390.312
412.986
394.497
378.531
364.845
174.705
166.401
159.005
152.449
146.724
141.936
138.646
137.75
135.535
141.244
173.84
227.423
478.901
708.098
1339.14
960.103
867.022
842.909
516.55
353.241
317.661
215.545
265.316
262.282
176.493
169.381
163.346
158.31
154.278
151.351
150.223
153.66
152.58
174.504
217.119
674.565
496.455
150.917
149.545
146.413
150.644
148.261
152.461
148.116
144.625
142.105
140.835
141.652
147.102
149.125
175.068
234.138
1147.91
1577.49
159.606
167.688
174.877
180.361
172.424
1050.19
270.599
146.246
159.101
206.459
229.646
212.568
531.692
409.754
380.705
359.74
331.756
232.747
240.755
248.078
254.616
58.5561
62.1346
65.9048
69.5986
72.8928
75.615
77.755
79.4069
80.6504
81.5165
82.0388
82.2354
82.0173
81.0812
79.8991
78.5069
76.9413
33.9381
35.9461
38.2621
40.7538
43.2279
45.5082
47.4918
49.1491
50.4822
51.4844
52.1443
52.449
52.2508
51.854
51.2692
50.5176
49.6325
48.6477
23.6591
24.3659
25.223
26.2038
27.2483
28.2834
29.2463
30.0913
30.7884
31.3147
31.6481
31.7418
31.7034
31.5731
31.3559
31.0618
30.7041
30.2968
19.6783
19.8758
20.1232
20.4141
20.7341
21.0626
21.3779
21.6608
21.8929
22.0599
22.1505
22.1649
22.1456
22.092
22.0056
21.8895
21.7479
21.5856
17.9676
18.0013
18.0511
18.1144
18.1866
18.2617
18.3327
18.3932
18.4372
18.4593
18.452
18.4328
18.4016
18.3579
18.3017
18.234
18.156
18.0694
17.1249
17.1041
17.0894
17.0797
17.0732
17.0675
17.0603
17.0491
17.0321
17.0075
16.9751
16.9386
16.8973
16.8511
16.7997
16.7435
16.683
16.6188
16.6581
16.6172
16.5793
16.5438
16.5098
16.4765
16.4427
16.4077
16.3705
16.3306
16.2885
16.2448
16.1993
16.1516
16.1017
16.0497
15.9958
15.9403
16.3774
16.328
16.2805
16.2345
16.1896
16.1453
16.1012
16.0568
16.0117
15.9657
15.9192
15.8722
15.8245
15.776
15.7266
15.6763
15.6253
15.5734
16.1983
16.1448
16.0927
16.0417
15.9916
15.9422
15.8932
15.8443
15.7955
15.7465
15.6975
15.6485
15.5994
15.55
15.5005
15.4507
15.4006
15.3504
16.0798
16.024
15.9693
15.9156
15.8626
15.8104
15.7586
15.7072
15.656
15.605
15.5543
15.5038
15.4535
15.4033
15.3532
15.3032
15.2532
15.2034
15.9997
15.9425
15.8861
15.8306
15.7759
15.7217
15.6681
15.6149
15.5621
15.5096
15.4575
15.4058
15.3544
15.3032
15.2524
15.2019
15.1515
15.1015
15.9449
15.8867
15.8292
15.7724
15.7164
15.6609
15.6059
15.5514
15.4973
15.4436
15.3903
15.3375
15.2851
15.233
15.1814
15.1302
15.0793
15.0288
15.9072
15.8481
15.7898
15.7321
15.675
15.6185
15.5625
15.5069
15.4518
15.3971
15.3429
15.2891
15.2357
15.1829
15.1305
15.0785
15.027
14.9759
15.8809
15.8212
15.7622
15.7038
15.646
15.5887
15.5318
15.4754
15.4195
15.3639
15.3089
15.2543
15.2002
15.1465
15.0934
15.0408
14.9886
14.9369
15.8626
15.8024
15.7429
15.6839
15.6254
15.5675
15.51
15.4529
15.3963
15.3401
15.2843
15.229
15.1743
15.12
15.0662
15.013
14.9602
14.9081
15.8497
15.7891
15.7292
15.6698
15.6108
15.5523
15.4943
15.4367
15.3795
15.3227
15.2664
15.2106
15.1553
15.1005
15.0462
14.9924
14.9392
14.8865
15.8406
15.7798
15.7195
15.6597
15.6004
15.5415
15.483
15.425
15.3674
15.3102
15.2534
15.1972
15.1414
15.0861
15.0314
14.9772
14.9236
14.8705
15.8343
15.7732
15.7127
15.6526
15.593
15.5338
15.475
15.4166
15.3586
15.3011
15.244
15.1874
15.1313
15.0756
15.0206
14.966
14.9121
14.8587
15.8299
15.7686
15.7079
15.6476
15.5877
15.5283
15.4693
15.4106
15.3524
15.2946
15.2373
15.1804
15.124
15.0681
15.0128
14.958
14.9037
14.8501
15.8269
15.7656
15.7047
15.6442
15.5842
15.5246
15.4654
15.4066
15.3482
15.2902
15.2326
15.1756
15.119
15.0629
15.0074
14.9524
14.898
14.8441
15.8251
15.7636
15.7026
15.6421
15.582
15.5223
15.463
15.404
15.3455
15.2874
15.2297
15.1725
15.1158
15.0596
15.0039
14.9488
14.8943
14.8403
15.8242
15.7627
15.7017
15.6411
15.5809
15.5211
15.4617
15.4028
15.3442
15.286
15.2282
15.171
15.1142
15.0579
15.0021
14.9469
14.8923
14.8383
16.4015
16.3344
16.2679
16.2022
16.1373
16.0729
16.0093
15.9462
15.8837
15.8218
15.7603
15.6994
15.6388
15.5787
15.519
15.4597
15.4007
15.3422
15.284
15.2263
15.169
15.1122
15.0558
15
16.4022
16.335
16.2686
16.2029
16.1379
16.0736
16.01
15.9469
15.8845
15.8226
15.7612
15.7003
15.6398
15.5798
15.5201
15.4608
15.402
15.3435
15.2854
15.2277
15.1705
15.1138
15.0575
15.0018
16.4037
16.3365
16.2701
16.2044
16.1394
16.0752
16.0116
15.9486
15.8862
15.8244
15.7631
15.7022
15.6419
15.5819
15.5224
15.4632
15.4044
15.346
15.2881
15.2305
15.1734
15.1168
15.0607
15.0051
16.406
16.3388
16.2724
16.2067
16.1417
16.0775
16.0139
15.951
15.8887
15.827
15.7659
15.7052
15.6449
15.5851
15.5258
15.4668
15.4082
15.35
15.2922
15.2348
15.1779
15.1215
15.0656
15.0101
16.4095
16.3423
16.2758
16.2101
16.1452
16.081
16.0175
15.9547
15.8925
15.831
15.77
15.7095
15.6494
15.5899
15.5307
15.4719
15.4136
15.3557
15.2981
15.241
15.1844
15.1282
15.0725
15.0174
16.4146
16.3473
16.2808
16.2151
16.1502
16.0861
16.0227
15.9601
15.8981
15.8367
15.7759
15.7157
15.6559
15.5966
15.5378
15.4793
15.4213
15.3637
15.3065
15.2497
15.1934
15.1376
15.0823
15.0275
16.4223
16.3549
16.2884
16.2227
16.1579
16.0939
16.0306
15.9681
15.9063
15.8452
15.7847
15.7248
15.6654
15.6065
15.548
15.49
15.4324
15.3752
15.3184
15.2621
15.2062
15.1508
15.0959
15.0416
16.4335
16.3661
16.2996
16.234
16.1692
16.1053
16.0423
15.98
15.9185
15.8577
15.7975
15.738
15.6791
15.6206
15.5626
15.5051
15.4481
15.3914
15.3352
15.2794
15.2241
15.1693
15.1149
15.0611
16.4499
16.3825
16.316
16.2504
16.1858
16.1221
16.0593
15.9973
15.9361
15.8757
15.8161
15.757
15.6986
15.6408
15.5835
15.5266
15.4702
15.4142
15.3587
15.3036
15.249
15.1948
15.1411
15.0879
16.4736
16.4062
16.3397
16.2743
16.2099
16.1464
16.0839
16.0223
15.9616
15.9017
15.8427
15.7843
15.7266
15.6695
15.613
15.5569
15.5014
15.4462
15.3915
15.3373
15.2835
15.2302
15.1773
15.1248
16.5079
16.4406
16.3743
16.3091
16.2449
16.1818
16.1197
16.0586
15.9985
15.9393
15.881
15.8235
15.7667
15.7106
15.6551
15.6001
15.5456
15.4915
15.4378
15.3846
15.3318
15.2794
15.2274
15.1759
16.5579
16.4908
16.4248
16.36
16.2962
16.2336
16.172
16.1116
16.0523
15.994
15.9367
15.8803
15.8248
15.7699
15.7157
15.6621
15.6089
15.5561
15.5037
15.4517
15.4001
15.3489
15.298
15.2474
16.6314
16.5646
16.4991
16.4347
16.3716
16.3096
16.249
16.1895
16.1313
16.0743
16.0184
15.9636
15.9097
15.8567
15.8043
15.7524
15.701
15.6499
15.5991
15.5486
15.4985
15.4486
15.3989
15.3494
16.74
16.6739
16.609
16.5455
16.4832
16.4224
16.363
16.305
16.2484
16.1934
16.1397
16.0873
16.036
15.9856
15.936
15.8868
15.8379
15.7892
15.7404
15.692
15.6436
15.5953
15.547
15.4985
16.9027
16.8375
16.7738
16.7115
16.6508
16.5917
16.5344
16.4789
16.4252
16.3734
16.3235
16.2752
16.2283
16.1825
16.1375
16.0927
16.0479
16.0028
15.9572
15.9116
15.8658
15.8196
15.7728
15.7255
17.1516
17.088
17.0262
16.9662
16.9082
16.8523
16.7988
16.7478
16.6994
16.6539
16.611
16.5707
16.5324
16.4955
16.4592
16.4228
16.3856
16.3472
16.3069
16.266
16.2242
16.1811
16.1365
16.0902
17.5462
17.4854
17.4269
17.3712
17.3183
17.2688
17.2228
17.181
17.1437
17.1111
17.0834
17.06
17.0402
17.0224
17.0051
16.9867
16.9657
16.9411
16.912
16.8798
16.8452
16.8075
16.7661
16.7205
18.2092
18.1532
18.1011
18.0533
18.0105
17.9733
17.9428
17.92
17.906
17.9018
17.9079
17.9235
17.9468
17.9744
18.0021
18.0263
18.0438
18.0519
18.048
18.0347
18.0151
17.9882
17.9528
17.9084
19.394
19.345
19.3032
19.2696
19.2456
19.2332
19.2347
19.2532
19.2921
19.3548
19.443
19.5559
19.689
19.8337
19.9793
20.1165
20.2373
20.3343
20.4001
20.436
20.4555
20.456
20.4352
20.3923
20.3283
21.6093
21.5717
21.5492
21.5439
21.5595
21.6014
21.6767
21.7939
21.964
22.199
22.5077
22.8912
23.3359
23.8134
24.2904
24.7402
25.1444
25.4861
25.7446
25.9117
26.0367
26.108
26.1199
26.07
25.9611
26.1614
26.1556
26.159
26.2081
26.3108
26.4815
26.7408
27.1145
27.6374
28.3475
29.2758
30.4166
31.7074
33.0397
34.3112
35.4659
36.4812
37.3367
37.9972
38.4235
38.7402
38.9209
38.9427
38.8032
38.5143
36.9714
37.0824
37.2496
37.449
37.6911
38.112
38.7646
39.7116
41.0305
42.7972
45.0474
47.6896
50.4895
53.1363
55.4351
57.3671
58.9899
60.3193
61.3142
61.8894
62.1993
62.257
62.0091
61.4583
60.6514
67.4992
67.4072
67.4562
67.6509
68.0094
68.4401
68.9542
69.897
71.4027
73.5627
76.4286
79.7454
82.9397
85.7276
87.927
89.6801
91.1846
92.443
93.3426
93.782
93.7247
93.4472
92.8324
91.7784
90.3652
124.224
121.818
119.585
117.533
115.696
114.108
112.861
111.809
111.223
111.482
113.021
112.478
113.705
117.942
123.419
128.617
133.445
137.858
141.351
143.361
144.256
147.034
152.162
150.71
148.901
147.038
172.094
164.383
157.495
151.373
146.001
141.416
137.716
134.966
133.999
132.371
133.858
149.517
191.869
215.544
255.269
272.052
279.051
279.679
275.234
280.944
276.753
282.465
308.3
298.215
288.22
179.466
171.158
163.712
157.073
151.252
146.343
142.682
139.34
139.129
156.275
215.249
722.634
2361.88
632.573
696.682
591.293
448.318
340.207
309.835
145.235
138.933
133.293
128.156
123.472
119.639
115.918
116.972
125.36
153.487
811.123
652.583
211.941
202.596
190.812
200.066
153.617
147.916
142.793
138.258
134.335
131.371
130.4
142.744
180.917
1101.19
247.461
229.866
216.819
196.798
264.847
186.13
266.55
271.354
242.82
510.044
436.24
347.063
321.79
242.837
212.653
213.074
213.017
116.405
120.04
122.45
124.019
44.2744
46.626
49.3475
52.1797
54.786
56.9566
58.6772
60.0163
61.0118
61.6475
61.9233
62.0127
61.8966
61.5188
60.8857
60.0303
58.9968
28.991
29.9945
31.2091
32.5612
33.9254
35.1857
36.2786
37.1841
37.8893
38.3762
38.695
38.91
38.9977
38.9457
38.7507
38.4218
37.9715
37.4369
22.4365
22.7759
23.1914
23.6657
24.1648
24.6494
25.0887
25.4628
25.754
25.9482
26.0794
26.1667
26.2028
26.1834
26.1073
25.9777
25.8005
25.5828
19.4402
19.5389
19.6628
19.8061
19.9588
20.1083
20.2439
20.3566
20.4392
20.4847
20.5103
20.5188
20.508
20.4766
20.424
20.3509
20.2588
20.1499
17.9328
17.9424
17.9618
17.9885
18.0188
18.0479
18.0716
18.0865
18.0899
18.0788
18.0622
18.0392
18.0086
17.9696
17.9218
17.8651
17.8001
17.7279
17.1232
17.0968
17.0748
17.0562
17.0395
17.0228
17.0042
16.9824
16.9562
16.9251
16.8918
16.856
16.8169
16.774
16.7271
16.676
16.6212
16.5631
16.6586
16.6164
16.5767
16.539
16.5026
16.4666
16.4303
16.393
16.3541
16.3136
16.2724
16.2302
16.1866
16.1415
16.0945
16.0457
15.9952
15.9431
16.3757
16.3261
16.2781
16.2316
16.1862
16.1413
16.0967
16.052
16.0069
15.9614
15.9157
15.8699
15.8236
15.7767
15.7291
15.6807
15.6315
15.5818
16.1952
16.1417
16.0895
16.0384
15.9883
15.9388
15.8898
15.841
15.7923
15.7437
15.6954
15.6471
15.5988
15.5505
15.5019
15.4532
15.4043
15.3552
16.0763
16.0206
15.9659
15.9122
15.8593
15.807
15.7553
15.704
15.6529
15.6022
15.5519
15.5018
15.4519
15.4023
15.3528
15.3033
15.254
15.2048
15.9964
15.9392
15.8829
15.8274
15.7727
15.7186
15.665
15.6119
15.5591
15.5068
15.4549
15.4034
15.3522
15.3013
15.2508
15.2005
15.1506
15.1008
15.942
15.8838
15.8263
15.7696
15.7135
15.658
15.603
15.5486
15.4945
15.4409
15.3877
15.335
15.2826
15.2307
15.1792
15.1281
15.0774
15.027
15.9046
15.8456
15.7872
15.7295
15.6725
15.6159
15.5599
15.5043
15.4492
15.3945
15.3403
15.2866
15.2333
15.1804
15.128
15.0761
15.0246
14.9736
15.8787
15.819
15.76
15.7016
15.6437
15.5864
15.5295
15.4731
15.4171
15.3616
15.3065
15.2519
15.1978
15.1441
15.091
15.0383
14.9861
14.9345
15.8606
15.8005
15.7409
15.6819
15.6234
15.5654
15.5079
15.4508
15.3941
15.3379
15.2821
15.2268
15.172
15.1177
15.0639
15.0106
14.9579
14.9056
15.8481
15.7876
15.7276
15.6681
15.6092
15.5507
15.4926
15.435
15.3777
15.321
15.2646
15.2088
15.1534
15.0985
15.0442
14.9904
14.9371
14.8844
15.8395
15.7787
15.7184
15.6586
15.5992
15.5403
15.4818
15.4238
15.3661
15.3089
15.2521
15.1958
15.14
15.0847
15.0299
14.9757
14.922
14.8689
15.8337
15.7726
15.7121
15.652
15.5923
15.5331
15.4743
15.4159
15.3579
15.3003
15.2432
15.1866
15.1304
15.0748
15.0196
14.9651
14.9111
14.8576
15.8297
15.7684
15.7077
15.6474
15.5875
15.5281
15.469
15.4104
15.3521
15.2943
15.2369
15.18
15.1236
15.0677
15.0123
14.9575
14.9032
14.8495
15.827
15.7656
15.7047
15.6443
15.5843
15.5246
15.4654
15.4066
15.3482
15.2902
15.2326
15.1755
15.1189
15.0627
15.0072
14.9522
14.8977
14.8438
15.8252
15.7638
15.7028
15.6423
15.5821
15.5224
15.4631
15.4042
15.3456
15.2875
15.2298
15.1726
15.1158
15.0596
15.0039
14.9487
14.8942
14.8401
15.8244
15.7629
15.7019
15.6413
15.5811
15.5213
15.4619
15.4029
15.3443
15.2861
15.2283
15.171
15.1142
15.0579
15.0021
14.9469
14.8922
14.8381
16.4016
16.3345
16.2681
16.2025
16.1375
16.0732
16.0096
15.9465
15.8841
15.8221
15.7607
15.6997
15.6392
15.5791
15.5194
15.46
15.401
15.3425
15.2843
15.2265
15.1692
15.1123
15.056
15.0001
16.4022
16.3351
16.2687
16.203
16.1381
16.0738
16.0102
15.9472
15.8848
15.8229
15.7615
15.7006
15.6401
15.58
15.5204
15.4611
15.4022
15.3437
15.2856
15.2279
15.1706
15.1139
15.0576
15.0018
16.4035
16.3363
16.2699
16.2043
16.1393
16.0751
16.0115
15.9485
15.8862
15.8243
15.763
15.7022
15.6418
15.5819
15.5223
15.4631
15.4043
15.3459
15.2879
15.2304
15.1732
15.1165
15.0604
15.0047
16.4051
16.3379
16.2715
16.2058
16.1409
16.0767
16.0132
15.9503
15.888
15.8263
15.7651
15.7044
15.6442
15.5843
15.5249
15.4659
15.4073
15.3491
15.2913
15.2339
15.1769
15.1204
15.0644
15.009
16.4074
16.3401
16.2737
16.208
16.1431
16.0789
16.0155
15.9527
15.8905
15.8289
15.7679
15.7074
15.6474
15.5878
15.5286
15.4698
15.4114
15.3534
15.2958
15.2387
15.182
15.1258
15.07
15.0148
16.4109
16.3436
16.2771
16.2114
16.1466
16.0825
16.0191
15.9564
15.8944
15.833
15.7722
15.712
15.6522
15.5929
15.534
15.4755
15.4174
15.3597
15.3025
15.2457
15.1893
15.1334
15.078
15.0231
16.4171
16.3497
16.2832
16.2176
16.1527
16.0887
16.0255
15.963
15.9012
15.84
15.7795
15.7195
15.6601
15.6011
15.5426
15.4845
15.4269
15.3696
15.3128
15.2564
15.2004
15.145
15.09
15.0355
16.4273
16.3599
16.2934
16.2278
16.163
16.0992
16.0361
15.9738
15.9123
15.8515
15.7913
15.7317
15.6727
15.6142
15.5562
15.4986
15.4415
15.3847
15.3284
15.2726
15.2172
15.1623
15.1078
15.0539
16.4429
16.3755
16.309
16.2435
16.1789
16.1152
16.0524
15.9904
15.9292
15.8688
15.8091
15.7501
15.6916
15.6337
15.5763
15.5194
15.4629
15.4069
15.3513
15.2961
15.2414
15.1872
15.1334
15.0801
16.4659
16.3985
16.3322
16.2668
16.2024
16.139
16.0765
16.0149
15.9542
15.8944
15.8353
15.7769
15.7191
15.662
15.6054
15.5493
15.4937
15.4385
15.3838
15.3295
15.2756
15.2222
15.1693
15.1168
16.4994
16.4322
16.3661
16.301
16.2369
16.1738
16.1118
16.0508
15.9907
15.9315
15.8732
15.8157
15.7589
15.7028
15.6472
15.5922
15.5377
15.4836
15.4299
15.3767
15.3239
15.2716
15.2196
15.1681
16.5486
16.4817
16.4159
16.3512
16.2876
16.2251
16.1637
16.1034
16.0442
15.9859
15.9287
15.8723
15.8168
15.762
15.7078
15.6541
15.601
15.5483
15.4959
15.4441
15.3926
15.3416
15.2909
15.2405
16.6212
16.5548
16.4895
16.4255
16.3626
16.301
16.2405
16.1813
16.1232
16.0664
16.0106
15.9559
15.9021
15.849
15.7967
15.745
15.6936
15.6427
15.5921
15.5419
15.4922
15.4427
15.3935
15.3444
16.7294
16.6639
16.5996
16.5366
16.4749
16.4145
16.3555
16.2979
16.2416
16.1868
16.1332
16.0809
16.0297
15.9794
15.9298
15.8807
15.8319
15.7834
15.7351
15.6872
15.6396
15.5921
15.5447
15.4973
16.8931
16.829
16.7662
16.7049
16.6451
16.5868
16.5302
16.4752
16.4219
16.3704
16.3206
16.2723
16.2253
16.1794
16.1341
16.0891
16.0443
15.9993
15.9543
15.9095
15.8649
15.8201
15.7749
15.7292
17.1459
17.0841
17.024
16.9656
16.909
16.8543
16.8018
16.7515
16.7035
16.658
16.6148
16.5738
16.5346
16.4964
16.4587
16.4209
16.3824
16.343
16.3031
16.2632
16.2229
16.1819
16.1398
16.0962
17.5491
17.4912
17.4356
17.3823
17.3316
17.2836
17.2388
17.1974
17.1597
17.1259
17.0958
17.0691
17.0449
17.0218
16.9985
16.9738
16.9467
16.9167
16.8852
16.8529
16.8192
16.7834
16.7448
16.7029
18.2376
18.185
18.1357
18.0903
18.0489
18.0123
17.9809
17.9557
17.9371
17.9258
17.9216
17.9236
17.9297
17.9369
17.9419
17.942
17.9356
17.9215
17.9036
17.8828
17.8585
17.8294
17.7941
17.7517
19.467
19.4183
19.3761
19.341
19.3137
19.2955
19.2879
19.2926
19.3113
19.3455
19.3953
19.4584
19.5288
19.5989
19.6613
19.7107
19.7443
19.76
19.7679
19.7689
19.7616
19.744
19.7129
19.6662
19.6041
21.7847
21.7549
21.7253
21.6968
21.6812
21.6849
21.7116
21.766
21.8534
21.9788
22.1442
22.344
22.5616
22.774
22.9625
23.118
23.238
23.3197
23.3919
23.4482
23.4862
23.5006
23.4837
23.4301
23.34
26.4435
26.4137
26.3962