/*--------------------------------*- C++ -*----------------------------------*\
  =========                 |
  \\      /  F ield         | OpenFOAM: The Open Source CFD Toolbox
   \\    /   O peration     | Website:  https://openfoam.org
    \\  /    A nd           | Version:  13
     \\/     M anipulation  |
\*---------------------------------------------------------------------------*/
FoamFile
{
    format      ascii;
    class       volScalarField;
    location    "500";
    object      p;
}
// * * * * * * * * * * * * * * * * * * * * * * * * * * * * * * * * * * * * * //

dimensions      [0 2 -2 0 0 0 0];

internalField   nonuniform List<scalar> 
171745
(
-1.54842
-2.01775
-2.49231
-2.97166
-3.4552
-3.94198
-4.43067
-4.91942
-5.40597
-5.88774
-6.36192
-6.82554
-7.2754
-7.70817
-8.12051
-8.50919
-8.87122
-9.20386
-9.50477
-9.77201
-10.0041
-10.2002
-10.3598
-10.4831
-1.55426
-2.0231
-2.4976
-2.97733
-3.46166
-3.94964
-4.43993
-4.93066
-5.41953
-5.9039
-6.3809
-6.84747
-7.30036
-7.73619
-8.15154
-8.54309
-8.90772
-9.24265
-9.54541
-9.81404
-10.047
-10.2435
-10.4029
-10.5256
-1.5651
-2.03287
-2.50716
-2.98756
-3.47342
-3.9638
-4.45731
-4.95207
-5.44568
-5.93539
-6.41818
-6.89085
-7.35001
-7.79212
-8.2136
-8.61097
-8.98093
-9.32047
-9.62703
-9.8985
-10.1333
-10.3306
-10.4899
-10.6113
-1.58051
-2.04654
-2.5204
-3.00172
-3.48986
-3.98386
-4.4823
-4.98321
-5.4841
-5.98203
-6.47378
-6.9559
-7.42475
-7.87657
-8.30753
-8.71384
-9.09194
-9.43856
-9.75091
-10.0267
-10.2644
-10.4629
-10.6219
-10.7415
-1.59896
-2.06249
-2.53564
-3.0181
-3.50927
-4.00815
-4.51326
-5.02256
-5.53338
-6.0426
-6.54669
-7.04188
-7.52419
-7.98949
-8.43356
-8.85224
-9.24158
-9.59795
-9.9183
-10.2001
-10.4417
-10.6419
-10.8004
-10.9175
-1.61898
-2.07905
-2.5511
-3.03485
-3.52974
-4.03476
-4.54838
-5.0684
-5.59203
-6.11584
-6.63599
-7.14827
-7.64821
-8.13119
-8.59248
-9.02738
-9.43143
-9.80059
-10.1314
-10.421
-10.6676
-10.87
-11.0278
-11.1416
-1.63821
-2.09368
-2.56406
-3.04916
-3.54845
-4.0609
-4.58491
-5.11821
-5.65773
-6.19981
-6.74013
-7.27399
-7.79631
-8.30179
-8.78499
-9.24054
-9.66334
-10.0487
-10.3928
-10.6923
-10.9452
-11.1502
-11.3071
-11.4166
-1.6539
-2.10337
-2.57135
-3.05772
-3.56199
-4.08315
-4.61956
-5.1688
-5.72764
-6.29201
-6.85718
-7.41776
-7.96791
-8.50145
-9.01206
-9.49347
-9.9397
-10.3454
-10.706
-11.0179
-11.2786
-11.4867
-11.6423
-11.7461
-1.66249
-2.10429
-2.56891
-3.0563
-3.56603
-4.09714
-4.64798
-5.21605
-5.79789
-6.38914
-6.98444
-7.57766
-8.162
-8.73019
-9.27471
-9.78813
-10.2634
-10.6942
-11.0752
-11.4023
-11.6725
-11.8844
-12.0381
-12.1348
-1.65974
-2.09187
-2.5519
-3.03984
-3.55534
-4.09753
-4.66483
-5.25472
-5.86365
-6.48682
-7.11833
-7.75112
-8.37719
-8.98785
-9.57409
-10.127
-10.638
-11.0997
-11.5058
-11.8515
-12.1333
-12.3497
-12.5007
-12.5883
-1.64051
-2.06065
-2.51456
-3.00229
-3.52359
-4.07777
-4.66342
-5.27821
-5.9185
-6.5793
-7.25399
-7.93448
-8.61129
-9.2739
-9.91133
-10.5126
-11.0677
-11.5673
-12.0043
-12.3727
-12.6686
-12.8901
-13.0376
-13.1135
-1.59879
-2.00431
-2.45024
-2.93661
-3.46331
-4.02998
-4.63561
-5.2782
-5.95442
-6.65907
-7.38499
-8.12281
-8.86122
-9.58736
-10.2876
-10.9485
-11.5575
-12.1038
-12.5785
-12.9748
-13.2879
-13.5155
-13.6583
-13.7194
-1.52762
-1.91564
-2.35133
-2.83465
-3.36573
-3.94468
-4.57122
-5.24417
-5.96074
-6.71604
-7.50236
-8.309
-9.12228
-9.92622
-10.7037
-11.4379
-12.1132
-12.7167
-13.2378
-13.6684
-14.0027
-14.2377
-14.3742
-14.4164
-1.41921
-1.78671
-2.20957
-2.68753
-3.22104
-3.81101
-4.45834
-5.16323
-5.92426
-6.73726
-7.59447
-8.48366
-9.38818
-10.2878
-11.1606
-11.9851
-12.742
-13.4158
-13.9939
-14.4669
-14.8275
-15.0716
-15.1999
-15.2181
-1.26493
-1.60883
-2.01574
-2.48505
-3.01761
-3.6155
-4.28154
-5.01831
-5.8267
-6.70448
-7.64427
-8.63244
-9.64862
-10.6667
-11.6579
-12.594
-13.4514
-14.2115
-14.86
-15.3857
-15.7795
-16.0351
-16.1529
-16.1404
-1.05683
-1.37472
-1.76248
-2.21888
-2.74526
-3.34542
-4.02503
-4.79039
-5.64672
-6.59523
-7.63041
-8.7374
-9.8911
-11.057
-12.196
-13.271
-14.2521
-15.1183
-15.8537
-16.4453
-16.8818
-17.1531
-17.2578
-17.2059
-0.783526
-1.07343
-1.43833
-1.87593
-2.3882
-2.98127
-3.6648
-4.45096
-5.35172
-6.37486
-7.51909
-8.76976
-10.0952
-11.4483
-12.7743
-14.0224
-15.1554
-16.1508
-16.9938
-17.6689
-18.1603
-18.4535
-18.5426
-18.4395
-0.444416
-0.706359
-1.04486
-1.45611
-1.94264
-2.51363
-3.18461
-3.9761
-4.9106
-6.00706
-7.27303
-8.69616
-10.2368
-11.8296
-13.3946
-14.8595
-16.1777
-17.3297
-18.3055
-19.0886
-19.6537
-19.9779
-20.0495
-19.8815
-0.0205236
-0.257281
-0.567037
-0.943551
-1.38958
-1.91774
-2.5509
-3.32136
-4.26759
-5.42618
-6.82113
-8.44981
-10.2657
-12.1741
-14.0516
-15.7901
-17.3324
-18.6707
-19.8095
-20.7324
-21.3995
-21.7673
-21.8145
-21.5599
-21.0605
0.456598
0.240219
-0.0378782
-0.367925
-0.751999
-1.20592
-1.76088
-2.46337
-3.37471
-4.56334
-6.0867
-7.96409
-10.1433
-12.481
-14.7746
-16.8546
-18.6573
-20.2097
-21.5483
-22.6584
-23.4772
-23.9217
-23.9401
-23.559
-22.8794
1.02532
0.815879
0.566101
0.290761
-0.00972963
-0.352524
-0.776827
-1.34838
-2.16089
-3.33108
-4.97366
-7.15529
-9.82953
-12.7805
-15.6501
-18.1453
-20.2151
-21.9776
-23.5392
-24.8856
-25.9178
-26.4848
-26.4687
-25.922
-25.0087
1.57282
1.35882
1.13618
0.926479
0.735091
0.546011
0.314055
-0.0461597
-0.669061
-1.73677
-3.4547
-5.9849
-9.32085
-13.1415
-16.8713
-19.9296
-22.279
-24.2249
-26.0181
-27.6582
-29.0205
-29.743
-29.6208
-28.7894
-27.5431
2.04926
1.79303
1.56991
1.40863
1.32219
1.30017
1.29774
1.22065
0.900844
0.076356
-1.59818
-4.4689
-8.62037
-13.4755
-18.2281
-21.9506
-24.5611
-26.6291
-28.6281
-30.56
-32.7463
-33.8654
-33.5106
-32.2332
-30.5155
1.95379
1.63728
1.40775
1.30099
1.33982
1.52744
1.83457
2.17693
2.37665
2.10958
0.84439
-2.09299
-7.16217
-12.331
-18.445
-23.0862
-26.1391
-28.2598
-30.3295
-32.4422
-36.6593
-38.8093
-37.9332
-36.0611
-33.7521
-31.3071
0.968166
0.790241
0.787143
0.997643
1.44906
2.14805
3.05558
4.03895
4.79752
4.67546
2.62163
-2.74466
-10.5521
-19.9603
-27.2022
-30.5897
-32.707
-34.2606
-36.4038
-38.3748
-42.5523
-40.4708
-37.9552
-34.706
-31.3702
-0.094855
0.00583542
0.380348
1.08444
2.16809
3.66541
5.55019
7.6659
9.60904
7.86164
4.52442
-4.47162
-16.8173
-28.5835
-39.2802
-38.4921
-36.3353
-37.7219
-39.8582
-41.6073
-40.802
-39.3608
-36.7442
-33.2434
-0.791212
-0.647796
-0.206461
0.611817
1.8877
3.69852
6.10704
9.09425
12.3748
13.4191
13.7654
8.86553
1.16474
-17.4378
-88.2307
-48.8369
-37.4266
-37.5482
-38.9993
-40.4788
-40.3226
-38.8185
-36.4018
-33.5023
-1.04072
-0.698858
0.003515
1.13328
2.73764
4.82655
7.29882
9.83071
12.1228
12.9444
12.3939
12.0251
-37.5187
-38.3175
-39.3532
-41.5292
-41.6828
-39.4845
-36.6109
-33.2901
-39.6193
-41.2474
-42.9469
-44.0509
-41.8221
-37.8591
-33.7942
-40.8588
-45.0379
-43.7962
-40.8252
-37.0665
-41.9685
-41.4173
-39.2935
-36.7093
-2.40572
-4.20932
-6.8426
-10.3098
-14.2843
-18.1586
-21.2935
-23.5979
-25.3515
-26.8382
-28.1147
-29.0909
-29.4811
-29.0919
-28.0644
-26.7091
-25.2137
-3.94539
-5.65843
-7.92127
-10.6884
-13.737
-16.689
-19.2196
-21.2496
-22.8843
-24.2412
-25.3347
-26.0927
-26.3971
-26.1593
-25.4395
-24.4024
-23.2022
-21.9324
-5.12415
-6.70219
-8.6395
-10.8818
-13.2799
-15.6186
-17.7109
-19.4771
-20.9367
-22.1315
-23.0613
-23.6805
-23.9283
-23.7686
-23.2413
-22.4519
-21.5065
-20.4816
-5.93706
-7.37276
-9.04364
-10.9007
-12.8444
-14.7438
-16.4805
-17.9883
-19.2547
-20.2871
-21.0778
-21.5982
-21.8181
-21.7274
-21.3519
-20.7559
-20.0141
-19.1868
-6.47121
-7.76713
-9.2193
-10.7858
-12.3977
-13.9702
-15.4249
-16.7106
-17.805
-18.6998
-19.3833
-19.8388
-20.0503
-20.0124
-19.7463
-19.2965
-18.7153
-18.0485
-6.7967
-7.96255
-9.2328
-10.5737
-11.9357
-13.2607
-14.4945
-15.5972
-16.5451
-17.3241
-17.9227
-18.3293
-18.5335
-18.5359
-18.3539
-18.0184
-17.5658
-17.0305
-6.97901
-8.02945
-9.14919
-10.3114
-11.4798
-12.6131
-13.6721
-14.6255
-15.4514
-16.135
-16.6659
-17.0347
-17.2353
-17.2709
-17.1547
-16.9084
-16.5578
-16.1287
-7.05484
-8.00517
-9.00116
-10.0211
-11.0377
-12.0205
-12.9401
-13.7722
-14.4978
-15.1035
-15.5795
-15.9186
-16.1173
-16.1789
-16.1134
-15.9365
-15.6668
-15.3241
-7.05831
-7.92252
-8.81603
-9.72118
-10.6168
-11.4799
-12.2881
-13.022
-13.6658
-14.2079
-14.6396
-14.9552
-15.1525
-15.2344
-15.2084
-15.0857
-14.8806
-14.6077
-7.01163
-7.80232
-8.6108
-9.4226
-10.221
-10.9882
-11.7068
-12.3612
-12.9384
-13.4286
-13.8244
-14.121
-14.3169
-14.4145
-14.4192
-14.3394
-14.1859
-13.9699
-6.93263
-7.66096
-8.3989
-9.13444
-9.85417
-10.544
-11.1901
-11.78
-12.303
-12.7508
-13.1173
-13.3984
-13.5929
-13.7025
-13.7313
-13.6857
-13.5736
-13.404
-6.8339
-7.50959
-8.18897
-8.86201
-9.51777
-10.1449
-10.7323
-11.2698
-11.7487
-12.162
-12.5044
-12.7727
-12.9657
-13.0845
-13.1323
-13.1138
-13.0351
-12.9034
-6.7252
-7.35666
-7.98749
-8.60923
-9.21285
-9.78904
-10.3288
-10.8237
-11.2666
-11.6517
-11.9745
-12.2321
-12.4235
-12.5494
-12.6121
-12.6153
-12.5636
-12.4628
-6.61372
-7.2082
-7.79888
-8.37855
-8.93964
-9.47443
-9.97547
-10.4358
-10.8495
-11.2115
-11.5182
-11.7669
-11.9567
-12.088
-12.1625
-12.183
-12.1532
-12.0776
-6.50494
-7.06873
-7.62636
-8.17164
-8.69813
-9.19934
-9.66902
-10.1014
-10.4913
-10.8346
-11.128
-11.3693
-11.5576
-11.6931
-11.7769
-11.8112
-11.799
-11.7439
-6.403
-6.94154
-7.47218
-7.98952
-8.48802
-8.96214
-9.40654
-9.81628
-10.187
-10.5151
-10.7978
-11.0331
-11.22
-11.3585
-11.4496
-11.495
-11.497
-11.4585
-6.31104
-6.82911
-7.33798
-7.83287
-8.30896
-8.76143
-9.18567
-9.57739
-9.93281
-10.2488
-10.5228
-10.7531
-10.9387
-11.0797
-11.1765
-11.2305
-11.2438
-11.2185
-6.23137
-6.73317
-7.22482
-7.70202
-8.16049
-8.59598
-9.0044
-9.38198
-9.72539
-10.0318
-10.299
-10.5253
-10.7099
-10.8526
-10.9538
-11.0146
-11.0366
-11.0218
-6.16585
-6.65514
-7.13359
-7.59727
-8.04231
-8.46486
-8.86125
-9.22808
-9.56234
-9.86146
-10.1234
-10.3467
-10.5304
-10.6744
-10.7789
-10.8448
-10.8734
-10.8666
-6.11559
-6.5958
-7.06467
-7.51858
-7.95391
-8.36713
-8.75485
-9.11394
-9.4416
-9.73547
-9.99363
-10.2147
-10.3978
-10.5426
-10.6495
-10.719
-10.7525
-10.7515
-6.08175
-6.55604
-7.01869
-7.46624
-7.89529
-8.30247
-8.68457
-9.03865
-9.36204
-9.65251
-9.90821
-10.1278
-10.3105
-10.4559
-10.5643
-10.6362
-10.6728
-10.6756
-6.06445
-6.53585
-6.99544
-7.43988
-7.86585
-8.27008
-8.64945
-9.00109
-9.32242
-9.61124
-9.86577
-10.0847
-10.2672
-10.4129
-10.5221
-10.5953
-10.6335
-10.6381
-1.53938
-2.00918
-2.4842
-2.96397
-3.44787
-3.93496
-4.4239
-4.91285
-5.39955
-5.88139
-6.35563
-6.81927
-7.26913
-7.70188
-8.1142
-8.50288
-8.86489
-9.19753
-9.49843
-9.76567
-9.99782
-10.194
-10.3537
-10.4771
-1.54519
-2.01452
-2.48949
-2.96967
-3.4544
-3.94272
-4.43328
-4.92424
-5.41326
-5.89773
-6.37477
-6.84135
-7.29421
-7.72999
-8.14528
-8.53678
-8.9014
-9.2363
-9.53906
-9.8077
-10.0407
-10.2372
-10.3968
-10.5196
-1.55601
-2.0243
-2.4991
-2.97998
-3.46628
-3.95703
-4.45086
-4.94585
-5.43964
-5.92945
-6.41229
-6.88494
-7.34404
-7.78606
-8.20745
-8.60475
-8.97463
-9.31414
-9.62067
-9.89214
-10.127
-10.3243
-10.4837
-10.6053
-1.57138
-2.038
-2.51243
-2.99428
-3.48291
-3.97734
-4.47612
-4.97731
-5.47837
-5.97642
-6.4682
-6.95029
-7.41907
-7.87077
-8.30159
-8.70777
-9.08577
-9.4323
-9.74459
-10.0204
-10.2581
-10.4566
-10.6156
-10.7354
-1.58981
-2.054
-2.52781
-3.01088
-3.5026
-4.00195
-4.50747
-5.01705
-5.5281
-6.03743
-6.54157
-7.03673
-7.51893
-7.98407
-8.42795
-8.84646
-9.23561
-9.59185
-9.91207
-10.1938
-10.4353
-10.6355
-10.794
-10.9113
-1.60981
-2.07067
-2.54347
-3.02793
-3.52346
-4.02905
-4.54311
-5.0635
-5.58735
-6.11132
-6.6315
-7.14373
-7.64355
-8.12632
-8.58737
-9.022
-9.42581
-9.79472
-10.1253
-10.4148
-10.6612
-10.8635
-11.0213
-11.1352
-1.62905
-2.08545
-2.55673
-3.04267
-3.54272
-4.05582
-4.58039
-5.11407
-5.65391
-6.19613
-6.73652
-7.27031
-7.79246
-8.29768
-8.78055
-9.23576
-9.65818
-10.0432
-10.3869
-10.6862
-10.9389
-11.1437
-11.3005
-11.4099
-1.64479
-2.09539
-2.56444
-3.05181
-3.55699
-4.07895
-4.61599
-5.16576
-5.72493
-6.28953
-6.85475
-7.41525
-7.96518
-8.49839
-9.00859
-9.48949
-9.93522
-10.3404
-10.7004
-11.0119
-11.2722
-11.48
-11.6353
-11.7391
-1.65352
-2.09666
-2.56256
-3.05116
-3.562
-4.09406
-4.64571
-5.21439
-5.79672
-6.38821
-6.98361
-7.57675
-8.16082
-8.72858
-9.27254
-9.78531
-10.2599
-10.6899
-11.0702
-11.3966
-11.6662
-11.8776
-12.0308
-12.1272
-1.65098
-2.08473
-2.54631
-3.03572
-3.55256
-4.09595
-4.66422
-5.25495
-5.86443
-6.48801
-7.11966
-7.75236
-8.37812
-8.98824
-9.57375
-10.1257
-10.6358
-11.0965
-11.5016
-11.8462
-12.1271
-12.3426
-12.493
-12.58
-1.63208
-2.05417
-2.50997
-2.99948
-3.52243
-4.07807
-4.66502
-5.28082
-5.92195
-6.58327
-7.25823
-7.93867
-8.6151
-9.27705
-9.91352
-10.5137
-11.0673
-11.5656
-12.0011
-12.3681
-12.6626
-12.8829
-13.0294
-13.1044
-1.59079
-1.99868
-2.44689
-2.93544
-3.46418
-4.03271
-4.63996
-5.28398
-5.96128
-6.66676
-7.39312
-8.131
-8.86903
-9.59434
-10.2934
-10.9526
-11.5598
-12.1041
-12.5768
-12.9711
-13.2823
-13.5081
-13.6493
-13.709
-1.52018
-1.91104
-2.3495
-2.83549
-3.36911
-3.95041
-4.57913
-5.25393
-5.97213
-6.72863
-7.51575
-8.32266
-9.1356
-9.93858
-10.7145
-11.4465
-12.1193
-12.7201
-13.2384
-13.6662
-13.9977
-14.2301
-14.3642
-14.4044
-1.41243
-1.78333
-2.20954
-2.69079
-3.22747
-3.82047
-4.47062
-5.17814
-5.94144
-6.75638
-7.61496
-8.50484
-9.40922
-10.3078
-11.1785
-12.0001
-12.7536
-13.4236
-13.9979
-14.4671
-14.8237
-15.0639
-15.1886
-15.2037
-1.25879
-1.60675
-2.01772
-2.49106
-3.02759
-3.62937
-4.29921
-5.03954
-5.85133
-6.73207
-7.67432
-8.66408
-9.68065
-10.6977
-11.6861
-12.6183
-13.4709
-14.2258
-14.8691
-15.3897
-15.778
-16.0281
-16.1404
-16.1229
-1.05124
-1.37394
-1.76658
-2.22791
-2.75926
-3.36447
-4.04913
-4.81962
-5.68089
-6.63415
-7.67356
-8.78391
-9.93921
-11.1043
-12.2398
-13.309
-14.283
-15.1417
-15.8701
-16.4552
-16.8842
-17.1472
-17.2436
-17.1837
-0.778017
-1.07365
-1.44444
-1.88811
-2.40663
-3.00615
-3.69658
-4.48994
-5.39815
-6.42876
-7.5803
-8.83715
-10.1665
-11.5196
-12.8409
-14.0802
-15.2024
-16.1873
-17.021
-17.6879
-18.1701
-18.451
-18.5263
-18.4103
-0.439601
-0.708284
-1.05385
-1.47248
-1.96673
-2.54593
-3.22574
-4.02692
-4.97201
-6.0802
-7.35869
-8.794
-10.3441
-11.9394
-13.4975
-14.9475
-16.2483
-17.3848
-18.3488
-19.1217
-19.6755
-19.9821
-20.031
-19.8409
-0.0141659
-0.25893
-0.577252
-0.962812
-1.41842
-1.95687
-2.60144
-3.38476
-4.34627
-5.5241
-6.942
-8.59444
-10.4297
-12.3449
-14.211
-15.9231
-17.4358
-18.7515
-19.8769
-20.7896
-21.4416
-21.7835
-21.7942
-21.502
-20.9748
0.460097
0.234346
-0.0538406
-0.394641
-0.790136
-1.25637
-1.8251
-2.54425
-3.47644
-4.69221
-6.251
-8.17075
-10.3898
-12.7447
-15.0194
-17.0526
-18.8066
-20.3286
-21.6571
-22.7625
-23.5589
-23.9537
-23.908
-23.4691
-22.747
1.03164
0.80951
0.546982
0.258768
-0.0547337
-0.410993
-0.849577
-1.4373
-2.27101
-3.47272
-5.16643
-7.42567
-10.1918
-13.1908
-16.0233
-18.4258
-20.4056
-22.1241
-23.6885
-25.0489
-26.0499
-26.5253
-26.4013
-25.7611
-24.7848
1.56055
1.33158
1.09525
0.874455
0.675137
0.481521
0.249806
-0.106828
-0.729752
-1.81682
-3.60093
-6.28058
-9.82724
-13.8053
-17.4668
-20.3289
-22.4903
-24.3585
-26.1854
-27.8795
-29.1557
-29.7322
-29.4519
-28.5058
-27.1844
2.04729
1.76789
1.52937
1.36176
1.28014
1.2791
1.31954
1.30557
1.05445
0.267881
-1.4735
-4.64198
-9.27185
-14.5001
-19.2001
-22.5606
-24.7931
-26.7413
-28.8926
-31.0446
-32.7151
-33.638
-33.1669
-31.7526
-29.9352
2.03072
1.68667
1.43865
1.32618
1.37668
1.59966
1.97496
2.43063
2.78324
2.64744
1.34546
-2.00557
-7.11345
-13.9604
-19.9614
-24.1859
-26.4035
-28.0851
-30.2242
-32.6072
-34.7475
-37.549
-37.359
-35.4612
-33.1507
-30.8002
0.88302
0.679386
0.676054
0.913846
1.4264
2.23036
3.29908
4.51796
5.52308
5.56102
2.34653
-2.92484
-13.852
-24.1893
-31.4913
-30.4188
-30.801
-33.7022
-36.3691
-38.5025
-39.9893
-40.543
-37.9705
-35.0983
-31.9911
-0.614354
-0.492256
-0.0647231
0.733643
1.96559
3.67257
5.8497
8.30832
9.08721
10.1835
4.58439
-8.27387
-23.4356
-57.1734
-42.2285
-26.7149
-34.7862
-37.4177
-39.28
-41.1833
-41.146
-39.1476
-37.1516
-33.9177
-1.27636
-1.12668
-0.656155
0.232866
1.64524
3.70402
6.55559
10.2692
12.9073
17.1847
14.7514
2.59651
-38.6432
-40.4931
-40.7852
-39.3008
-36.6011
-34.1029
-1.56057
-1.15995
-0.360126
0.927353
2.77541
5.24409
8.33635
11.4653
15.677
16.3176
20.2261
-39.405
-41.702
-42.8086
-40.4619
-37.2165
-33.9999
-39.1591
-41.4082
-43.7765
-45.0728
-43.0969
-38.8135
-34.5138
-40.7259
-43.9849
-45.2318
-41.6551
-37.5518
-40.4654
-40.9633
-38.7472
-35.8927
-2.47011
-4.33977
-7.12302
-10.8026
-14.9363
-18.7327
-21.6607
-23.7817
-25.4952
-27.0678
-28.4455
-29.3746
-29.6119
-29.0225
-27.8342
-26.37
-24.8258
-4.07624
-5.83845
-8.17689
-11.0339
-14.1281
-17.0385
-19.4726
-21.4153
-23.0209
-24.4054
-25.5403
-26.2913
-26.5105
-26.1495
-25.3174
-24.2051
-22.9685
-21.691
-5.24529
-6.85683
-8.8341
-11.1135
-13.526
-15.8434
-17.8878
-19.6072
-21.0432
-22.2395
-23.1787
-23.7885
-23.9927
-23.7681
-23.1762
-22.3366
-21.3627
-20.328
-6.02972
-7.48681
-9.17955
-11.0538
-13.0022
-14.8883
-16.5977
-18.0768
-19.3246
-20.3502
-21.1387
-21.6517
-21.8499
-21.7227
-21.3088
-20.6829
-19.9233
-19.0891
-6.54022
-7.84772
-9.31092
-10.8855
-12.4985
-14.0629
-15.5023
-16.771
-17.8521
-18.7386
-19.417
-19.865
-20.0608
-20.002
-19.7148
-19.2478
-18.6553
-17.9834
-6.84736
-8.01984
-9.29549
-10.6395
-12.0007
-13.3204
-14.5451
-15.6374
-16.5759
-17.3477
-17.9406
-18.3398
-18.5337
-18.5241
-18.3301
-17.9843
-17.5246
-16.9856
-7.01537
-8.06961
-9.19218
-10.3555
-11.5226
-12.6521
-13.7052
-14.6517
-15.4709
-16.1488
-16.6743
-17.037
-17.2309
-17.2593
-17.1359
-16.8833
-16.5283
-16.0972
-7.0804
-8.03285
-9.03012
-10.0502
-11.0654
-12.0454
-12.9611
-13.7885
-14.5094
-15.1106
-15.5823
-15.9169
-16.111
-16.1679
-16.098
-15.9172
-15.645
-15.3008
-7.07579
-7.94116
-8.83516
-9.74001
-10.6344
-11.4954
-12.3008
-13.0314
-13.6718
-14.2105
-14.6389
-14.9511
-15.1453
-15.2241
-15.1953
-15.0704
-14.8637
-14.5903
-7.02292
-7.81426
-8.6229
-9.4343
-10.2317
-10.9973
-11.7138
-12.3658
-12.9406
-13.4282
-13.8216
-14.1158
-14.3095
-14.405
-14.408
-14.3269
-14.1726
-13.9563
-6.93926
-7.66796
-8.40589
-9.14103
-9.85995
-10.5486
-11.1932
-11.7813
-12.3026
-12.7486
-13.1132
-13.3926
-13.5856
-13.6939
-13.7216
-13.6751
-13.5627
-13.3931
-6.83702
-7.51292
-8.19224
-8.86492
-9.52005
-10.1463
-10.7326
-11.2688
-11.7464
-12.1584
-12.4995
-12.7666
-12.9585
-13.0765
-13.1236
-13.1047
-13.0259
-12.8942
-6.72568
-7.35727
-7.98802
-8.60948
-9.2126
-9.78813
-10.3271
-10.8211
-11.2631
-11.6472
-11.9691
-12.2258
-12.4165
-12.5419
-12.6042
-12.6071
-12.5555
-12.4549
-6.61222
-7.20679
-7.7974
-8.37685
-8.93757
-9.47188
-9.97233
-10.432
-10.845
-11.2064
-11.5124
-11.7605
-11.9499
-12.0809
-12.1552
-12.1756
-12.1459
-12.0705
-6.50197
-7.06582
-7.62341
-8.16852
-8.69474
-9.19561
-9.66486
-10.0967
-10.4862
-10.829
-11.122
-11.3629
-11.5509
-11.6862
-11.7699
-11.8043
-11.7923
-11.7375
-6.39892
-6.93753
-7.46815
-7.98537
-8.48368
-8.95755
-9.40166
-9.81108
-10.1815
-10.5093
-10.7917
-11.0267
-11.2134
-11.3519
-11.443
-11.4885
-11.4907
-11.4525
-6.30615
-6.82428
-7.33314
-7.82797
-8.30393
-8.75624
-9.18027
-9.57177
-9.92697
-10.2427
-10.5166
-10.7467
-10.9323
-11.0732
-11.1701
-11.2243
-11.2378
-11.2129
-6.22589
-6.72775
-7.21941
-7.69658
-8.15497
-8.59035
-8.99864
-9.37608
-9.71934
-10.0256
-10.2927
-10.519
-10.7035
-10.8463
-10.9476
-11.0086
-11.0308
-11.0163
-6.15994
-6.64931
-7.12777
-7.59145
-8.03645
-8.45893
-8.85524
-9.22198
-9.55615
-9.8552
-10.1171
-10.3404
-10.5241
-10.6681
-10.7728
-10.8389
-10.8678
-10.8613
-6.10939
-6.58967
-7.05858
-7.51249
-7.94782
-8.361
-8.74867
-9.10771
-9.43532
-9.72915
-9.9873
-10.2084
-10.3915
-10.5365
-10.6435
-10.7133
-10.747
-10.7463
-6.07536
-6.54974
-7.01243
-7.46001
-7.88905
-8.29621
-8.67829
-9.03234
-9.35571
-9.64616
-9.90187
-10.1215
-10.3043
-10.4498
-10.5583
-10.6305
-10.6674
-10.6704
-6.05797
-6.52945
-6.9891
-7.43357
-7.85954
-8.26376
-8.64311
-8.99473
-9.31604
-9.60486
-9.85941
-10.0784
-10.261
-10.4068
-10.5162
-10.5896
-10.628
-10.633
-1.52144
-1.9921
-2.46793
-2.94846
-3.43301
-3.92068
-4.4101
-4.89945
-5.38643
-5.86849
-6.34286
-6.80656
-7.25642
-7.68911
-8.10135
-8.48993
-8.85186
-9.18443
-9.48528
-9.75251
-9.9847
-10.181
-10.3409
-10.4645
-1.52723
-1.99746
-2.47329
-2.95425
-3.43967
-3.92861
-4.41968
-4.91104
-5.40037
-5.88504
-6.36221
-6.82883
-7.28167
-7.71735
-8.13253
-8.52392
-8.88842
-9.22323
-9.52592
-9.79453
-10.0276
-10.2242
-10.384
-10.507
-1.53799
-2.00726
-2.48299
-2.96472
-3.45178
-3.94321
-4.43759
-4.93303
-5.42713
-5.91715
-6.4001
-6.87278
-7.33181
-7.7737
-8.19493
-8.59205
-8.96178
-9.30114
-9.60756
-9.87897
-10.1139
-10.3112
-10.4708
-10.5926
-1.55328
-2.02101
-2.49648
-2.97928
-3.46878
-3.96395
-4.46337
-4.96503
-5.46646
-5.96472
-6.45661
-6.93869
-7.40736
-7.85887
-8.28946
-8.6954
-9.07315
-9.41946
-9.73157
-10.0072
-10.2448
-10.4434
-10.6026
-10.7226
-1.57162
-2.03709
-2.5121
-2.99627
-3.48898
-3.98921
-4.49544
-5.00559
-5.51702
-6.0266
-6.53083
-7.02594
-7.50799
-7.97287
-8.41643
-8.83458
-9.22338
-9.57927
-9.89918
-10.1807
-10.422
-10.6221
-10.7807
-10.8982
-1.59155
-2.05391
-2.52812
-3.01388
-3.51058
-4.01717
-4.53208
-5.05312
-5.57744
-6.10167
-6.62195
-7.1341
-7.63369
-8.11612
-8.57672
-9.01086
-9.41415
-9.78254
-10.1126
-10.4017
-10.6478
-10.8499
-11.0077
-11.1216
-1.61076
-2.06895
-2.5419
-3.02939
-3.53082
-4.04514
-4.57071
-5.10519
-5.64556
-6.18812
-6.72859
-7.26228
-7.78412
-8.28886
-8.77114
-9.22565
-9.64734
-10.0316
-10.3746
-10.6732
-10.9253
-11.1298
-11.2863
-11.3957
-1.62653
-2.07928
-2.55034
-3.03958
-3.54643
-4.06985
-4.60812
-5.15883
-5.7187
-6.28369
-6.84904
-7.40938
-7.95891
-8.4915
-9.00088
-9.48085
-9.92554
-10.3296
-10.6887
-10.9991
-11.2586
-11.4658
-11.6206
-11.724
-1.63539
-2.08112
-2.54946
-3.04032
-3.55319
-4.08706
-4.64021
-5.2101
-5.79328
-6.38531
-6.98086
-7.57382
-8.15738
-8.72432
-9.26721
-9.77869
-10.2518
-10.6804
-11.0592
-11.3842
-11.6525
-11.8628
-12.0152
-12.1111
-1.63312
-2.06999
-2.53453
-3.02668
-3.54604
-4.09164
-4.66183
-5.25407
-5.86471
-6.48898
-7.1209
-7.75342
-8.37854
-8.98761
-9.5717
-10.122
-10.6301
-11.0887
-11.4918
-11.8344
-12.1135
-12.3274
-12.4764
-12.5624
-1.61463
-2.04051
-2.49989
-2.99276
-3.51881
-4.07725
-4.66661
-5.28443
-5.92706
-6.5894
-7.26481
-7.94512
-8.62081
-9.28143
-9.91604
-10.5139
-11.0649
-11.5604
-11.993
-12.3572
-12.6491
-12.867
-13.0114
-13.0849
-1.57394
-1.98639
-2.43897
-2.93164
-3.46425
-4.03629
-4.64668
-5.29334
-5.97277
-6.67972
-7.40687
-8.14476
-8.88198
-9.60566
-10.3022
-10.9584
-11.5621
-12.1025
-12.5713
-12.9617
-13.269
-13.4914
-13.6295
-13.6868
-1.50407
-1.90042
-2.34419
-2.83527
-3.37371
-3.95951
-4.5923
-5.2707
-5.99185
-6.75062
-7.53911
-8.34638
-9.15856
-9.95955
-10.7323
-11.4601
-12.1281
-12.7236
-13.2365
-13.6589
-13.9851
-14.2125
-14.3421
-14.3785
-1.39719
-1.7747
-2.20736
-2.69488
-3.23761
-3.83636
-4.49191
-5.2043
-5.97188
-6.79026
-7.65125
-8.54221
-9.44608
-10.3423
-11.209
-12.0248
-12.7716
-13.4343
-14.0013
-14.4631
-14.8124
-15.0455
-15.1636
-15.1728
-1.24435
-1.60019
-2.01898
-2.50005
-3.04419
-3.65339
-4.33036
-5.07746
-5.89541
-6.78152
-7.72794
-8.72022
-9.73703
-10.7515
-11.7346
-12.6588
-13.5018
-14.2467
-14.88
-15.3908
-15.7689
-16.0089
-16.1114
-16.085
-1.03776
-1.36982
-1.77187
-2.24265
-2.7835
-3.3982
-4.09234
-4.87214
-5.74242
-6.70403
-7.75065
-8.86614
-10.0234
-11.186
-12.3142
-13.3718
-14.332
-15.1765
-15.8916
-16.4639
-16.8793
-17.1279
-17.2096
-17.1358
-0.764474
-1.07124
-1.45342
-1.9087
-2.43908
-3.05077
-3.75365
-4.55984
-5.48109
-6.52479
-7.68868
-8.95561
-10.2903
-11.6416
-12.9525
-14.1742
-15.2756
-16.2405
-17.057
-17.7084
-18.1731
-18.4333
-18.4861
-18.3479
-0.427341
-0.708633
-1.06744
-1.49989
-2.00863
-2.60303
-3.29893
-4.11731
-5.08103
-6.20929
-7.50885
-8.96381
-10.5275
-12.1239
-13.6668
-15.0882
-16.3559
-17.4637
-18.4062
-19.1622
-19.6962
-19.9746
-19.9878
-19.7609
-0.00192847
-0.261073
-0.594486
-0.995933
-1.46844
-2.02509
-2.68966
-3.49572
-4.48361
-5.69321
-7.14948
-8.84291
-10.7103
-12.6335
-14.4739
-16.1339
-17.5896
-18.8627
-19.9642
-20.8633
-21.4968
-21.8008
-21.7544
-21.4005
-20.824
0.470035
0.227493
-0.0778985
-0.43661
-0.851208
-1.33831
-1.93108
-2.67992
-3.65069
-4.91759
-6.54305
-8.54121
-10.8273
-13.2023
-15.429
-17.3636
-19.0183
-20.4803
-21.7924
-22.901
-23.6862
-24.028
-23.8868
-23.3447
-22.5462
1.02312
0.783504
0.502387
0.194883
-0.138815
-0.517108
-0.981389
-1.60171
-2.48187
-3.75431
-5.55623
-7.96658
-10.8757
-13.92
-16.6486
-18.8481
-20.6482
-22.2909
-23.8767
-25.2992
-26.3206
-26.7073
-26.407
-25.5928
-24.5055
1.49972
1.25197
0.994893
0.751557
0.530185
0.317099
0.0684704
-0.306199
-0.960573
-2.1208
-4.06973
-7.04373
-10.9079
-15.0336
-18.4777
-20.8796
-22.6743
-24.4399
-26.3918
-28.3149
-29.7104
-30.1096
-29.4974
-28.2463
-26.7644
1.93519
1.64555
1.39462
1.21353
1.11835
1.10814
1.15677
1.17477
0.9604
0.157087
-1.80224
-5.59102
-10.8102
-16.5643
-20.9084
-23.2685
-24.7867
-26.6049
-29.1173
-31.899
-33.8774
-34.1898
-33.1773
-31.3564
-29.3619
1.81391
1.49057
1.2623
1.17172
1.25064
1.51487
1.95199
2.52558
3.07383
3.13468
1.81582
-2.61453
-9.11152
-16.8373
-22.8237
-25.3483
-26.2403
-27.6479
-30.4274
-33.9285
-36.4219
-36.9517
-36.6411
-34.5672
-32.2429
-29.9612
0.670323
0.46494
0.478473
0.76083
1.36059
2.31754
3.63436
5.27503
6.98583
5.27212
3.2031
-6.2912
-21.568
-29.0993
-30.6339
-28.8621
-28.8459
-32.2806
-37.1156
-42.6853
-41.3154
-39.1051
-36.9068
-34.5546
-31.9369
-0.619391
-0.482808
-0.02238
0.852204
2.24707
4.26719
6.96747
8.31521
12.2474
12.9254
3.04381
-29.5825
-51.9177
-51.0059
-41.0651
-40.1553
-39.0495
-37.6446
-34.4888
-1.86342
-1.61001
-1.01621
0.0368662
1.67597
4.05224
7.29628
10.5989
16.9565
20.4587
8.53323
-40.8114
-40.9264
-38.8585
-37.5977
-35.2977
-2.28645
-1.82825
-0.9102
0.57766
2.73213
5.61037
9.8679
15.8218
20.3056
19.4941
-44.2788
-40.6551
-37.6591
-34.5264
-44.294
-47.09
-44.0781
-37.6401
-33.6396
-43.5023
-45.7065
-40.3703
-35.8459
-41.0792
-39.0689
-37.2318
-34.0242
-37.1977
-36.124
-34.1084
-31.4957
-2.76054
-4.79312
-7.8636
-11.847
-16.1102
-19.6737
-22.1265
-23.8826
-25.5254
-27.2822
-28.9641
-30.0864
-30.1773
-29.241
-27.7023
-26.0261
-24.4026
-4.34729
-6.214
-8.69694
-11.6862
-14.8135
-17.6092
-19.8332
-21.5987
-23.1454
-24.58
-25.814
-26.6236
-26.7815
-26.248
-25.2257
-23.9816
-22.6846
-21.3959
-5.46246
-7.13717
-9.18765
-11.5272
-13.9522
-16.2146
-18.1564
-19.7784
-21.1644
-22.3601
-23.3228
-23.9434
-24.1098
-23.795
-23.0967
-22.1729
-21.152
-20.1019
-6.19102
-7.68419
-9.4146
-11.3168
-13.2685
-15.1248
-16.7798
-18.2029
-19.4136
-20.4247
-21.2112
-21.7171
-21.8865
-21.7079
-21.2337
-20.5568
-19.766
-18.9201
-6.66258
-7.98942
-9.47017
-11.0558
-12.6674
-14.2144
-15.6241
-16.8604
-17.9159
-18.7865
-19.4545
-19.8887
-20.0622
-19.9724
-19.6507
-19.1535
-18.5413
-17.8608
-6.93779
-8.12136
-9.40565
-10.7535
-12.1114
-13.4196
-14.6263
-15.6984
-16.6189
-17.3768
-17.9577
-18.3433
-18.5207
-18.4919
-18.2777
-17.9143
-17.4424
-16.8981
-7.0807
-8.14127
-9.26805
-10.4324
-11.5962
-12.7177
-13.7592
-14.6923
-15.4987
-16.1653
-16.6803
-17.032
-17.2142
-17.23
-17.0943
-16.831
-16.4687
-16.0339
-7.12614
-8.08218
-9.08136
-10.1011
-11.1133
-12.0876
-12.9954
-13.8137
-14.5254
-15.1179
-15.5813
-15.9074
-16.0932
-16.1418
-16.0641
-15.8767
-15.6
-15.2539
-7.10669
-7.97406
-8.86878
-9.77279
-10.6646
-11.5214
-12.3212
-13.0454
-13.6791
-14.2113
-14.6334
-14.9394
-15.1276
-15.2009
-15.167
-15.0381
-14.8289
-14.5543
-7.0425
-7.83496
-8.64375
-9.45419
-10.2495
-11.0119
-11.7244
-12.3717
-12.9417
-13.4245
-13.8131
-14.1028
-14.2924
-14.3842
-14.3839
-14.3005
-14.1446
-13.9281
-6.95031
-7.67963
-8.41746
-9.1517
-9.86894
-10.5552
-11.1968
-11.7816
-12.2993
-12.7417
-13.103
-13.3791
-13.5692
-13.6749
-13.7006
-13.6528
-13.5396
-13.3699
-6.84163
-7.51789
-8.197
-8.86892
-9.52273
-10.1471
-10.7312
-11.265
-11.74
-12.1494
-12.4881
-12.7529
-12.9428
-13.0591
-13.105
-13.0853
-13.0062
-12.8748
-6.72544
-7.35724
-7.98779
-8.60862
-9.21073
-9.7849
-10.3222
-10.8144
-11.2545
-11.6368
-11.9569
-12.2121
-12.4014
-12.5257
-12.5873
-12.5899
-12.5383
-12.438
-6.60833
-7.20305
-7.79349
-8.37246
-8.93241
-9.46571
-9.96495
-10.4233
-10.835
-11.195
-11.4998
-11.7468
-11.9353
-12.0656
-12.1395
-12.1599
-12.1304
-12.0556
-6.49535
-7.05933
-7.61679
-8.16154
-8.68719
-9.18731
-9.65569
-10.0866
-10.4751
-10.817
-11.1091
-11.3493
-11.5368
-11.6717
-11.7553
-11.7898
-11.7781
-11.7238
-6.39026
-6.92898
-7.45952
-7.97649
-8.47439
-8.94773
-9.39121
-9.79995
-10.1697
-10.4968
-10.7786
-11.0132
-11.1996
-11.3379
-11.4291
-11.4748
-11.4774
-11.4398
-6.29598
-6.81423
-7.32306
-7.81771
-8.29339
-8.74532
-9.16891
-9.55994
-9.91467
-10.23
-10.5035
-10.7334
-10.9188
-11.0597
-11.1567
-11.2112
-11.2252
-11.2008
-6.21461
-6.7166
-7.20826
-7.68533
-8.14353
-8.57865
-8.98664
-9.36376
-9.70672
-10.0127
-10.2796
-10.5057
-10.6903
-10.8331
-10.9346
-10.996
-11.0187
-11.0048
-6.14787
-6.63737
-7.11587
-7.5795
-8.02438
-8.44669
-8.8428
-9.20934
-9.54331
-9.84219
-10.104
-10.3272
-10.511
-10.6552
-10.7601
-10.8266
-10.856
-10.8501
-6.09678
-6.5772
-7.04616
-7.50006
-7.93532
-8.3484
-8.73594
-9.09484
-9.42233
-9.71608
-9.9742
-10.1953
-10.3786
-10.5237
-10.631
-10.7012
-10.7355
-10.7353
-6.06242
-6.53693
-6.9997
-7.44729
-7.87629
-8.28338
-8.66538
-9.01933
-9.34263
-9.63304
-9.88877
-10.1085
-10.2914
-10.4372
-10.546
-10.6186
-10.656
-10.6596
-6.04485
-6.51647
-6.9762
-7.42069
-7.84665
-8.25081
-8.6301
-8.98165
-9.30291
-9.59171
-9.8463
-10.0654
-10.2481
-10.3943
-10.5039
-10.5777
-10.6167
-10.6222
-1.49453
-1.96644
-2.44344
-2.92503
-3.41055
-3.89906
-4.38921
-4.87914
-5.36658
-5.84898
-6.32357
-6.78737
-7.2372
-7.66979
-8.08187
-8.47029
-8.83208
-9.16453
-9.46531
-9.73253
-9.96482
-10.1613
-10.3215
-10.4457
-1.50032
-1.97185
-2.44889
-2.93097
-3.41739
-3.90721
-4.39904
-4.891
-5.38079
-5.8658
-6.34318
-6.80989
-7.26268
-7.69823
-8.11322
-8.50442
-8.86874
-9.2034
-9.50598
-9.77455
-10.0077
-10.2045
-10.3646
-10.488
-1.51098
-1.98168
-2.45873
-2.94167
-3.42982
-3.92221
-4.4174
-4.91349
-5.40808
-5.89844
-6.38158
-6.85431
-7.31327
-7.75498
-8.17597
-8.57283
-8.94231
-9.28144
-9.58767
-9.85898
-10.0939
-10.2914
-10.4512
-10.5735
-1.52616