/*--------------------------------*- C++ -*----------------------------------*\
  =========                 |
  \\      /  F ield         | OpenFOAM: The Open Source CFD Toolbox
   \\    /   O peration     | Website:  https://openfoam.org
    \\  /    A nd           | Version:  13
     \\/     M anipulation  |
\*---------------------------------------------------------------------------*/
FoamFile
{
    format      ascii;
    class       volScalarField;
    location    "500";
    object      k;
}
// * * * * * * * * * * * * * * * * * * * * * * * * * * * * * * * * * * * * * //

dimensions      [0 2 -2 0 0 0 0];

internalField   nonuniform List<scalar> 
171634
(
0.34372
0.341883
0.340071
0.33828
0.336509
0.334754
0.333015
0.331289
0.329576
0.327876
0.326188
0.324513
0.322851
0.321203
0.319569
0.317951
0.316349
0.314763
0.313195
0.311644
0.310111
0.308597
0.343739
0.341905
0.340096
0.338308
0.336539
0.334787
0.333049
0.331325
0.329614
0.327914
0.326227
0.324552
0.32289
0.321241
0.319607
0.317987
0.316384
0.314797
0.313228
0.311676
0.310143
0.308628
0.343788
0.34196
0.340157
0.338375
0.336611
0.334863
0.333129
0.331408
0.329699
0.328001
0.326314
0.324638
0.322975
0.321325
0.319689
0.318067
0.316462
0.314873
0.313301
0.311747
0.310212
0.308695
0.343861
0.342043
0.340248
0.338475
0.336719
0.334979
0.333251
0.331535
0.329829
0.328133
0.326447
0.324771
0.323107
0.321454
0.319816
0.318191
0.316582
0.31499
0.313415
0.311859
0.310321
0.308802
0.343966
0.342161
0.340381
0.33862
0.336876
0.335146
0.333428
0.331719
0.330018
0.328325
0.326641
0.324965
0.323299
0.321644
0.320002
0.318373
0.31676
0.315163
0.313584
0.312024
0.310483
0.308961
0.344107
0.342321
0.340559
0.338816
0.337089
0.335374
0.333668
0.331969
0.330276
0.328589
0.326907
0.325232
0.323564
0.321906
0.32026
0.318627
0.317008
0.315406
0.313822
0.312257
0.310712
0.309187
0.344292
0.342532
0.340795
0.339077
0.337373
0.335679
0.33399
0.332306
0.330624
0.328945
0.327267
0.325594
0.323926
0.322265
0.320614
0.318976
0.317351
0.315743
0.314154
0.312583
0.311033
0.309505
0.344532
0.342807
0.341105
0.33942
0.337747
0.336082
0.334419
0.332755
0.33109
0.329422
0.327752
0.326083
0.324415
0.322753
0.321098
0.319454
0.317824
0.316209
0.314614
0.313038
0.311483
0.309952
0.344843
0.343164
0.341509
0.33987
0.338242
0.336616
0.334989
0.333356
0.331715
0.330065
0.328409
0.326747
0.325082
0.32342
0.321762
0.320114
0.318478
0.316858
0.315257
0.313676
0.312118
0.310583
0.345245
0.343629
0.342038
0.340465
0.338898
0.33733
0.335754
0.334165
0.33256
0.33094
0.329304
0.327656
0.326
0.324341
0.322684
0.321033
0.319393
0.317769
0.316163
0.314579
0.313018
0.311482
0.345765
0.344237
0.342737
0.341255
0.339777
0.338292
0.336792
0.335269
0.333719
0.332143
0.330542
0.328919
0.327279
0.32563
0.323978
0.322328
0.320688
0.319061
0.317454
0.315868
0.314307
0.312772
0.346444
0.345038
0.343668
0.342317
0.340969
0.339608
0.33822
0.336797
0.335333
0.333826
0.332279
0.330697
0.329087
0.327458
0.325817
0.324174
0.322537
0.320912
0.319306
0.317721
0.316162
0.314631
0.347335
0.346103
0.344921
0.343765
0.342611
0.341436
0.34022
0.338949
0.337616
0.336217
0.334756
0.33324
0.331677
0.330079
0.328459
0.326829
0.325198
0.323577
0.321973
0.320392
0.318836
0.31731
0.348513
0.347536
0.346631
0.345767
0.344908
0.344017
0.343064
0.342025
0.34089
0.339654
0.33832
0.336899
0.335404
0.333851
0.332258
0.330641
0.329015
0.327395
0.325789
0.324205
0.322649
0.321125
0.350085
0.349481
0.348989
0.348563
0.348145
0.347678
0.347114
0.346417
0.345567
0.344561
0.343403
0.342108
0.340696
0.339191
0.337618
0.336003
0.334368
0.332731
0.331107
0.329505
0.327932
0.326394
0.352183
0.35211
0.3522
0.352382
0.352572
0.352688
0.352659
0.352431
0.351971
0.35127
0.350339
0.349196
0.347873
0.346406
0.344832
0.34319
0.341512
0.339826
0.33815
0.336499
0.33488
0.333301
0.354906
0.355466
0.356181
0.357004
0.357867
0.358688
0.359388
0.359835
0.35993
0.35967
0.359059
0.358125
0.356914
0.35548
0.353885
0.352183
0.350425
0.34865
0.346885
0.34515
0.343456
0.341811
0.357949
0.359062
0.360437
0.36201
0.363682
0.365327
0.366815
0.368043
0.368948
0.369422
0.36934
0.368738
0.367692
0.366301
0.364667
0.362885
0.361028
0.359153
0.357295
0.35548
0.353721
0.35203
0.361182
0.363044
0.365335
0.367986
0.370856
0.373732
0.376378
0.378608
0.380322
0.381484
0.382098
0.381898
0.38102
0.379639
0.377931
0.376042
0.374079
0.372117
0.370204
0.36837
0.366631
0.365
0.394658
0.392856
0.391026
0.389269
0.387632
0.386142
0.384814
0.383659
0.417215
0.416176
0.415328
0.414703
0.41432
0.414169
0.414229
0.414467
0.352573
0.351109
0.350427
0.350842
0.356511
0.354585
0.352901
0.351752
0.351571
0.352334
0.353902
0.356566
0.354721
0.353188
0.352305
0.352538
0.353568
0.355448
0.356611
0.354814
0.353371
0.352641
0.353013
0.354202
0.356268
0.359124
0.356611
0.354813
0.35337
0.35264
0.353011
0.3542
0.356265
0.359119
0.362578
0.36055
0.358537
0.356565
0.354719
0.353186
0.352303
0.352535
0.353564
0.355443
0.358092
0.364632
0.362587
0.360552
0.358521
0.35651
0.354583
0.352898
0.351748
0.351567
0.35233
0.353898
0.356206
0.364647
0.362602
0.360561
0.358511
0.356453
0.354433
0.352569
0.351103
0.350421
0.350837
0.352011
0.353915
0.364676
0.362635
0.360595
0.358534
0.356441
0.354338
0.352311
0.350554
0.3494
0.349288
0.350098
0.351645
0.36472
0.362692
0.360664
0.358609
0.356504
0.354354
0.352214
0.350241
0.348731
0.34812
0.348645
0.349941
0.351952
0.366816
0.364782
0.362779
0.360779
0.358755
0.356675
0.354529
0.352354
0.350278
0.348575
0.34769
0.348061
0.349263
0.35128
0.368935
0.366872
0.364865
0.362898
0.360948
0.358984
0.356975
0.354903
0.35279
0.350751
0.349054
0.348171
0.34857
0.349883
0.352139
0.36898
0.36694
0.364967
0.36305
0.361171
0.359304
0.35742
0.355504
0.353574
0.351746
0.3503
0.349759
0.350412
0.352111
0.354957
0.369029
0.367015
0.365084
0.36323
0.361445
0.359711
0.358014
0.356351
0.354754
0.353359
0.352493
0.352698
0.353898
0.356407
0.360407
0.36604
0.373047
0.381163
0.390079
0.369079
0.367094
0.365209
0.363429
0.361756
0.360192
0.358744
0.35744
0.356352
0.355667
0.355759
0.356674
0.358934
0.363147
0.369691
0.378992
0.388828
0.391501
0.401505
0.369126
0.36717
0.365334
0.363632
0.362084
0.360715
0.359568
0.35872
0.358309
0.35848
0.359309
0.361299
0.365317
0.372928
0.384657
0.388724
0.402447
0.420503
0.441107
0.461926
0.369165
0.367236
0.365445
0.363819
0.362396
0.361231
0.360409
0.360069
0.360286
0.361063
0.362759
0.366035
0.372283
0.384159
0.389572
0.412093
0.449759
0.50042
0.527066
0.552125
0.57025
0.369193
0.367284
0.36553
0.363969
0.362657
0.361676
0.361156
0.36127
0.361877
0.363211
0.365689
0.370103
0.378097
0.392511
0.400725
0.438491
0.518448
0.598085
0.742105
0.803644
0.814644
0.841739
0.369206
0.367309
0.365579
0.364063
0.36283
0.361986
0.361692
0.362017
0.362917
0.364646
0.367641
0.372689
0.381303
0.395676
0.40546
0.443789
0.518416
0.607026
0.828239
1.15385
1.09501
1.42362
0.369202
0.367306
0.365585
0.364088
0.362894
0.362118
0.361937
0.362365
0.3634
0.365288
0.368427
0.373479
0.381617
0.394719
0.414117
0.428597
0.478189
0.538952
0.615446
0.72651
0.85365
0.967399
1.09957
1.08647
1.10557
0.36918
0.367276
0.365546
0.364042
0.362841
0.36206
0.361873
0.362305
0.363324
0.365147
0.368093
0.372655
0.37959
0.390077
0.404915
0.423622
0.439583
0.481697
0.526377
0.572342
0.610916
0.623685
0.616797
0.610324
0.556801
0.555115
0.554938
0.553723
0.545923
0.533005
0.516539
0.498075
0.478944
0.460153
0.442381
0.425314
0.409652
0.395795
0.383794
0.373726
0.365672
0.359065
0.369143
0.367221
0.365468
0.363931
0.362685
0.361835
0.361539
0.36189
0.362776
0.364368
0.366901
0.37071
0.376262
0.384212
0.395222
0.409051
0.42462
0.435489
0.464319
0.490994
0.510748
0.521584
0.525485
0.504373
0.503681
0.504994
0.507065
0.508701
0.509768
0.509839
0.508716
0.505879
0.500894
0.493947
0.485332
0.475346
0.464338
0.452669
0.440669
0.428632
0.416824
0.405443
0.39473
0.369094
0.367146
0.365357
0.363771
0.36245
0.361486
0.361012
0.3612
0.361878
0.363148
0.365173
0.368169
0.37241
0.378244
0.386039
0.395803
0.406668
0.4175
0.427772
0.436688
0.44336
0.447582
0.449739
0.450382
0.450526
0.451094
0.452072
0.453405
0.455003
0.456773
0.458594
0.460307
0.46167
0.462514
0.462752
0.46234
0.461277
0.459592
0.457335
0.454554
0.45127
0.447458
0.443006
0.371133
0.369036
0.367058
0.365226
0.363578
0.362165
0.361063
0.360377
0.360247
0.360692
0.361616
0.363132
0.365369
0.36848
0.372633
0.377975
0.384499
0.391769
0.398977
0.405612
0.411221
0.415476
0.418292
0.419806
0.420168
0.419535
0.418543
0.417507
0.416573
0.41582
0.415291
0.415001
0.414935
0.415054
0.415321
0.415708
0.416203
0.416817
0.417586
0.41857
0.419844
0.42147
0.423226
0.425023
0.371094
0.368973
0.366962
0.365083
0.363368
0.361858
0.360612
0.359707
0.35925
0.359358
0.35994
0.360977
0.362545
0.364722
0.367577
0.371146
0.375376
0.380052
0.38479
0.389174
0.392869
0.395687
0.397583
0.398609
0.398678
0.397852
0.396478
0.394815
0.393038
0.391266
0.389577
0.388018
0.386612
0.385372
0.384304
0.383417
0.382725
0.382255
0.382052
0.382181
0.38273
0.383803
0.385473
0.387786
0.371054
0.368909
0.366864
0.364938
0.363156
0.361551
0.360164
0.359054
0.358296
0.357982
0.358191
0.358804
0.359805
0.361229
0.363095
0.365391
0.368051
0.370935
0.37383
0.376499
0.378753
0.380481
0.381649
0.382236
0.382003
0.3811
0.379705
0.377994
0.376112
0.374165
0.372229
0.370349
0.368554
0.36686
0.365278
0.363817
0.36249
0.361318
0.360328
0.359561
0.359074
0.358935
0.359222
0.360005
0.371016
0.368846
0.366769
0.364798
0.362952
0.361257
0.359744
0.358453
0.357434
0.35675
0.356468
0.356631
0.35717
0.357998
0.359117
0.360497
0.362077
0.363759
0.365415
0.366915
0.368156
0.369067
0.369532
0.36943
0.368805
0.367737
0.366328
0.364683
0.362894
0.361038
0.359168
0.35732
0.355518
0.353777
0.352106
0.350514
0.349007
0.347598
0.3463
0.345136
0.344133
0.343328
0.342761
0.342476
0.37098
0.368788
0.36668
0.364667
0.362763
0.360988
0.359364
0.357918
0.356684
0.355699
0.355007
0.354646
0.354634
0.35496
0.355523
0.356243
0.357072
0.35794
0.358769
0.359476
0.359928
0.360022
0.359754
0.359129
0.358179
0.356951
0.355502
0.353895
0.352187
0.350425
0.348647
0.346883
0.345151
0.343462
0.341825
0.340244
0.338725
0.337273
0.335897
0.334606
0.333414
0.332343
0.331408
0.330625
0.370947
0.368735
0.366599
0.364548
0.362593
0.360749
0.35903
0.357455
0.356046
0.354826
0.353817
0.353043
0.352515
0.352233
0.352167
0.352263
0.352452
0.352649
0.35277
0.352745
0.352518
0.352055
0.351349
0.350408
0.349255
0.34792
0.346441
0.344857
0.343207
0.341523
0.339833
0.338155
0.336502
0.334885
0.333308
0.331777
0.330293
0.32886
0.327483
0.326166
0.324916
0.323742
0.32265
0.32165
0.370919
0.368688
0.366527
0.364443
0.362444
0.36054
0.358742
0.357062
0.355514
0.354111
0.352865
0.351785
0.350875
0.35013
0.349532
0.349046
0.348625
0.348213
0.347751
0.34719
0.346494
0.345643
0.344633
0.343469
0.342167
0.340747
0.339235
0.337655
0.336034
0.334394
0.332754
0.331127
0.329524
0.327951
0.326414
0.324915
0.323456
0.322041
0.32067
0.319346
0.318074
0.316855
0.315694
0.314594
0.370895
0.368648
0.366465
0.364351
0.362314
0.36036
0.358497
0.356733
0.355075
0.353531
0.352107
0.350805
0.349624
0.348555
0.347582
0.346682
0.345823
0.344968
0.34408
0.343129
0.342092
0.340957
0.339718
0.338382
0.336957
0.335458
0.3339
0.332302
0.330682
0.329053
0.32743
0.325823
0.324239
0.322683
0.32116
0.31967
0.318217
0.316801
0.315423
0.314086
0.31279
0.311538
0.310329
0.309166
0.370875
0.368613
0.366411
0.364274
0.362204
0.360209
0.358292
0.356459
0.354715
0.353063
0.351506
0.350042
0.348667
0.347373
0.346146
0.344967
0.343814
0.342664
0.341492
0.340279
0.33901
0.337676
0.336277
0.334815
0.333296
0.331732
0.330132
0.32851
0.326877
0.325245
0.323623
0.322019
0.320437
0.318883
0.317358
0.315865
0.314405
0.312978
0.311587
0.31023
0.30891
0.307625
0.306377
0.305165
0.37086
0.368585
0.366367
0.364208
0.362112
0.360082
0.358122
0.356235
0.354423
0.352688
0.35103
0.349446
0.347932
0.346479
0.345077
0.34371
0.342363
0.341018
0.339659
0.338274
0.336853
0.335389
0.333883
0.332336
0.330754
0.329143
0.327513
0.325872
0.324228
0.322591
0.320967
0.31936
0.317777
0.316219
0.31469
0.31319
0.31172
0.310282
0.308875
0.3075
0.306157
0.304845
0.303564
0.302314
0.370847
0.368562
0.36633
0.364154
0.362035
0.359977
0.357982
0.356051
0.354186
0.352387
0.350653
0.34898
0.347365
0.345799
0.344273
0.342777
0.341297
0.339822
0.33834
0.336842
0.335321
0.333773
0.332198
0.330597
0.328975
0.327336
0.325688
0.324035
0.322386
0.320747
0.319122
0.317515
0.315931
0.314371
0.312838
0.311333
0.309856
0.308408
0.306989
0.305599
0.304238
0.302905
0.301598
0.300318
0.370838
0.368544
0.366301
0.36411
0.361973
0.359891
0.357868
0.355902
0.353995
0.352146
0.350354
0.348615
0.346925
0.345277
0.343663
0.342076
0.340505
0.338941
0.337375
0.335802
0.334215
0.332612
0.330993
0.329359
0.327712
0.326058
0.3244
0.322744
0.321094
0.319456
0.317833
0.316229
0.314647
0.313088
0.311554
0.310046
0.308565
0.307111
0.305683
0.304282
0.302907
0.301558
0.300232
0.29893
0.370832
0.36853
0.366277
0.364074
0.361921
0.359821
0.357775
0.355781
0.353842
0.351954
0.350118
0.348328
0.346582
0.344874
0.343197
0.341545
0.339909
0.338283
0.33666
0.335035
0.333404
0.331765
0.330117
0.328462
0.326802
0.32514
0.323479
0.321823
0.320176
0.318542
0.316924
0.315325
0.313746
0.31219
0.310658
0.30915
0.307667
0.306209
0.304776
0.303367
0.301983
0.300621
0.299281
0.297961
0.370827
0.368519
0.366258
0.364045
0.36188
0.359765
0.3577
0.355685
0.353719
0.351802
0.349931
0.348103
0.346315
0.344562
0.342839
0.341139
0.339457
0.337787
0.336124
0.334463
0.332802
0.331139
0.329473
0.327805
0.326138
0.324472
0.322812
0.321159
0.319517
0.317889
0.316277
0.314683
0.313109
0.311557
0.310028
0.308521
0.307038
0.305578
0.304142
0.302728
0.301336
0.299965
0.298613
0.297281
0.370824
0.368511
0.366243
0.364022
0.361847
0.35972
0.35764
0.355607
0.353621
0.351681
0.349784
0.347927
0.346107
0.344321
0.342563
0.340829
0.339113
0.337411
0.335719
0.334033
0.332351
0.330672
0.328994
0.327319
0.325648
0.323982
0.322324
0.320675
0.319038
0.317416
0.315811
0.314223
0.312655
0.311107
0.309581
0.308077
0.306594
0.305134
0.303695
0.302278
0.30088
0.299502
0.298142
0.296799
0.370822
0.368505
0.366232
0.364004
0.361821
0.359684
0.357592
0.355546
0.353544
0.351586
0.349668
0.34779
0.345946
0.344135
0.342352
0.340592
0.338852
0.337127
0.335414
0.33371
0.332014
0.330323
0.328638
0.326958
0.325285
0.32362
0.321964
0.32032
0.318689
0.317073
0.315473
0.313891
0.312328
0.310785
0.309262
0.307761
0.306279
0.304819
0.303379
0.301959
0.300557
0.299174
0.297808
0.296457
0.370821
0.3685
0.366223
0.36399
0.361801
0.359656
0.357556
0.355499
0.353485
0.351513
0.34958
0.347685
0.345824
0.343994
0.342191
0.340413
0.338655
0.336913
0.335185
0.333469
0.331762
0.330064
0.328374
0.326691
0.325018
0.323354
0.321702
0.320061
0.318435
0.316824
0.31523
0.313653
0.312094
0.310555
0.309036
0.307536
0.306056
0.304596
0.303156
0.301733
0.300329
0.298942
0.29757
0.296213
0.370821
0.368497
0.366217
0.36398
0.361786
0.359635
0.357528
0.355463
0.35344
0.351458
0.349514
0.347606
0.345732
0.343889
0.342072
0.34028
0.338509
0.336756
0.335018
0.333292
0.331578
0.329875
0.328181
0.326497
0.324824
0.323162
0.321512
0.319875
0.318253
0.316646
0.315056
0.313483
0.311929
0.310393
0.308876
0.307378
0.3059
0.30444
0.302999
0.301575
0.300169
0.298778
0.297403
0.296041
0.370821
0.368496
0.366213
0.363973
0.361775
0.359621
0.357509
0.355438
0.353409
0.351419
0.349468
0.347551
0.345668
0.343815
0.34199
0.340189
0.338409
0.336647
0.334902
0.33317
0.331452
0.329745
0.328049
0.326364
0.324691
0.32303
0.321382
0.319748
0.318129
0.316525
0.314938
0.313369
0.311817
0.310284
0.308769
0.307273
0.305795
0.304336
0.302894
0.30147
0.300061
0.298669
0.29729
0.295925
0.370821
0.368494
0.36621
0.363968
0.361769
0.359611
0.357496
0.355422
0.353388
0.351394
0.349437
0.347515
0.345626
0.343767
0.341935
0.340128
0.338342
0.336575
0.334825
0.33309
0.331368
0.329659
0.327962
0.326277
0.324604
0.322944
0.321298
0.319666
0.318049
0.316447
0.314863
0.313295
0.311746
0.310214
0.308701
0.307205
0.305729
0.304269
0.302828
0.301403
0.299994
0.2986
0.29722
0.295852
0.370822
0.368496
0.366211
0.363968
0.361767
0.359609
0.357492
0.355417
0.353381
0.351384
0.349425
0.3475
0.345609
0.343747
0.341912
0.340102
0.338313
0.336544
0.334792
0.333054
0.331331
0.329621
0.327923
0.326237
0.324565
0.322905
0.321259
0.319627
0.318011
0.316411
0.314827
0.313261
0.311712
0.310181
0.308668
0.307174
0.305697
0.304238
0.302797
0.301371
0.299962
0.298567
0.297186
0.295818
0.343712
0.341875
0.340063
0.338272
0.3365
0.334746
0.333006
0.331281
0.329568
0.327868
0.326181
0.324506
0.322845
0.321198
0.319565
0.317947
0.316345
0.31476
0.313193
0.311643
0.31011
0.308597
0.343731
0.341897
0.340087
0.338299
0.33653
0.334778
0.33304
0.331317
0.329605
0.327906
0.326219
0.324545
0.322883
0.321235
0.319602
0.317983
0.316381
0.314795
0.313226
0.311675
0.310142
0.308627
0.34378
0.341952
0.340148
0.338366
0.336602
0.334854
0.33312
0.3314
0.329691
0.327993
0.326306
0.324632
0.322969
0.32132
0.319684
0.318064
0.316459
0.314871
0.3133
0.311747
0.310212
0.308696
0.343853
0.342035
0.34024
0.338467
0.336711
0.33497
0.333242
0.331526
0.329821
0.328125
0.32644
0.324765
0.323101
0.32145
0.319812
0.318188
0.31658
0.314989
0.313415
0.311859
0.310322
0.308804
0.343959
0.342154
0.340373
0.338612
0.336868
0.335138
0.333419
0.331711
0.33001
0.328318
0.326634
0.324959
0.323294
0.32164
0.319999
0.318371
0.316759
0.315164
0.313586
0.312026
0.310486
0.308965
0.344101
0.342315
0.340552
0.338809
0.337082
0.335366
0.33366
0.331962
0.330269
0.328582
0.326901
0.325226
0.32356
0.321903
0.320258
0.318626
0.317008
0.315408
0.313825
0.312261
0.310717
0.309193
0.344287
0.342526
0.340789
0.33907
0.337365
0.33567
0.333982
0.332298
0.330616
0.328937
0.32726
0.325587
0.32392
0.322261
0.320611
0.318974
0.317351
0.315745
0.314156
0.312587
0.311039
0.309512
0.344527
0.3428
0.341097
0.339411
0.337738
0.336071
0.334408
0.332744
0.331079
0.329411
0.327742
0.326073
0.324407
0.322745
0.321092
0.319449
0.317821
0.316208
0.314614
0.31304
0.311487
0.309957
0.344836
0.343155
0.341498
0.339859
0.338229
0.336602
0.334974
0.33334
0.331698
0.330049
0.328393
0.326731
0.325068
0.323407
0.32175
0.320104
0.31847
0.316852
0.315252
0.313674
0.312117
0.310584
0.345235
0.343617
0.342024
0.340448
0.33888
0.33731
0.335732
0.334141
0.332536
0.330914
0.329278
0.327631
0.325976
0.324318
0.322662
0.321013
0.319376
0.317754
0.316151
0.314569
0.31301
0.311477
0.345752
0.344221
0.342718
0.341232
0.339751
0.338263
0.336759
0.335234
0.333682
0.332104
0.330502
0.328879
0.327241
0.325593
0.323942
0.322295
0.320657
0.319034
0.317429
0.315847
0.314289
0.312757
0.346427
0.345017
0.343642
0.342287
0.340933
0.339566
0.338173
0.336745
0.335277
0.333768
0.332219
0.330637
0.329028
0.3274
0.325762
0.324122
0.322489
0.320868
0.319266
0.317686
0.316132
0.314605
0.347314
0.346077
0.344888
0.343724
0.342561
0.341377
0.340152
0.338874
0.337533
0.33613
0.334666
0.333149
0.331588
0.329994
0.328378
0.326753
0.325128
0.323514
0.321917
0.320343
0.318795
0.317276
0.348489
0.347504
0.34659
0.345715
0.344842
0.343936
0.342967
0.341916
0.340769
0.339526
0.33819
0.33677
0.335279
0.333732
0.332147
0.33054
0.328926
0.327317
0.325724
0.324153
0.32261
0.321098
0.35006
0.349448
0.348944
0.348501
0.348063
0.347573
0.346985
0.346266
0.3454
0.344384
0.343224
0.341934
0.340533
0.339043
0.337488
0.335894
0.33428
0.332666
0.331065
0.329486
0.327936
0.32642
0.352166
0.352086
0.352164
0.352327
0.352491
0.352574
0.35251
0.352249
0.351764
0.351053
0.350123
0.348997
0.3477
0.346266
0.344731
0.34313
0.341495
0.339851
0.338218
0.336608
0.33503
0.33349
0.354917
0.355479
0.356193
0.357008
0.357853
0.358645
0.359307
0.35969
0.359743
0.359464
0.358863
0.357965
0.35681
0.355445
0.353925
0.352302
0.350624
0.348928
0.347239
0.345577
0.343952
0.342374
0.358012
0.359145
0.360536
0.362117
0.363776
0.365382
0.366811
0.367977
0.368829
0.369267
0.369206
0.368685
0.367761
0.366515
0.365034
0.363405
0.361695
0.359957
0.358228
0.35653
0.35488
0.353289
0.361341
0.363263
0.365624
0.368337
0.371222
0.374041
0.376574
0.37867
0.38027
0.381367
0.381985
0.381962
0.381349
0.380283
0.378933
0.377386
0.375721
0.373998
0.372263
0.370576
0.368961
0.367433
0.396635
0.39534
0.393907
0.392422
0.390947
0.389524
0.38821
0.387021
0.420178
0.419679
0.419052
0.418377
0.417732
0.41723
0.416857
0.416613
0.353331
0.352183
0.351936
0.352694
0.356938
0.355198
0.353786
0.353035
0.353376
0.35455
0.356668
0.357027
0.35539
0.354169
0.353741
0.354358
0.355887
0.358442
0.357091
0.355516
0.354406
0.354162
0.354924
0.356643
0.359438
0.363267
0.35709
0.355515
0.354405
0.354161
0.354922
0.356641
0.359435
0.363262
0.362732
0.360772
0.358857
0.357027
0.355389
0.354168
0.353739
0.354356
0.355884
0.358439
0.361974
0.364734
0.362733
0.360761
0.358821
0.356937
0.355196
0.353784
0.353033
0.353374
0.354548
0.356667
0.359687
0.364743
0.362738
0.360754
0.358784
0.356837
0.354972
0.353328
0.352179
0.351934
0.352694
0.354305
0.356748
0.364764
0.362759
0.360769
0.358776
0.356776
0.354797
0.352937
0.35141
0.350573
0.350862
0.351966
0.353875
0.364799
0.362803
0.360819
0.358821
0.356791
0.354736
0.352717
0.350898
0.349587
0.349237
0.349961
0.351494
0.353777
0.366866
0.364853
0.362877
0.360915
0.358938
0.356918
0.354846
0.352756
0.350778
0.34919
0.348449
0.348938
0.350283
0.352475
0.368967
0.366917
0.364927
0.362984
0.361066
0.359143
0.357185
0.355171
0.353123
0.351153
0.349533
0.348747
0.349233
0.350658
0.353059
0.369008
0.366978
0.365021
0.363125
0.361275
0.359444
0.357607
0.355745
0.353879
0.352127
0.350785
0.350401
0.351188
0.353076
0.356183
0.369053
0.367049
0.365131
0.363296
0.361537
0.359839
0.35819
0.356588
0.355078
0.353815
0.353164
0.353576
0.355114
0.358134
0.362859
0.369198
0.376732
0.385605
0.396352
0.3691
0.367123
0.36525
0.363488
0.36184
0.360313
0.35892
0.357699
0.356749
0.356304
0.356637
0.357995
0.361059
0.366726
0.375183
0.378142
0.386748
0.397894
0.411055
0.369144
0.367195
0.365369
0.363684
0.362161
0.360834
0.359755
0.359022
0.358819
0.359201
0.360441
0.363234
0.368975
0.379415
0.383451
0.399293
0.42284
0.448693
0.46803
0.485103
0.369181
0.367257
0.365475
0.363865
0.362469
0.361349
0.360608
0.360417
0.360786
0.361858
0.364141
0.368673
0.37802
0.395067
0.405578
0.448182
0.493352
0.575608
0.647319
0.693667
0.369206
0.367302
0.365556
0.36401
0.362724
0.361791
0.361361
0.361572
0.362357
0.364038
0.367223
0.373274
0.384383
0.39197
0.423625
0.513679
0.636357
0.737884
0.369217
0.367323
0.365601
0.364098
0.36289
0.362092
0.361889
0.362307
0.36338
0.365452
0.369144
0.37574
0.387209
0.395046
0.429274
0.482706
0.644399
0.36921
0.367318
0.365602
0.364117
0.362944
0.36221
0.362113
0.362623
0.36381
0.365993
0.369715
0.375974
0.386858
0.404399
0.418894
0.477488
0.550986
0.78527
1.01709
0.886593
0.369187
0.367285
0.36556
0.364064
0.362881
0.362134
0.362015
0.362514
0.363655
0.365703
0.369076
0.374472
0.383185
0.396825
0.416489
0.434788
0.490561
0.557233
0.6154
0.653193
0.651171
0.613636
0.583783
0.542361
0.531454
0.508483
0.506368
0.504654
0.503552
0.500707
0.495679
0.489303
0.481979
0.474129
0.466139
0.458313
0.450927
0.444246
0.438566
0.434264
0.431821
0.432209
0.369149
0.367228
0.365478
0.363948
0.362714
0.361889
0.361642
0.362044
0.363019
0.364765
0.367578
0.3719
0.378437
0.388227
0.401736
0.418167
0.431147
0.464756
0.4942
0.512864
0.518999
0.514334
0.506439
0.500039
0.486846
0.486568
0.486464
0.486104
0.48584
0.485329
0.484296
0.482691
0.480569
0.478075
0.475406
0.472464
0.46914
0.465577
0.461943
0.458436
0.45477
0.451601
0.449906
0.369098
0.367152
0.365365
0.363782
0.362469
0.361522
0.361082
0.361325
0.362057
0.363422
0.365612
0.368893
0.373639
0.380362
0.389445
0.400194
0.411392
0.422853
0.433196
0.441184
0.446385
0.449177
0.45039
0.451119
0.451666
0.45212
0.452567
0.453019
0.453502
0.45412
0.454803
0.455438
0.455945
0.456221
0.456286
0.456179
0.455951
0.455682
0.455474
0.455439
0.455493
0.455623
0.455864
0.371137
0.36904
0.367062
0.365231
0.363585
0.362177
0.361085
0.360418
0.360325
0.360804
0.361787
0.363395
0.365782
0.369137
0.373684
0.379591
0.386606
0.39393
0.401038
0.407409
0.412575
0.416317
0.418699
0.419975
0.420479
0.420699
0.420551
0.420191
0.419671
0.419049
0.418409
0.417872
0.417454
0.417153
0.416958
0.416865
0.416883
0.417043
0.417398
0.418022
0.419017
0.42048
0.422312
0.42452
0.371098
0.368976
0.366965
0.365087
0.363372
0.361865
0.360623
0.359728
0.359292
0.359432
0.360044
0.361129
0.36277
0.365057
0.368073
0.371857
0.376295
0.381043
0.385688
0.389848
0.393258
0.395811
0.397529
0.398503
0.398834
0.398472
0.39772
0.396646
0.395346
0.393922
0.392459
0.39101
0.389655
0.388412
0.387295
0.386316
0.385492
0.384848
0.384424
0.384276
0.384479
0.385125
0.386293
0.388058
0.371058
0.368912
0.366866
0.36494
0.363158
0.361553
0.360169
0.359064
0.358315
0.358017
0.35825
0.358886
0.359919
0.361389
0.363315
0.365682
0.368405
0.371305
0.374145
0.3767
0.378822
0.380434
0.381537
0.382145
0.382077
0.381419
0.380311
0.378912
0.377328
0.375636
0.373897
0.372184
0.370528
0.36895
0.367461
0.366072
0.364794
0.363645
0.362648
0.361836
0.361254
0.360959
0.361016
0.361491
0.371019
0.368849
0.366771
0.364799
0.362953
0.361258
0.359745
0.358455
0.357439
0.356761
0.356489
0.356666
0.357218
0.358063
0.3592
0.360597
0.362185
0.363854
0.365471
0.366913
0.36809
0.368947
0.369374
0.369292
0.368743
0.367791
0.36652
0.36502
0.363375
0.361654
0.35991
0.358178
0.356483
0.354841
0.35326
0.351749
0.350315
0.348968
0.347719
0.346587
0.345595
0.34477
0.344149
0.343766
0.370983
0.368791
0.366682
0.364668
0.362764
0.360988
0.359363
0.357916
0.356682
0.355698
0.355008
0.35465
0.354642
0.354971
0.355537
0.356256
0.357076
0.357926
0.358724
0.359393
0.35978
0.359831
0.359543
0.358927
0.35801
0.356835
0.355452
0.353917
0.352282
0.350595
0.348892
0.3472
0.345536
0.343913
0.342338
0.340816
0.339352
0.337951
0.336619
0.335365
0.334202
0.333142
0.332202
0.331399
0.370951
0.368738
0.366601
0.364549
0.362594
0.360748
0.359028
0.357452
0.356042
0.354819
0.353809
0.353033
0.352503
0.352217
0.352144
0.352228
0.352397
0.352566
0.352654
0.352593
0.352332
0.351845
0.351126
0.350186
0.349048
0.347738
0.346291
0.344744
0.343133
0.34149
0.33984
0.338202
0.33659
0.335011
0.333471
0.331975
0.330525
0.329125
0.327777
0.326487
0.325259
0.324102
0.323022
0.322026
0.370923
0.368691
0.366529
0.364444
0.362444
0.360539
0.35874
0.357059
0.355509
0.354103
0.352854
0.351771
0.350857
0.350106
0.349499
0.349002
0.348564
0.34813
0.347644
0.347058
0.34634
0.345472
0.344452
0.343285
0.341988
0.340578
0.33908
0.337517
0.335916
0.334297
0.332678
0.331074
0.329493
0.327942
0.326426
0.324947
0.323509
0.322112
0.320759
0.319451
0.318193
0.316987
0.315836
0.314743
0.370899
0.368651
0.366467
0.364353
0.362315
0.36036
0.358496
0.356729
0.35507
0.353524
0.352097
0.350791
0.349606
0.348531
0.347551
0.346642
0.345771
0.344901
0.343998
0.343032
0.341981
0.340834
0.339588
0.338248
0.336824
0.335328
0.333776
0.332187
0.330575
0.328958
0.327347
0.325752
0.32418
0.322636
0.321125
0.319647
0.318206
0.316801
0.315434
0.314106
0.31282
0.311575
0.310373
0.309215
0.370879
0.368617
0.366414
0.364276
0.362206
0.360209
0.358291
0.356457
0.354711
0.353057
0.351497
0.35003
0.348651
0.347353
0.34612
0.344934
0.343774
0.342615
0.341433
0.34021
0.338933
0.337593
0.336188
0.334723
0.333204
0.33164
0.330043
0.328425
0.326798
0.325172
0.323556
0.321959
0.320384
0.318837
0.31732
0.315834
0.314381
0.312961
0.311576
0.310226
0.308911
0.307632
0.306389
0.305181
0.370863
0.368589
0.36637
0.364211
0.362114
0.360083
0.358122
0.356233
0.35442
0.352683
0.351023
0.349437
0.34792
0.346463
0.345057
0.343685
0.342333
0.340982
0.339618
0.338227
0.3368
0.335333
0.333824
0.332275
0.330692
0.329082
0.327454
0.325815
0.324174
0.32254
0.32092
0.319318
0.317739
0.316186
0.314661
0.313166
0.311701
0.310267
0.308865
0.307494
0.306155
0.304847
0.30357
0.302322
0.370851
0.368566
0.366334
0.364157
0.362038
0.359979
0.357982
0.356051
0.354184
0.352384
0.350647
0.348973
0.347355
0.345787
0.344258
0.342758
0.341276
0.339797
0.338311
0.33681
0.335286
0.333736
0.332159
0.330558
0.328935
0.327297
0.325649
0.323999
0.322352
0.320715
0.319093
0.317489
0.315908
0.314352
0.312822
0.31132
0.309847
0.308402
0.306986
0.305599
0.304241
0.30291
0.301607
0.300329
0.370842
0.368548
0.366304
0.364113
0.361975
0.359893
0.357869
0.355902
0.353994
0.352144
0.35035
0.34861
0.346918
0.345268
0.343652
0.342063
0.340489
0.338923
0.337356
0.33578
0.334192
0.332588
0.330968
0.329333
0.327687
0.326033
0.324377
0.322722
0.321074
0.319438
0.317817
0.316216
0.314636
0.313079
0.311548
0.310043
0.308564
0.307113
0.305688
0.304289
0.302916
0.301569
0.300245
0.298945
0.370836
0.368534
0.366281
0.364077
0.361924
0.359824
0.357776
0.355782
0.353842
0.351953
0.350115
0.348325
0.346577
0.344868
0.343189
0.341535
0.339898
0.33827
0.336646
0.33502
0.333388
0.331749
0.330101
0.328447
0.326787
0.325126
0.323466
0.321811
0.320166
0.318534
0.316918
0.31532
0.313744
0.31219
0.310659
0.309154
0.307673
0.306217
0.304786
0.303379
0.301996
0.300636
0.299297
0.297979
0.370831
0.368523
0.366262
0.364048
0.361883
0.359767
0.357701
0.355685
0.353719
0.351801
0.349929
0.3481
0.346312
0.344558
0.342833
0.341132
0.339449
0.337778
0.336114
0.334453
0.332791
0.331128
0.329463
0.327796
0.326129
0.324464
0.322805
0.321153
0.319513
0.317886
0.316275
0.314683
0.313112
0.311561
0.310034
0.308529
0.307047
0.305589
0.304154
0.302742
0.301351
0.299982
0.298632
0.2973
0.370827
0.368514
0.366246
0.364024
0.361849
0.359721
0.357641
0.355608
0.353621
0.35168
0.349782
0.347924
0.346104
0.344317
0.342558
0.340823
0.339107
0.337404
0.335712
0.334026
0.332344
0.330664
0.328987
0.327313
0.325642
0.323977
0.32232
0.320672
0.319037
0.317416
0.315812
0.314226
0.312659
0.311113
0.309588
0.308086
0.306605
0.305146
0.303708
0.302292
0.300896
0.299519
0.29816
0.296818
0.370824
0.368507
0.366234
0.364005
0.361822
0.359684
0.357592
0.355546
0.353543
0.351584
0.349666
0.347786
0.345943
0.34413
0.342346
0.340586
0.338845
0.33712
0.335407
0.333703
0.332007
0.330316
0.328632
0.326953
0.32528
0.323616
0.321962
0.320318
0.318688
0.317073
0.315475
0.313894
0.312333
0.310791
0.309269
0.307769