/*--------------------------------*- C++ -*----------------------------------*\
  =========                 |
  \\      /  F ield         | OpenFOAM: The Open Source CFD Toolbox
   \\    /   O peration     | Website:  https://openfoam.org
    \\  /    A nd           | Version:  13
     \\/     M anipulation  |
\*---------------------------------------------------------------------------*/
FoamFile
{
    format      ascii;
    class       volScalarField;
    location    "500";
    object      nut;
}
// * * * * * * * * * * * * * * * * * * * * * * * * * * * * * * * * * * * * * //

dimensions      [0 2 -1 0 0 0 0];

internalField   nonuniform List<scalar> 
171634
(
0.0190299
0.019016
0.0190024
0.0189888
0.0189752
0.0189616
0.018948
0.0189343
0.0189204
0.0189065
0.0188925
0.0188784
0.0188642
0.01885
0.0188357
0.0188215
0.0188073
0.0187931
0.0187791
0.0187651
0.0187513
0.0187375
0.0190305
0.0190168
0.0190032
0.0189897
0.0189762
0.0189626
0.0189491
0.0189354
0.0189216
0.0189077
0.0188937
0.0188796
0.0188654
0.0188512
0.0188369
0.0188226
0.0188084
0.0187943
0.0187802
0.0187662
0.0187523
0.0187386
0.019032
0.0190184
0.019005
0.0189916
0.0189782
0.0189649
0.0189514
0.0189378
0.0189241
0.0189102
0.0188962
0.0188821
0.0188679
0.0188536
0.0188393
0.018825
0.0188108
0.0187966
0.0187824
0.0187684
0.0187545
0.0187407
0.0190342
0.0190209
0.0190077
0.0189946
0.0189814
0.0189682
0.0189549
0.0189415
0.0189279
0.0189141
0.0189001
0.018886
0.0188718
0.0188575
0.0188432
0.0188288
0.0188145
0.0188002
0.018786
0.0187719
0.018758
0.0187442
0.0190374
0.0190244
0.0190116
0.0189988
0.018986
0.0189731
0.01896
0.0189468
0.0189333
0.0189196
0.0189058
0.0188917
0.0188775
0.0188631
0.0188487
0.0188343
0.0188199
0.0188055
0.0187912
0.0187771
0.018763
0.0187492
0.0190416
0.0190291
0.0190168
0.0190045
0.0189921
0.0189796
0.0189669
0.018954
0.0189407
0.0189272
0.0189134
0.0188994
0.0188852
0.0188708
0.0188563
0.0188418
0.0188273
0.0188128
0.0187985
0.0187842
0.0187702
0.0187563
0.019047
0.0190353
0.0190236
0.0190119
0.0190002
0.0189883
0.018976
0.0189635
0.0189506
0.0189373
0.0189237
0.0189098
0.0188956
0.0188812
0.0188666
0.018852
0.0188374
0.0188229
0.0188084
0.0187941
0.01878
0.0187661
0.019054
0.0190431
0.0190324
0.0190216
0.0190107
0.0189995
0.018988
0.0189761
0.0189636
0.0189507
0.0189374
0.0189236
0.0189095
0.0188951
0.0188806
0.0188659
0.0188512
0.0188366
0.018822
0.0188077
0.0187935
0.0187796
0.0190629
0.0190532
0.0190437
0.0190342
0.0190244
0.0190143
0.0190038
0.0189927
0.0189809
0.0189686
0.0189557
0.0189422
0.0189283
0.018914
0.0188995
0.0188848
0.0188701
0.0188554
0.0188409
0.0188265
0.0188124
0.0187985
0.0190742
0.0190662
0.0190583
0.0190505
0.0190424
0.0190339
0.0190247
0.0190148
0.0190042
0.0189927
0.0189804
0.0189674
0.0189539
0.0189399
0.0189255
0.0189109
0.0188963
0.0188817
0.0188672
0.0188529
0.0188389
0.0188252
0.0190886
0.0190829
0.0190774
0.019072
0.0190662
0.0190599
0.0190528
0.0190448
0.0190357
0.0190255
0.0190143
0.0190022
0.0189893
0.0189757
0.0189617
0.0189474
0.018933
0.0189186
0.0189043
0.0188902
0.0188765
0.0188631
0.0191072
0.0191046
0.0191026
0.0191006
0.0190982
0.0190952
0.0190912
0.0190859
0.0190791
0.019071
0.0190615
0.0190507
0.0190388
0.0190261
0.0190127
0.0189989
0.0189849
0.0189709
0.018957
0.0189434
0.01893
0.0189171
0.0191313
0.0191332
0.019136
0.0191391
0.0191418
0.0191437
0.0191443
0.0191431
0.01914
0.0191349
0.0191279
0.0191191
0.0191089
0.0190974
0.019085
0.0190719
0.0190586
0.0190451
0.0190317
0.0190186
0.0190059
0.0189935
0.0191628
0.0191712
0.0191811
0.0191917
0.019202
0.0192112
0.0192185
0.0192234
0.0192255
0.0192247
0.0192212
0.0192152
0.019207
0.019197
0.0191857
0.0191735
0.0191607
0.0191477
0.0191347
0.019122
0.0191097
0.0190978
0.0192043
0.0192221
0.0192423
0.0192636
0.0192846
0.0193038
0.0193201
0.0193328
0.0193413
0.0193457
0.0193461
0.0193429
0.0193367
0.0193278
0.0193171
0.019305
0.0192921
0.0192789
0.0192657
0.0192527
0.01924
0.0192279
0.0192586
0.019289
0.019322
0.0193555
0.0193877
0.0194169
0.0194418
0.0194616
0.0194757
0.0194842
0.0194874
0.0194858
0.01948
0.019471
0.0194594
0.0194461
0.0194318
0.0194169
0.019402
0.0193872
0.0193728
0.0193589
0.0193256
0.0187542
0.0179974
0.0176026
0.0176064
0.0180406
0.0189285
0.0195469
0.0195637
0.019574
0.0195781
0.0195766
0.0195703
0.0195599
0.0195465
0.0195308
0.0195138
0.0194961
0.0194781
0.0194601
0.0194424
0.0194249
0.0169917
0.0158161
0.0149644
0.0144628
0.0143481
0.0146511
0.0153858
0.0165427
0.0181258
0.0194893
0.0194947
0.0194938
0.0194875
0.0194764
0.0194617
0.0194443
0.0194252
0.0194049
0.0193839
0.0193623
0.0193404
0.0193182
0.0144044
0.0131731
0.0122509
0.0116597
0.0114359
0.0116179
0.0122611
0.0133415
0.0148158
0.0167018
0.0191047
0.0191023
0.0190955
0.0190843
0.0190693
0.019051
0.0190301
0.019007
0.0189819
0.0189551
0.0189262
0.0188951
0.0181558
0.0181387
0.0181182
0.0180919
0.018059
0.0180183
0.0179679
0.0179059
0.0164729
0.016455
0.0164161
0.0163507
0.0162521
0.0161143
0.0159325
0.0157042
0.0191888
0.0191917
0.0192135
0.0183157
0.0192076
0.0191998
0.0191975
0.0192083
0.019242
0.0162653
0.0129841
0.0192094
0.0192035
0.0192051
0.0192224
0.0192656
0.0149493
0.0120378
0.0192107
0.019206
0.0192098
0.0192307
0.0184419
0.0143071
0.0115596
0.0098783
0.0192107
0.019206
0.0192098
0.0192307
0.0184437
0.0143087
0.0115617
0.00988139
0.0192374
0.0192277
0.0192182
0.0192094
0.0192035
0.019205
0.0192223
0.0192655
0.0149521
0.0120419
0.0102516
0.0192472
0.0192373
0.0192274
0.0192174
0.0192076
0.0191997
0.0191974
0.0192082
0.0192419
0.0162674
0.0129882
0.0109634
0.0192471
0.0192371
0.019227
0.0192165
0.0192056
0.0191953
0.0191887
0.0191916
0.0192134
0.0183156
0.0144034
0.0119423
0.0192471
0.0192372
0.0192271
0.0192163
0.0192045
0.0191922
0.0191815
0.0191771
0.0191874
0.0192223
0.0160598
0.0129771
0.0192473
0.0192377
0.0192279
0.0192171
0.019205
0.0191915
0.019178
0.0191683
0.0191698
0.0191929
0.0175817
0.0137683
0.0114448
0.0192575
0.0192479
0.0192388
0.0192296
0.0192195
0.019208
0.0191946
0.0191802
0.0191681
0.0191648
0.0191814
0.0184171
0.0140237
0.0113525
0.019268
0.0192579
0.0192488
0.0192405
0.0192324
0.0192238
0.0192139
0.0192023
0.0191896
0.0191784
0.0191755
0.0191924
0.018063
0.0135567
0.0107956
0.019268
0.0192583
0.01925
0.0192429
0.0192364
0.0192301
0.0192232
0.0192155
0.0192073
0.0192015
0.0192052
0.0192307
0.0164596
0.0123637
0.00979012
0.019268
0.0192589
0.0192515
0.0192458
0.0192415
0.0192383
0.0192359
0.0192344
0.0192345
0.0192396
0.0192579
0.0187796
0.0139502
0.010527
0.00835186
0.00696463
0.00615233
0.00538569
0.00495008
0.019268
0.0192594
0.0192531
0.0192489
0.0192473
0.0192481
0.0192517
0.0192589
0.0192715
0.0192941
0.0189954
0.0147408
0.010961
0.00813034
0.00632127
0.00505022
0.00518461
0.00632711
0.00438609
0.0192678
0.0192598
0.0192544
0.0192521
0.0192533
0.0192587
0.0192696
0.0192878
0.0193166
0.0182611
0.0148399
0.0113476
0.00822074
0.00569959
0.00433497
0.00552287
0.00368308
0.00345425
0.00318728
0.00277225
0.0192673
0.0192598
0.0192554
0.0192547
0.0192588
0.019269
0.0192875
0.0193177
0.018146
0.015083
0.0119603
0.00898358
0.00631902
0.0042549
0.00461763
0.00244823
0.00198532
0.00179016
0.00341957
0.00245726
0.00210981
0.0192665
0.0192594
0.0192557
0.0192564
0.0192629
0.0192774
0.0193029
0.0191255
0.0160778
0.0130882
0.0102336
0.00761908
0.0053501
0.0036376
0.00317386
0.00169294
0.00115246
0.00134214
0.00067797
0.00180102
0.00151694
0.00193603
0.0192653
0.0192583
0.019255
0.0192566
0.0192648
0.0192823
0.0193129
0.017964
0.0149242
0.0120562
0.00941375
0.00706881
0.00509104
0.0036556
0.00291135
0.00177578
0.0013179
0.00102401
0.000958875
0.000906505
0.00107573
0.00101183
0.0192636
0.0192565
0.0192532
0.0192551
0.019264
0.0192828
0.0193158
0.0175249
0.0145379
0.011786
0.00930833
0.00715461
0.0053609
0.00396808
0.00308275
0.00285506
0.00208094
0.00230705
0.00175849
0.0016793
0.00166072
0.00161788
0.00150686
0.00179922
0.00202282
0.0192615
0.019254
0.0192503
0.0192518
0.0192603
0.0192788
0.0193113
0.0177011
0.0147855
0.0121283
0.00977644
0.00775634
0.00610144
0.004803
0.00402106
0.00357148
0.00311234
0.00242876
0.00217996
0.00241833
0.00297242
0.00363362
0.00345245
0.00332998
0.00341965
0.00331236
0.00319935
0.00310004
0.00300552
0.00292066
0.00284823
0.00278954
0.00274491
0.00271415
0.00269668
0.00268975
0.00269379
0.00270902
0.00273525
0.0027727
0.00282226
0.00288323
0.019259
0.0192509
0.0192465
0.019247
0.0192541
0.0192706
0.0193003
0.0183955
0.015541
0.0129712
0.0107069
0.00877154
0.00717341
0.00590263
0.00494738
0.00446883
0.00403311
0.00475989
0.00328473
0.00366724
0.0046005
0.00617114
0.00752145
0.00787735
0.0078091
0.00746601
0.00704325
0.00701899
0.00664075
0.00625951
0.00589783
0.00556619
0.00526724
0.00500144
0.00476703
0.00456113
0.00438049
0.00422193
0.00408257
0.00396
0.00385241
0.00375873
0.00367927
0.0192562
0.0192474
0.0192419
0.019241
0.0192461
0.0192596
0.0192847
0.0193248
0.0167219
0.0142099
0.0120076
0.0101147
0.00853623
0.00725759
0.00625968
0.00559892
0.00545802
0.00511058
0.00564979
0.00648581
0.00772561
0.00937755
0.0113498
0.0135038
0.0134656
0.0134075
0.0128977
0.0125604
0.0122855
0.011995
0.0116932
0.0113864
0.0109153
0.0103775
0.00984836
0.0093383
0.00885273
0.00839314
0.00795827
0.00754528
0.00715063
0.00677078
0.00640452
0.0192654
0.0192532
0.0192435
0.0192368
0.0192342
0.0192369
0.0192467
0.0192664
0.0192992
0.0182554
0.0157846
0.0136159
0.0117509
0.010183
0.00890564
0.00791512
0.00723412
0.00698043
0.0072761
0.00783013
0.00872978
0.0100456
0.0118448
0.0141476
0.0164182
0.0164044
0.016394
0.0163774
0.0163457
0.0162913
0.0162068
0.0160853
0.0159207
0.0157093
0.0154495
0.0151416
0.0147875
0.0143898
0.0139513
0.0134738
0.0129587
0.012407
0.0112339
0.0101539
0.019263
0.0192502
0.0192395
0.0192316
0.0192271
0.0192272
0.0192333
0.0192474
0.0192721
0.0193094
0.0176715
0.0155262
0.0136786
0.0121263
0.0108644
0.00989571
0.00924126
0.00894041
0.00902873
0.00955242
0.0105525
0.0120299
0.0140015
0.0165621
0.0181513
0.0181387
0.0181254
0.0181094
0.0180891
0.0180633
0.018031
0.0179913
0.0179423
0.0178822
0.0178083
0.0177179
0.0176076
0.0174735
0.0173111
0.0171148
0.016878
0.0165926
0.0162507
0.015814
0.0192607
0.0192472
0.0192355
0.0192263
0.01922
0.0192176
0.0192201
0.019229
0.0192461
0.0192736
0.0193123
0.0177378
0.0159159
0.0143876
0.0131584
0.0122368
0.0116437
0.011416
0.0115929
0.0122321
0.0133193
0.0148265
0.0167834
0.0190922
0.0190866
0.0190767
0.0190627
0.019045
0.0190243
0.019001
0.0189756
0.0189481
0.0189186
0.0188868
0.0188524
0.0188147
0.018773
0.0187262
0.0186729
0.0186112
0.0185384
0.0184511
0.0183447
0.0182132
0.0192584
0.0192442
0.0192317
0.0192212
0.0192132
0.0192085
0.0192077
0.0192119
0.0192224
0.0192407
0.0192684
0.0193055
0.0184431
0.0169664
0.0157931
0.0149424
0.0144404
0.014324
0.0146257
0.0153634
0.0165346
0.0181568
0.0194856
0.0194894
0.0194869
0.0194789
0.0194663
0.0194501
0.0194313
0.0194109
0.0193894
0.0193671
0.0193444
0.0193213
0.0192978
0.0192739
0.0192495
0.0192245
0.0191988
0.0191721
0.0191443
0.019115
0.0190835
0.0190489
0.0192563
0.0192414
0.019228
0.0192164
0.0192069
0.0192
0.0191964
0.0191966
0.0192016
0.0192123
0.0192299
0.0192551
0.0192878
0.0193268
0.0187226
0.0179673
0.0175734
0.0175779
0.0180146
0.018911
0.019547
0.0195634
0.0195731
0.0195765
0.0195741
0.0195669
0.0195557
0.0195414
0.0195251
0.0195074
0.019489
0.0194704
0.0194519
0.0194336
0.0194156
0.0193979
0.0193806
0.0193638
0.0193474
0.0193317
0.0193166
0.0193026
0.0192898
0.0192782
0.0192543
0.0192388
0.0192246
0.019212
0.0192011
0.0191924
0.0191863
0.0191833
0.0191838
0.0191885
0.0191981
0.019213
0.0192336
0.0192597
0.0192902
0.0193233
0.019357
0.0193893
0.0194184
0.0194433
0.019463
0.0194769
0.0194851
0.0194879
0.0194858
0.0194796
0.0194701
0.0194581
0.0194443
0.0194296
0.0194144
0.0193992
0.0193841
0.0193695
0.0193553
0.0193417
0.0193286
0.0193163
0.0193046
0.0192938
0.0192839
0.0192751
0.0192677
0.0192617
0.0192525
0.0192365
0.0192216
0.019208
0.019196
0.0191857
0.0191775
0.0191717
0.0191687
0.0191688
0.0191723
0.0191795
0.0191905
0.0192053
0.0192232
0.0192436
0.019265
0.0192861
0.0193054
0.0193218
0.0193344
0.0193429
0.0193472
0.0193474
0.019344
0.0193374
0.0193283
0.0193173
0.019305
0.019292
0.0192786
0.0192652
0.0192521
0.0192393
0.0192271
0.0192155
0.0192044
0.0191941
0.0191845
0.0191757
0.0191678
0.0191608
0.0191549
0.0191502
0.0192508
0.0192343
0.0192188
0.0192045
0.0191914
0.0191798
0.0191699
0.0191619
0.0191561
0.0191525
0.0191515
0.0191531
0.0191572
0.0191637
0.0191723
0.0191823
0.0191929
0.0192034
0.0192127
0.01922
0.0192249
0.019227
0.0192262
0.0192226
0.0192165
0.0192082
0.0191981
0.0191866
0.0191742
0.0191614
0.0191483
0.0191353
0.0191225
0.0191102
0.0190983
0.019087
0.0190762
0.0190661
0.0190567
0.019048
0.0190401
0.0190329
0.0190266
0.0190212
0.0192493
0.0192324
0.0192164
0.0192013
0.0191874
0.0191747
0.0191634
0.0191537
0.0191456
0.0191393
0.0191348
0.0191322
0.0191314
0.0191321
0.0191342
0.019137
0.0191402
0.019143
0.019145
0.0191456
0.0191445
0.0191414
0.0191363
0.0191292
0.0191204
0.0191101
0.0190986
0.0190861
0.019073
0.0190596
0.0190461
0.0190327
0.0190196
0.0190068
0.0189945
0.0189827
0.0189715
0.0189608
0.0189507
0.0189412
0.0189324
0.0189242
0.0189168
0.0189099
0.019248
0.0192307
0.0192142
0.0191986
0.0191839
0.0191703
0.0191579
0.0191467
0.0191369
0.0191284
0.0191214
0.0191157
0.0191113
0.019108
0.0191055
0.0191035
0.0191016
0.0190993
0.0190964
0.0190924
0.0190871
0.0190804
0.0190723
0.0190628
0.019052
0.0190401
0.0190273
0.0190139
0.0190001
0.0189861
0.0189721
0.0189583
0.0189446
0.0189313
0.0189184
0.018906
0.018894
0.0188826
0.0188717
0.0188613
0.0188514
0.0188421
0.0188333
0.0188251
0.0192469
0.0192293
0.0192124
0.0191963
0.019181
0.0191666
0.0191532
0.0191409
0.0191297
0.0191196
0.0191106
0.0191026
0.0190956
0.0190893
0.0190836
0.0190783
0.0190729
0.0190672
0.019061
0.019054
0.0190459
0.0190369
0.0190267
0.0190156
0.0190034
0.0189905
0.018977
0.018963
0.0189487
0.0189343
0.0189199
0.0189057
0.0188917
0.018878
0.0188646
0.0188516
0.0188391
0.018827
0.0188154
0.0188042
0.0187935
0.0187832
0.0187734
0.0187639
0.0192459
0.019228
0.0192108
0.0191942
0.0191785
0.0191635
0.0191493
0.0191361
0.0191238
0.0191124
0.0191018
0.0190922
0.0190832
0.0190748
0.0190669
0.0190591
0.0190513
0.0190433
0.0190349
0.0190258
0.0190159
0.0190053
0.0189939
0.0189816
0.0189687
0.0189552
0.0189412
0.0189268
0.0189123
0.0188977
0.0188831
0.0188687
0.0188544
0.0188405
0.0188268
0.0188135
0.0188006
0.0187881
0.0187759
0.0187642
0.0187528
0.0187418
0.0187311
0.0187207
0.019245
0.0192269
0.0192094
0.0191925
0.0191763
0.0191608
0.0191461
0.0191321
0.0191189
0.0191065
0.0190948
0.0190838
0.0190734
0.0190635
0.0190539
0.0190444
0.019035
0.0190253
0.0190153
0.0190048
0.0189937
0.018982
0.0189698
0.0189569
0.0189434
0.0189296
0.0189153
0.0189009
0.0188862
0.0188716
0.0188569
0.0188424
0.0188281
0.018814
0.0188003
0.0187868
0.0187736
0.0187607
0.0187482
0.0187361
0.0187242
0.0187127
0.0187014
0.0186904
0.0192443
0.019226
0.0192083
0.0191911
0.0191745
0.0191586
0.0191434
0.0191288
0.019115
0.0191018
0.0190892
0.0190772
0.0190657
0.0190546
0.0190438
0.0190331
0.0190224
0.0190115
0.0190004
0.018989
0.0189771
0.0189647
0.0189518
0.0189385
0.0189248
0.0189108
0.0188964
0.0188819
0.0188673
0.0188527
0.0188381
0.0188236
0.0188093
0.0187952
0.0187814
0.0187678
0.0187545
0.0187414
0.0187287
0.0187162
0.018704
0.0186921
0.0186804
0.0186689
0.0192436
0.0192252
0.0192073
0.0191899
0.019173
0.0191568
0.0191412
0.0191261
0.0191117
0.0190979
0.0190847
0.0190719
0.0190596
0.0190476
0.0190359
0.0190243
0.0190127
0.019001
0.0189891
0.0189769
0.0189645
0.0189516
0.0189384
0.0189248
0.018911
0.0188968
0.0188825
0.018868
0.0188534
0.0188389
0.0188244
0.01881
0.0187957
0.0187817
0.0187678
0.0187542
0.0187408
0.0187277
0.0187148
0.0187021
0.0186897
0.0186774
0.0186654
0.0186535
0.0192431
0.0192245
0.0192064
0.0191889
0.0191718
0.0191553
0.0191393
0.019124
0.0191091
0.0190948
0.0190811
0.0190677
0.0190548
0.0190421
0.0190297
0.0190175
0.0190052
0.0189929
0.0189805
0.0189678
0.0189549
0.0189417
0.0189283
0.0189145
0.0189006
0.0188864
0.0188721
0.0188577
0.0188432
0.0188287
0.0188143
0.0188
0.0187858
0.0187718
0.018758
0.0187444
0.018731
0.0187178
0.0187048
0.018692
0.0186794
0.0186669
0.0186546
0.0186424
0.0192427
0.019224
0.0192058
0.019188
0.0191708
0.0191541
0.0191379
0.0191222
0.0191071
0.0190924
0.0190782
0.0190644
0.019051
0.0190379
0.019025
0.0190122
0.0189995
0.0189867
0.0189739
0.0189609
0.0189477
0.0189343
0.0189207
0.0189068
0.0188928
0.0188787
0.0188644
0.01885
0.0188356
0.0188213
0.018807
0.0187927
0.0187786
0.0187647
0.0187509
0.0187373
0.0187239
0.0187106
0.0186976
0.0186847
0.0186719
0.0186593
0.0186468
0.0186344
0.0192423
0.0192236
0.0192053
0.0191874
0.01917
0.0191531
0.0191368
0.0191209
0.0191055
0.0190906
0.0190761
0.019062
0.0190482
0.0190347
0.0190215
0.0190083
0.0189953
0.0189822
0.018969
0.0189558
0.0189424
0.0189288
0.0189151
0.0189012
0.0188872
0.018873
0.0188588
0.0188445
0.0188302
0.0188159
0.0188017
0.0187875
0.0187735
0.0187596
0.0187458
0.0187322
0.0187188
0.0187056
0.0186924
0.0186795
0.0186666
0.0186539
0.0186413
0.0186287
0.0192421
0.0192233
0.0192049
0.0191869
0.0191695
0.0191525
0.019136
0.0191199
0.0191044
0.0190892
0.0190745
0.0190602
0.0190462
0.0190325
0.019019
0.0190056
0.0189923
0.018979
0.0189656
0.0189522
0.0189387
0.018925
0.0189112
0.0188973
0.0188832
0.0188691
0.0188549
0.0188406
0.0188264
0.0188122
0.018798
0.0187839
0.01877
0.0187561
0.0187424
0.0187288
0.0187154
0.0187021
0.018689
0.018676
0.0186631
0.0186502
0.0186375
0.0186248
0.0192419
0.0192231
0.0192046
0.0191866
0.0191691
0.019152
0.0191354
0.0191193
0.0191036
0.0190884
0.0190735
0.0190591
0.0190449
0.019031
0.0190173
0.0190038
0.0189903
0.0189769
0.0189634
0.0189499
0.0189363
0.0189225
0.0189087
0.0188947
0.0188807
0.0188666
0.0188524
0.0188382
0.018824
0.0188098
0.0187957
0.0187817
0.0187677
0.0187539
0.0187402
0.0187267
0.0187132
0.0186999
0.0186868
0.0186737
0.0186608
0.0186479
0.0186351
0.0186224
0.0192419
0.019223
0.0192046
0.0191865
0.019169
0.0191519
0.0191352
0.019119
0.0191033
0.019088
0.0190731
0.0190586
0.0190443
0.0190304
0.0190166
0.019003
0.0189894
0.0189759
0.0189624
0.0189488
0.0189351
0.0189214
0.0189075
0.0188935
0.0188795
0.0188654
0.0188512
0.018837
0.0188228
0.0188087
0.0187946
0.0187806
0.0187666
0.0187528
0.0187392
0.0187256
0.0187122
0.0186989
0.0186857
0.0186727
0.0186597
0.0186468
0.018634
0.0186212
0.0190297
0.0190158
0.0190022
0.0189886
0.018975
0.0189614
0.0189478
0.0189341
0.0189202
0.0189063
0.0188923
0.0188782
0.018864
0.0188498
0.0188356
0.0188214
0.0188072
0.0187931
0.0187791
0.0187651
0.0187513
0.0187376
0.0190303
0.0190166
0.019003
0.0189894
0.0189759
0.0189624
0.0189488
0.0189352
0.0189214
0.0189075
0.0188935
0.0188794
0.0188653
0.018851
0.0188368
0.0188226
0.0188084
0.0187942
0.0187802
0.0187662
0.0187523
0.0187386
0.0190318
0.0190182
0.0190048
0.0189914
0.0189781
0.0189647
0.0189512
0.0189376
0.0189239
0.01891
0.0188961
0.018882
0.0188678
0.0188536
0.0188393
0.018825
0.0188108
0.0187966
0.0187825
0.0187685
0.0187546
0.0187409
0.0190341
0.0190208
0.0190076
0.0189945
0.0189813
0.0189681
0.0189548
0.0189414
0.0189278
0.018914
0.0189001
0.018886
0.0188718
0.0188576
0.0188432
0.0188289
0.0188146
0.0188004
0.0187862
0.0187722
0.0187582
0.0187445
0.0190374
0.0190244
0.0190116
0.0189988
0.018986
0.0189731
0.0189601
0.0189468
0.0189334
0.0189197
0.0189059
0.0188918
0.0188776
0.0188633
0.018849
0.0188346
0.0188202
0.0188059
0.0187916
0.0187775
0.0187636
0.0187497
0.0190418
0.0190293
0.019017
0.0190047
0.0189923
0.0189798
0.0189671
0.0189542
0.018941
0.0189275
0.0189137
0.0188997
0.0188856
0.0188712
0.0188568
0.0188423
0.0188279
0.0188135
0.0187991
0.018785
0.0187709
0.0187571
0.0190473
0.0190355
0.0190239
0.0190122
0.0190005
0.0189885
0.0189763
0.0189638
0.0189509
0.0189377
0.0189241
0.0189102
0.0188961
0.0188817
0.0188673
0.0188527
0.0188382
0.0188237
0.0188093
0.018795
0.018781
0.0187671
0.0190544
0.0190435
0.0190327
0.0190219
0.019011
0.0189999
0.0189883
0.0189764
0.018964
0.0189511
0.0189378
0.0189241
0.01891
0.0188957
0.0188812
0.0188666
0.018852
0.0188374
0.018823
0.0188087
0.0187946
0.0187807
0.0190632
0.0190535
0.019044
0.0190344
0.0190247
0.0190146
0.019004
0.0189929
0.0189812
0.0189689
0.018956
0.0189426
0.0189287
0.0189145
0.0189
0.0188854
0.0188708
0.0188562
0.0188417
0.0188274
0.0188134
0.0187996
0.0190745
0.0190664
0.0190586
0.0190507
0.0190426
0.019034
0.0190248
0.0190149
0.0190042
0.0189927
0.0189805
0.0189676
0.0189541
0.0189401
0.0189258
0.0189113
0.0188967
0.0188822
0.0188678
0.0188536
0.0188397
0.0188261
0.0190888
0.019083
0.0190775
0.019072
0.0190662
0.0190598
0.0190527
0.0190446
0.0190354
0.0190252
0.019014
0.0190019
0.0189891
0.0189756
0.0189616
0.0189474
0.0189331
0.0189188
0.0189046
0.0188907
0.0188771
0.0188638
0.0191073
0.0191047
0.0191025
0.0191004
0.0190979
0.0190948
0.0190906
0.0190852
0.0190784
0.0190702
0.0190607
0.0190499
0.0190381
0.0190254
0.0190121
0.0189985
0.0189846
0.0189707
0.018957
0.0189435
0.0189303
0.0189176
0.0191313
0.0191331
0.0191357
0.0191386
0.0191412
0.0191429
0.0191432
0.0191418
0.0191386
0.0191334
0.0191264
0.0191176
0.0191074
0.019096
0.0190837
0.0190709
0.0190577
0.0190444
0.0190313
0.0190184
0.0190059
0.0189938
0.0191627
0.019171
0.0191807
0.019191
0.019201
0.0192098
0.0192168
0.0192213
0.0192232
0.0192223
0.0192187
0.0192127
0.0192047
0.0191949
0.0191838
0.0191719
0.0191594
0.0191468
0.0191342
0.0191219
0.01911
0.0190985
0.0192041
0.0192218
0.0192417
0.0192626
0.0192831
0.0193018
0.0193176
0.0193298
0.019338
0.0193422
0.0193426
0.0193396
0.0193336
0.0193252
0.019315
0.0193035
0.0192913
0.0192788
0.0192662
0.0192539
0.019242
0.0192306
0.0192587
0.0192889
0.0193216
0.0193547
0.0193863
0.0194148
0.0194391
0.0194583
0.019472
0.0194803
0.0194837
0.0194826
0.0194777
0.0194697
0.0194592
0.0194471
0.0194341
0.0194205
0.0194069
0.0193934
0.0193803
0.0193677
0.0193262
0.0187768
0.01805
0.0177011
0.0177651
0.0182662
0.0192109
0.0195459
0.0195618
0.0195718
0.0195763
0.0195759
0.0195713
0.019563
0.0195519
0.0195388
0.0195243
0.0195092
0.0194937
0.0194782
0.019463
0.0194479
0.0169475
0.0157868
0.0149655
0.0145168
0.0144778
0.0148674
0.0156709
0.0168533
0.0183819
0.0194845
0.0194906
0.0194922
0.0194898
0.0194836
0.0194742
0.0194622
0.0194483
0.019433
0.0194168
0.0193999
0.0193826
0.0193648
0.0142957
0.013075
0.0121805
0.0116464
0.0115182
0.0118409
0.0126019
0.0137333
0.0151414
0.0167793
0.0186939
0.0190761
0.0190793
0.0190794
0.0190733
0.0190628
0.0190497
0.0190351
0.0190199
0.0190028
0.0189834
0.0189619
0.0180744
0.0180728
0.0180677
0.0180596
0.0180488
0.0180339
0.0180117
0.017982
0.0160933
0.0161169
0.0161329
0.0161406
0.016139
0.0161126
0.0160609
0.0159829
0.0192082
0.0192192
0.0192514
0.016807
0.0192186
0.0192154
0.0192201
0.0192408
0.0190882
0.014833
0.0119169
0.0192212
0.0192206
0.01923
0.0192583
0.0173991
0.0135704
0.0109593
0.019223
0.0192239
0.019236
0.0192684
0.0166084
0.0129764
0.0105033
0.00898166
0.019223
0.0192239
0.019236
0.0192684
0.0166099
0.0129779
0.0105053
0.00898472
0.0192415
0.0192335
0.0192264
0.0192212
0.0192206
0.01923
0.0192582
0.0174009
0.0135724
0.0109625
0.0093526
0.0192499
0.0192411
0.0192328
0.0192251
0.0192185
0.0192153
0.01922
0.0192407
0.0190888
0.0148332
0.0119186
0.0101062
0.0192497
0.0192407
0.0192321
0.0192236
0.0192155
0.0192091
0.0192081
0.0192191
0.0192513
0.016803
0.0133451
0.0111593
0.0192495
0.0192405
0.0192317
0.0192226
0.0192131
0.019204
0.0191976
0.0191991
0.0192175
0.0192612
0.0151262
0.0123348
0.0192496
0.0192407
0.019232
0.0192227
0.0192124
0.0192014
0.019191
0.0191854
0.0191921
0.0192218
0.0168848
0.0133274
0.0111421
0.019259
0.0192499
0.0192415
0.0192332
0.0192244
0.0192143
0.0192028
0.0191907
0.0191812
0.019181
0.0192015
0.0180091
0.0137735
0.011172
0.019269
0.0192592
0.0192506
0.0192429
0.0192356
0.019228
0.0192194
0.0192094
0.0191983
0.019189
0.0191883
0.0192079
0.0177567
0.0133525
0.0106478
0.0192689
0.0192595
0.0192516
0.019245
0.0192392
0.0192338
0.0192282
0.0192218
0.0192153
0.0192116
0.019218
0.0192474
0.0158901
0.0119643
0.00954651
0.0192689
0.01926
0.0192529
0.0192477
0.019244
0.0192418
0.0192406
0.0192406
0.0192429
0.0192514
0.0192748
0.0174755
0.0128904
0.00972035
0.00784768
0.00664389
0.00605709
0.00543028
0.0045623
0.0192687
0.0192604
0.0192543
0.0192507
0.0192496
0.0192514
0.0192564
0.0192656
0.0192817
0.0193099
0.0174189
0.0131693
0.00956287
0.00693709
0.00556289
0.00668564
0.00535965
0.00471436
0.00426688
0.0192685
0.0192607
0.0192556
0.0192536
0.0192555
0.0192619
0.0192744
0.0192955
0.0193291
0.0169839
0.0133376
0.00981274
0.00677202
0.00479378
0.00581591
0.00341131
0.00346173
0.00377972
0.00381937
0.00317355
0.0192679
0.0192606
0.0192564
0.0192562
0.0192608
0.0192722
0.0192927
0.0193263
0.0172458
0.0139351
0.010637
0.00759681
0.00491529
0.00339811
0.00298505
0.00196595
0.00225427
0.00158141
0.00126396
0.000788485
0.0192671
0.0192601
0.0192566
0.0192577
0.0192648
0.0192804
0.0193082
0.018495
0.015274
0.0120945
0.00910322
0.00637022
0.00442028
0.00399282
0.00190714
0.00125649
0.00117121
0.000160214
0.0192658
0.0192589
0.0192558
0.0192577
0.0192666
0.0192852
0.019318
0.0174165
0.0142416
0.0112277
0.00848119
0.00607086
0.00432554
0.00344505
0.00193985
0.00154099
0.000924719
0.0192641
0.019257
0.0192539
0.0192561
0.0192655
0.0192854
0.0193203
0.0170658
0.0139751
0.0111127
0.00854872
0.00635651
0.00446955
0.00322822
0.00270047
0.00170814
0.00146412
0.000869131
0.0012714
0.0016677
0.0192619
0.0192545
0.019251
0.0192526
0.0192616
0.0192809
0.019315
0.0173257
0.0143261
0.0115923
0.0091665
0.00709829
0.00538017
0.00415073
0.00338819
0.00289056
0.00220359
0.00204629
0.00225692
0.00183798
0.00175638
0.00178924
0.00188228
0.00213009
0.00231166
0.00291436
0.00300627
0.0030554
0.00307519
0.00307674
0.00306849
0.00305906
0.00305266
0.00305177
0.00305777
0.0030713
0.00309272
0.00312238
0.00316104
0.00321009
0.00327206
0.00335251
0.0192594
0.0192514
0.019247
0.0192477
0.0192551
0.0192723
0.0193031
0.0181006
0.0151826
0.0125524
0.0102357
0.00825356
0.00661926
0.00530779
0.00458773
0.00408413
0.00468979
0.00325738
0.00359274
0.00445624
0.00540667
0.00521043
0.00521458
0.00531369
0.0062486
0.00637416
0.00647736
0.00654568
0.00653339
0.0064451
0.00631091
0.00615097
0.00598068
0.00581068
0.00564798
0.00549502
0.00535202
0.00521902
0.00509532
0.00497984
0.00486887
0.00476372
0.00464467
0.0192566
0.0192478
0.0192424
0.0192415
0.0192469
0.0192608
0.0192867
0.0193058
0.016455
0.013898
0.0116556
0.00973029
0.00812429
0.00682345
0.00587666
0.00561388
0.00514296
0.00541925
0.0060835
0.00709646
0.00840286
0.00973668
0.0107666
0.0112188
0.0108777
0.0108985
0.0109894
0.0111969
0.0114157
0.0115972
0.0117421
0.0118367
0.0117953
0.0115165
0.0112098
0.0108837
0.0105441
0.0101941
0.0098341
0.00946249
0.00885953
0.00817256
0.00752109
0.0192657
0.0192536
0.0192439
0.0192373
0.0192347
0.0192375
0.0192476
0.0192678
0.0193014
0.0180649
0.015561
0.0133648
0.0114764
0.00989091
0.00860542
0.00763135
0.00711511
0.0072219
0.00760535
0.0082616
0.00925159
0.0105725
0.0121041
0.0136151
0.0148807
0.0159276
0.0159525
0.0159768
0.0159958
0.0160071
0.0160093
0.0159893
0.0159419
0.0158661
0.0157617
0.0156276
0.0154629
0.0152659
0.0150338
0.0147628
0.0144473
0.0140811
0.0130522
0.0119545
0.0192634
0.0192505
0.0192399
0.0192319
0.0192275
0.0192277
0.0192339
0.0192483
0.0192735
0.0193114
0.0175218
0.0153567
0.0134955
0.0119358
0.0106765
0.00973032
0.0091453
0.0089908
0.00925902
0.00995914
0.0110808
0.0125473
0.0142541
0.0161305
0.0180063
0.0180173
0.0180209
0.0180203
0.0180162
0.0180088
0.0179983
0.0179841
0.017962
0.0179317
0.0178927
0.0178444
0.0177854
0.0177138
0.0176272
0.0175221
0.0173937
0.0172358
0.017041
0.0167996
0.019261
0.0192475
0.0192359
0.0192266
0.0192204
0.019218
0.0192206
0.0192296
0.0192469
0.0192748
0.019314
0.0176365
0.0158071
0.0142791
0.0130605
0.0121662
0.0116295
0.0114968
0.0118142
0.0125706
0.0137094
0.0151529
0.0168689
0.0188995
0.0190575
0.0190572
0.0190549
0.0190476
0.0190362
0.0190223
0.019007
0.0189893
0.0189692
0.0189467
0.0189219
0.0188946
0.0188646
0.0188315
0.0187947
0.0187532
0.0187061
0.0186516
0.0185875
0.0185105
0.0192588
0.0192446
0.019232
0.0192215
0.0192136
0.0192088
0.0192081
0.0192123
0.0192229
0.0192414
0.0192693
0.0193067
0.0183947
0.0169225
0.0157643
0.0149441
0.0144946
0.014454
0.0148425
0.0156494
0.0168469
0.0184173
0.0194801
0.0194846
0.0194845
0.0194803
0.0194724
0.0194614
0.0194478
0.0194325
0.0194159
0.0193984
0.0193803
0.0193617
0.0193427
0.0193232
0.0193034
0.0192832
0.0192624
0.0192412
0.0192195
0.0191973
0.0191745
0.0191509
0.0192567
0.0192418
0.0192284
0.0192167
0.0192072
0.0192004
0.0191967
0.019197
0.019202
0.0192127
0.0192303
0.0192556
0.0192884
0.0193274
0.0187459
0.0180209
0.0176731
0.0177382
0.0182423
0.0191966
0.0195459
0.0195614
0.0195707
0.0195745
0.0195732
0.0195676
0.0195584
0.0195464
0.0195324
0.0195172
0.0195013
0.0194852
0.0194691
0.0194532
0.0194376
0.0194223
0.0194074
0.0193929
0.0193789
0.0193654
0.0193527
0.019341
0.0193304
0.0193212
0.0192547
0.0192392
0.019225
0.0192123
0.0192015
0.0191928
0.0191866
0.0191836
0.0191841
0.0191888
0.0191983
0.0192132
0.0192338
0.0192598
0.0192901
0.0193229
0.0193562
0.0193878
0.0194163
0.0194406
0.0194596
0.0194731
0.0194811
0.019484
0.0194825
0.0194771
0.0194685
0.0194576
0.019445
0.0194315
0.0194176
0.0194036
0.0193899
0.0193765
0.0193636
0.0193512
0.0193394
0.0193283
0.0193179
0.0193083
0.0192995
0.0192919
0.0192855
0.0192805
0.0192528
0.0192368
0.0192219
0.0192084
0.0191963
0.019186
0.0191778
0.019172
0.019169
0.019169
0.0191725
0.0191796
0.0191905
0.0192052
0.0192229
0.019243
0.019264
0.0192846
0.0193034
0.0193192
0.0193314
0.0193395
0.0193435
0.0193437
0.0193405
0.0193342
0.0193256
0.0193151
0.0193034
0.0192909
0.0192782
0.0192655
0.019253
0.019241
0.0192294
0.0192185
0.0192081
0.0191985
0.0191895
0.0191813
0.019174
0.0191676
0.0191623
0.0191581
0.0192512
0.0192347
0.0192192
0.0192048
0.0191917
0.0191802
0.0191702
0.0191622
0.0191564
0.0191528
0.0191517
0.0191532
0.0191572
0.0191636
0.019172
0.0191818
0.0191922
0.0192023
0.0192112
0.0192182
0.0192228