/*--------------------------------*- C++ -*----------------------------------*\
  =========                 |
  \\      /  F ield         | OpenFOAM: The Open Source CFD Toolbox
   \\    /   O peration     | Website:  https://openfoam.org
    \\  /    A nd           | Version:  13
     \\/     M anipulation  |
\*---------------------------------------------------------------------------*/
FoamFile
{
    format      ascii;
    class       volScalarField;
    location    "700";
    object      k;
}
// * * * * * * * * * * * * * * * * * * * * * * * * * * * * * * * * * * * * * //

dimensions      [0 2 -2 0 0 0 0];

internalField   nonuniform List<scalar> 
172290
(
0.623748
0.617447
0.611261
0.605187
0.599222
0.593364
0.58761
0.581956
0.576401
0.570943
0.565577
0.560303
0.555118
0.55002
0.545007
0.540076
0.535226
0.530455
0.525761
0.521142
0.516597
0.512123
0.50772
0.503385
0.499117
0.494915
0.490776
0.486701
0.482687
0.478732
0.474837
0.470999
0.467217
0.463491
0.459819
0.456199
0.452632
0.449115
0.445648
0.442231
0.438861
0.435539
0.432263
0.429032
0.425846
0.422705
0.419607
0.416551
0.413538
0.410567
0.407636
0.404747
0.401898
0.399088
0.396319
0.393589
0.390899
0.388249
0.385638
0.383067
0.380536
0.378045
0.375594
0.373184
0.370815
0.368488
0.366202
0.363959
0.361758
0.359598
0.357481
0.355404
0.353368
0.35137
0.349409
0.347484
0.34559
0.623748
0.617446
0.61126
0.605187
0.599222
0.593364
0.58761
0.581956
0.576401
0.570942
0.565577
0.560303
0.555118
0.55002
0.545007
0.540076
0.535226
0.530455
0.525761
0.521142
0.516597
0.512123
0.50772
0.503385
0.499117
0.494914
0.490776
0.486701
0.482686
0.478732
0.474837
0.470999
0.467217
0.46349
0.459818
0.456199
0.452631
0.449114
0.445648
0.44223
0.43886
0.435538
0.432262
0.429031
0.425845
0.422704
0.419605
0.41655
0.413537
0.410565
0.407635
0.404745
0.401896
0.399086
0.396317
0.393587
0.390897
0.388247
0.385636
0.383065
0.380534
0.378043
0.375592
0.373183
0.370815
0.368488
0.366203
0.36396
0.36176
0.359602
0.357485
0.35541
0.353376
0.35138
0.349422
0.347499
0.345609
0.623748
0.617446
0.61126
0.605187
0.599222
0.593364
0.58761
0.581956
0.576401
0.570942
0.565577
0.560303
0.555118
0.55002
0.545007
0.540076
0.535226
0.530455
0.525761
0.521142
0.516597
0.512123
0.507719
0.503384
0.499116
0.494914
0.490776
0.4867
0.482686
0.478732
0.474836
0.470998
0.467216
0.46349
0.459817
0.456198
0.45263
0.449113
0.445646
0.442229
0.438859
0.435536
0.43226
0.429029
0.425843
0.422701
0.419603
0.416547
0.413534
0.410562
0.407632
0.404742
0.401892
0.399083
0.396314
0.393584
0.390894
0.388243
0.385632
0.383062
0.380531
0.37804
0.37559
0.373182
0.370814
0.368489
0.366205
0.363965
0.361766
0.359611
0.357498
0.355427
0.353397
0.351406
0.349453
0.347536
0.345651
0.623748
0.617446
0.61126
0.605187
0.599222
0.593364
0.58761
0.581956
0.576401
0.570942
0.565577
0.560303
0.555118
0.55002
0.545007
0.540076
0.535226
0.530455
0.525761
0.521142
0.516596
0.512123
0.507719
0.503384
0.499116
0.494913
0.490775
0.486699
0.482685
0.478731
0.474835
0.470997
0.467215
0.463488
0.459816
0.456196
0.452628
0.449111
0.445644
0.442226
0.438856
0.435534
0.432257
0.429026
0.42584
0.422698
0.419599
0.416544
0.41353
0.410558
0.407627
0.404737
0.401888
0.399078
0.396309
0.393579
0.390889
0.388238
0.385628
0.383057
0.380526
0.378037
0.375588
0.37318
0.370814
0.36849
0.366209
0.363971
0.361777
0.359625
0.357517
0.355452
0.353428
0.351444
0.349499
0.34759
0.345715
0.623748
0.617446
0.61126
0.605187
0.599222
0.593364
0.58761
0.581956
0.576401
0.570942
0.565577
0.560303
0.555118
0.55002
0.545006
0.540076
0.535226
0.530455
0.52576
0.521141
0.516596
0.512122
0.507719
0.503383
0.499115
0.494913
0.490774
0.486698
0.482684
0.478729
0.474834
0.470995
0.467213
0.463487
0.459814
0.456194
0.452626
0.449109
0.445642
0.442223
0.438853
0.43553
0.432254
0.429022
0.425836
0.422694
0.419595
0.416539
0.413525
0.410552
0.407621
0.404731
0.401881
0.399072
0.396302
0.393572
0.390882
0.388232
0.385621
0.383051
0.380521
0.378032
0.375584
0.373178
0.370814
0.368493
0.366215
0.363981
0.361791
0.359646
0.357545
0.355487
0.353472
0.351499
0.349565
0.347669
0.345806
0.623748
0.617446
0.61126
0.605187
0.599222
0.593364
0.58761
0.581956
0.576401
0.570942
0.565577
0.560303
0.555118
0.55002
0.545006
0.540075
0.535225
0.530454
0.52576
0.521141
0.516595
0.512122
0.507718
0.503383
0.499114
0.494912
0.490773
0.486697
0.482683
0.478728
0.474832
0.470994
0.467211
0.463484
0.459811
0.456191
0.452623
0.449106
0.445638
0.44222
0.438849
0.435526
0.432249
0.429018
0.425831
0.422688
0.419589
0.416533
0.413518
0.410546
0.407614
0.404724
0.401874
0.399064
0.396294
0.393564
0.390874
0.388224
0.385614
0.383044
0.380515
0.378027
0.375581
0.373176
0.370815
0.368497
0.366224
0.363995
0.361811
0.359673
0.357581
0.355534
0.353531
0.351572
0.349653
0.347773
0.345929
0.623748
0.617446
0.61126
0.605187
0.599222
0.593364
0.58761
0.581956
0.576401
0.570942
0.565577
0.560303
0.555118
0.55002
0.545006
0.540075
0.535225
0.530454
0.52576
0.521141
0.516595
0.512121
0.507717
0.503382
0.499113
0.494911
0.490772
0.486696
0.482681
0.478726
0.47483
0.470991
0.467209
0.463482
0.459809
0.456188
0.45262
0.449102
0.445634
0.442216
0.438845
0.435521
0.432244
0.429012
0.425825
0.422682
0.419582
0.416525
0.413511
0.410538
0.407606
0.404715
0.401865
0.399055
0.396285
0.393555
0.390864
0.388215
0.385605
0.383036
0.380508
0.378021
0.375577
0.373175
0.370817
0.368503
0.366235
0.364013
0.361837
0.359709
0.357628
0.355595
0.353608
0.351666
0.349768
0.34791
0.346089
0.623748
0.617446
0.61126
0.605187
0.599222
0.593364
0.58761
0.581956
0.576401
0.570942
0.565577
0.560303
0.555118
0.550019
0.545006
0.540075
0.535225
0.530453
0.525759
0.52114
0.516594
0.51212
0.507716
0.503381
0.499112
0.494909
0.49077
0.486694
0.482679
0.478724
0.474828
0.470989
0.467206
0.463479
0.459805
0.456185
0.452616
0.449098
0.44563
0.442211
0.438839
0.435515
0.432238
0.429005
0.425818
0.422674
0.419574
0.416517
0.413502
0.410528
0.407596
0.404705
0.401854
0.399044
0.396274
0.393543
0.390853
0.388204
0.385595
0.383026
0.380499
0.378014
0.375572
0.373174
0.37082
0.368511
0.366249
0.364035
0.36187
0.359754
0.357688
0.355672
0.353705
0.351787
0.349914
0.348085
0.346296
0.623748
0.617446
0.61126
0.605187
0.599222
0.593364
0.58761
0.581956
0.576401
0.570942
0.565577
0.560303
0.555117
0.550019
0.545005
0.540075
0.535224
0.530453
0.525759
0.521139
0.516593
0.512119
0.507715
0.50338
0.499111
0.494908
0.490769
0.486692
0.482677
0.478722
0.474825
0.470986
0.467203
0.463476
0.459802
0.456181
0.452612
0.449093
0.445625
0.442205
0.438833
0.435509
0.432231
0.428998
0.42581
0.422666
0.419565
0.416507
0.413492
0.410518
0.407585
0.404693
0.401842
0.399032
0.396261
0.393531
0.390841
0.388192
0.385583
0.383016
0.38049
0.378007
0.375568
0.373173
0.370824
0.368522
0.366268
0.364064
0.361911
0.35981
0.357762
0.355768
0.353827
0.351939
0.3501
0.348309
0.346562
0.623748
0.617446
0.61126
0.605187
0.599222
0.593364
0.58761
0.581956
0.576401
0.570942
0.565577
0.560302
0.555117
0.550019
0.545005
0.540074
0.535224
0.530452
0.525758
0.521138
0.516593
0.512118
0.507714
0.503378
0.49911
0.494906
0.490767
0.48669
0.482675
0.478719
0.474823
0.470983
0.4672
0.463472
0.459798
0.456176
0.452607
0.449088
0.445619
0.442199
0.438827
0.435502
0.432223
0.42899
0.425801
0.422656
0.419555
0.416497
0.413481
0.410506
0.407573
0.404681
0.401829
0.399018
0.396247
0.393517
0.390827
0.388178
0.38557
0.383004
0.380481
0.378
0.375564
0.373174
0.370831
0.368536
0.366292
0.3641
0.361962
0.35988
0.357855
0.355888
0.35398
0.35213
0.350336
0.348595
0.346903
0.623748
0.617446
0.61126
0.605187
0.599222
0.593364
0.587609
0.581956
0.576401
0.570942
0.565576
0.560302
0.555117
0.550019
0.545005
0.540074
0.535223
0.530452
0.525757
0.521138
0.516592
0.512117
0.507713
0.503377
0.499108
0.494904
0.490765
0.486688
0.482672
0.478717
0.474819
0.47098
0.467196
0.463468
0.459793
0.456171
0.452602
0.449082
0.445613
0.442192
0.43882
0.435494
0.432215
0.428981
0.425791
0.422646
0.419544
0.416485
0.413468
0.410493
0.407559
0.404667
0.401815
0.399003
0.396232
0.393502
0.390812
0.388164
0.385557
0.382992
0.380471
0.377993
0.375561
0.373176
0.37084
0.368554
0.366321
0.364144
0.362025
0.359966
0.357969
0.356037
0.35417
0.35237
0.350633
0.348959
0.347341
0.623748
0.617446
0.61126
0.605187
0.599222
0.593364
0.587609
0.581956
0.576401
0.570942
0.565576
0.560302
0.555117
0.550018
0.545004
0.540073
0.535223
0.530451
0.525756
0.521137
0.516591
0.512116
0.507711
0.503375
0.499106
0.494903
0.490763
0.486686
0.48267
0.478714
0.474816
0.470976
0.467192
0.463463
0.459788
0.456166
0.452596
0.449076
0.445606
0.442185
0.438812
0.435486
0.432206
0.428971
0.425781
0.422635
0.419533
0.416473
0.413455
0.41048
0.407545
0.404652
0.401799
0.398987
0.396216
0.393486
0.390797
0.388149
0.385543
0.38298
0.380461
0.377987
0.375559
0.37318
0.370852
0.368577
0.366358
0.364198
0.362101
0.36007
0.358109
0.35622
0.354406
0.35267
0.351009
0.349423
0.347907
0.623748
0.617446
0.61126
0.605187
0.599222
0.593364
0.587609
0.581956
0.576401
0.570942
0.565576
0.560302
0.555116
0.550018
0.545004
0.540073
0.535222
0.53045
0.525756
0.521136
0.516589
0.512115
0.50771
0.503374
0.499104
0.4949
0.49076
0.486683
0.482667
0.47871
0.474813
0.470972
0.467188
0.463459
0.459783
0.456161
0.45259
0.44907
0.445599
0.442177
0.438803
0.435477
0.432196
0.428961
0.42577
0.422623
0.41952
0.41646
0.413441
0.410465
0.40753
0.404636
0.401783
0.398971
0.396199
0.393469
0.39078
0.388133
0.385528
0.382967
0.380451
0.37798
0.375558
0.373187
0.370868
0.368605
0.366402
0.364263
0.362193
0.360196
0.358278
0.356444
0.354698
0.353044
0.351484
0.350017
0.348639
0.623748
0.617446
0.61126
0.605187
0.599222
0.593364
0.587609
0.581956
0.576401
0.570942
0.565576
0.560302
0.555116
0.550018
0.545004
0.540072
0.535222
0.53045
0.525755
0.521135
0.516588
0.512113
0.507709
0.503372
0.499102
0.494898
0.490758
0.48668
0.482664
0.478707
0.474809
0.470968
0.467184
0.463454
0.459778
0.456155
0.452583
0.449063
0.445592
0.442169
0.438795
0.435467
0.432186
0.42895
0.425759
0.422611
0.419507
0.416446
0.413427
0.41045
0.407514
0.404619
0.401766
0.398953
0.396182
0.393451
0.390763
0.388117
0.385513
0.382954
0.380441
0.377975
0.375559
0.373195
0.370888
0.368639
0.366455
0.364341
0.362303
0.360348
0.358483
0.356717
0.355057
0.353511
0.352084
0.350779
0.349593
0.623748
0.617446
0.61126
0.605187
0.599222
0.593364
0.587609
0.581956
0.576401
0.570941
0.565576
0.560301
0.555116
0.550017
0.545003
0.540072
0.535221
0.530449
0.525754
0.521134
0.516587
0.512112
0.507707
0.50337
0.4991
0.494896
0.490755
0.486677
0.482661
0.478704
0.474805
0.470964
0.467179
0.463449
0.459772
0.456149
0.452577
0.449055
0.445584
0.442161
0.438786
0.435457
0.432175
0.428939
0.425746
0.422598
0.419493
0.416431
0.413411
0.410434
0.407497
0.404602
0.401748
0.398935
0.396163
0.393433
0.390745
0.3881
0.385498
0.382942
0.380432
0.377971
0.375562
0.373207
0.370912
0.36868
0.366518
0.364432
0.362432
0.360527
0.358727
0.357046
0.355496
0.35409
0.35284
0.351756
0.350842
0.623748
0.617446
0.61126
0.605187
0.599222
0.593364
0.587609
0.581956
0.576401
0.570941
0.565576
0.560301
0.555116
0.550017
0.545003
0.540071
0.53522
0.530448
0.525753
0.521133
0.516586
0.512111
0.507705
0.503368
0.499098
0.494894
0.490753
0.486675
0.482657
0.4787
0.474801
0.47096
0.467174
0.463443
0.459767
0.456142
0.45257
0.449048
0.445576
0.442152
0.438776
0.435447
0.432164
0.428927
0.425734
0.422585
0.419479
0.416416
0.413396
0.410417
0.40748
0.404584
0.401729
0.398916
0.396144
0.393414
0.390727
0.388083
0.385483
0.382929
0.380423
0.377968
0.375566
0.373222
0.37094
0.368727
0.36659
0.364538
0.362582
0.360736
0.359016
0.357439
0.356027
0.354804
0.353791
0.353012
0.352479
0.623748
0.617446
0.61126
0.605187
0.599222
0.593364
0.587609
0.581956
0.5764
0.570941
0.565575
0.560301
0.555115
0.550016
0.545002
0.540071
0.53522
0.530447
0.525752
0.521132
0.516585
0.512109
0.507704
0.503366
0.499096
0.494891
0.49075
0.486672
0.482654
0.478696
0.474797
0.470955
0.467169
0.463438
0.459761
0.456136
0.452563
0.44904
0.445567
0.442143
0.438766
0.435437
0.432153
0.428915
0.425721
0.422571
0.419465
0.416401
0.413379
0.4104
0.407462
0.404565
0.40171
0.398897
0.396125
0.393395
0.390708
0.388065
0.385468
0.382917
0.380415
0.377966
0.375572
0.373239
0.370973
0.36878
0.366671
0.364657
0.362752
0.360976
0.35935
0.357902
0.356665
0.355676
0.35498
0.354614
0.354596
0.623748
0.617446
0.61126
0.605187
0.599222
0.593364
0.587609
0.581956
0.5764
0.570941
0.565575
0.560301
0.555115
0.550016
0.545002
0.54007
0.535219
0.530447
0.525751
0.52113
0.516583
0.512108
0.507702
0.503365
0.499094
0.494889
0.490747
0.486668
0.482651
0.478692
0.474793
0.47095
0.467164
0.463432
0.459754
0.456129
0.452555
0.449032
0.445559
0.442134
0.438756
0.435426
0.432141
0.428902
0.425708
0.422557
0.41945
0.416385
0.413363
0.410382
0.407444
0.404547
0.401691
0.398877
0.396105
0.393376
0.39069
0.388048
0.385452
0.382905
0.380408
0.377965
0.37558
0.373259
0.371009
0.368839
0.36676
0.364788
0.362942
0.361245
0.35973
0.358437
0.357415
0.356727
0.35644
0.356598
0.357133
0.623748
0.617446
0.61126
0.605187
0.599222
0.593364
0.587609
0.581955
0.5764
0.570941
0.565575
0.5603
0.555115
0.550016
0.545001
0.540069
0.535218
0.530446
0.52575
0.521129
0.516582
0.512106
0.5077
0.503363
0.499092
0.494886
0.490745
0.486665
0.482647
0.478689
0.474789
0.470946
0.467159
0.463427
0.459748
0.456122
0.452548
0.449024
0.44555
0.442124
0.438746
0.435415
0.43213
0.42889
0.425694
0.422543
0.419434
0.416369
0.413346
0.410365
0.407425
0.404528
0.401671
0.398857
0.396085
0.393356
0.390671
0.388031
0.385437
0.382893
0.380401
0.377964
0.375589
0.373281
0.371048
0.368902
0.366856
0.364929
0.363146
0.361539
0.360151
0.359039
0.358278
0.357961
0.358165
0.358775
0.359772
0.623748
0.617446
0.61126
0.605187
0.599222
0.593364
0.587609
0.581955
0.5764
0.570941
0.565575
0.5603
0.555114
0.550015
0.545001
0.540069
0.535217
0.530445
0.525749
0.521128
0.516581
0.512105
0.507698
0.503361
0.49909
0.494884
0.490742
0.486662
0.482644
0.478685
0.474784
0.470941
0.467153
0.463421
0.459742
0.456116
0.452541
0.449016
0.445541
0.442115
0.438736
0.435404
0.432118
0.428877
0.425681
0.422528
0.419419
0.416353
0.413329
0.410347
0.407407
0.404508
0.401652
0.398837
0.396065
0.393337
0.390652
0.388013
0.385422
0.382882
0.380394
0.377965
0.375598
0.373303
0.371088
0.368966
0.366954
0.365075
0.363359
0.361848
0.3606
0.359693
0.359234
0.359339
0.35992
0.360954
0.362519
0.623748
0.617446
0.61126
0.605187
0.599222
0.593364
0.587609
0.581955
0.5764
0.570941
0.565575
0.5603
0.555114
0.550015
0.545
0.540068
0.535217
0.530444
0.525748
0.521127
0.516579
0.512103
0.507697
0.503359
0.499087
0.494881
0.490739
0.486659
0.48264
0.478681
0.47478
0.470936
0.467148
0.463415
0.459736
0.456109
0.452533
0.449008
0.445532
0.442105
0.438726
0.435393
0.432106
0.428864
0.425667
0.422514
0.419404
0.416337
0.413312
0.410329
0.407388
0.404489
0.401632
0.398817
0.396045
0.393317
0.390634
0.387996
0.385408
0.38287
0.380388
0.377965
0.375608
0.373325
0.371128
0.36903
0.367051
0.365219
0.36357
0.362156
0.361053
0.360366
0.360235
0.360678
0.361602
0.363117
0.365353
0.623748
0.617446
0.61126
0.605187
0.599222
0.593364
0.587609
0.581955
0.5764
0.57094
0.565574
0.5603
0.555114
0.550014
0.545
0.540068
0.535216
0.530443
0.525747
0.521126
0.516578
0.512101
0.507695
0.503357
0.499085
0.494879
0.490736
0.486656
0.482636
0.478677
0.474776
0.470931
0.467143
0.463409
0.459729
0.456102
0.452526
0.449
0.445523
0.442096
0.438715
0.435382
0.432094
0.428852
0.425654
0.422499
0.419388
0.41632
0.413295
0.410311
0.40737
0.40447
0.401613
0.398798
0.396026
0.393298
0.390615
0.387979
0.385393
0.382859
0.380381
0.377965
0.375617
0.373346
0.371164
0.369088
0.36714
0.365351
0.363764
0.362443
0.361479
0.361005
0.361193
0.361871
0.363142
0.365168
0.368167
0.623748
0.617446
0.61126
0.605187
0.599222
0.593364
0.587609
0.581955
0.5764
0.57094
0.565574
0.560299
0.555113
0.550014
0.544999
0.540067
0.535215
0.530442
0.525746
0.521125
0.516577
0.5121
0.507693
0.503355
0.499083
0.494876
0.490733
0.486653
0.482633
0.478673
0.474771
0.470927
0.467138
0.463404
0.459723
0.456095
0.452518
0.448992
0.445515
0.442086
0.438705
0.435371
0.432082
0.428839
0.42564
0.422485
0.419373
0.416304
0.413278
0.410294
0.407351
0.404451
0.401593
0.398778
0.396006
0.393279
0.390597
0.387963
0.385378
0.382847
0.380374
0.377963
0.375623
0.373363
0.371196
0.369139
0.367216
0.365463
0.363926
0.36268
0.361831
0.361536
0.361889
0.362777
0.364372
0.366911
0.623748
0.617446
0.61126
0.605187
0.599222
0.593364
0.587609
0.581955
0.5764
0.57094
0.565574
0.560299
0.555113
0.550014
0.544999
0.540066
0.535215
0.530441
0.525745
0.521124
0.516575
0.512098
0.507691
0.503353
0.499081
0.494874
0.49073
0.48665
0.48263
0.478669
0.474767
0.470922
0.467133
0.463398
0.459717
0.456088
0.452511
0.448984
0.445506
0.442077
0.438695
0.43536
0.432071
0.428827
0.425627
0.422471
0.419358
0.416289
0.413261
0.410276
0.407333
0.404433
0.401574
0.398759
0.395987
0.39326
0.390579
0.387946
0.385364
0.382836
0.380366
0.377961
0.375627
0.373376
0.371219
0.369177
0.367272
0.365543
0.364039
0.362839
0.36206
0.361876
0.36231
0.363334
0.365163
0.368119
0.623748
0.617446
0.61126
0.605187
0.599222
0.593364
0.587609
0.581955
0.5764
0.57094
0.565574
0.560299
0.555113
0.550013
0.544998
0.540066
0.535214
0.530441
0.525744
0.521122
0.516574
0.512097
0.50769
0.503351
0.499078
0.494871
0.490728
0.486646
0.482626
0.478665
0.474763
0.470917
0.467128
0.463393
0.459711
0.456082
0.452504
0.448976
0.445498
0.442068
0.438685
0.435349
0.432059
0.428814
0.425614
0.422457
0.419344
0.416273
0.413245
0.410259
0.407316
0.404414
0.401556
0.39874
0.395968
0.393241
0.390561
0.387929
0.385349
0.382823
0.380357
0.377956
0.375628
0.373383
0.371234
0.369199
0.367304
0.365583
0.364087
0.362895
0.362122
0.361947
0.362378
0.363418
0.365315
0.368468
0.623748
0.617446
0.61126
0.605187
0.599222
0.593364
0.587609
0.581955
0.576399
0.57094
0.565574
0.560299
0.555112
0.550013
0.544998
0.540065
0.535213
0.53044
0.525743
0.521121
0.516573
0.512095
0.507688
0.503349
0.499076
0.494869
0.490725
0.486644
0.482623
0.478662
0.474759
0.470913
0.467123
0.463387
0.459705
0.456075
0.452497
0.448969
0.44549
0.442059
0.438676
0.435339
0.432048
0.428803
0.425601
0.422444
0.41933
0.416258
0.413229
0.410243
0.407299
0.404397
0.401538
0.398722
0.39595
0.393223
0.390544
0.387913
0.385334
0.382811
0.380347
0.377949
0.375625
0.373383
0.371237
0.369204
0.367307
0.365579
0.364064
0.362834
0.361994
0.361707
0.362037
0.362944
0.364684
0.367694
0.623748
0.617446
0.61126
0.605187
0.599222
0.593363
0.587609
0.581955
0.576399
0.57094
0.565573
0.560298
0.555112
0.550012
0.544997
0.540065
0.535213
0.530439
0.525742
0.52112
0.516571
0.512094
0.507686
0.503347
0.499074
0.494867
0.490723
0.486641
0.48262
0.478658
0.474755
0.470909
0.467118
0.463382
0.459699
0.456069
0.45249
0.448961
0.445482
0.44205
0.438667
0.435329
0.432038
0.428791
0.425589
0.422431
0.419316
0.416244
0.413214
0.410227
0.407282
0.40438
0.40152
0.398704
0.395932
0.393206
0.390527
0.387897
0.38532
0.382798
0.380336
0.37794
0.375617
0.373377
0.37123
0.369193
0.367284
0.365531
0.363973
0.362663
0.361688
0.361176
0.361296
0.361912
0.363258
0.365752
0.623748
0.617446
0.61126
0.605187
0.599222
0.593363
0.587609
0.581955
0.576399
0.57094
0.565573
0.560298
0.555112
0.550012
0.544997
0.540064
0.535212
0.530438
0.525741
0.521119
0.51657
0.512093
0.507685
0.503345
0.499072
0.494864
0.49072
0.486638
0.482617
0.478655
0.474751
0.470905
0.467114
0.463377
0.459694
0.456063
0.452484
0.448954
0.445474
0.442042
0.438658
0.43532
0.432028
0.42878
0.425578
0.422419
0.419303
0.41623
0.4132
0.410212
0.407267
0.404364
0.401504
0.398687
0.395916
0.39319
0.390511
0.387882
0.385305
0.382784
0.380324
0.377929
0.375607
0.373365
0.371214
0.369166
0.367237
0.365447
0.363824
0.362405
0.361245
0.360432
0.360105
0.36033
0.36112
0.36283
0.623748
0.617446
0.61126
0.605187
0.599222
0.593363
0.587609
0.581955
0.576399
0.570939
0.565573
0.560298
0.555111
0.550012
0.544996
0.540064
0.535211
0.530438
0.525741
0.521118
0.516569
0.512092
0.507684
0.503344
0.49907
0.494862
0.490718
0.486635
0.482614
0.478652
0.474748
0.470901
0.467109
0.463372
0.459689
0.456058
0.452478
0.448948
0.445467
0.442035
0.438649
0.435311
0.432018
0.42877
0.425567
0.422407
0.419291
0.416217
0.413186
0.410198
0.407252
0.404348
0.401488
0.398672
0.3959
0.393174
0.390495
0.387867
0.385291
0.382771
0.380311
0.377916
0.375593
0.373348
0.371189
0.369127
0.367172
0.365337
0.363638
0.362094
0.360731
0.359593
0.358757
0.358362
0.358542
0.359382
0.623748
0.617446
0.61126
0.605187
0.599222
0.593363
0.587609
0.581955
0.576399
0.570939
0.565573
0.560298
0.555111
0.550011
0.544996
0.540063
0.535211
0.530437
0.52574
0.521117
0.516568
0.51209
0.507682
0.503342
0.499069
0.49486
0.490716
0.486633
0.482611
0.478649
0.474744
0.470897
0.467105
0.463368
0.459684
0.456052
0.452472
0.448942
0.44546
0.442027
0.438642
0.435302
0.432009
0.428761
0.425556
0.422396
0.419279
0.416205
0.413173
0.410184
0.407238
0.404334
0.401473
0.398657
0.395885
0.393159
0.390481
0.387852
0.385277
0.382758
0.380298
0.377903
0.375577
0.373327
0.37116
0.369081
0.367097
0.365214
0.363437
0.361768
0.360209
0.358769
0.357476
0.356401
0.355732
0.355829
0.623748
0.617446
0.61126
0.605186
0.599222
0.593363
0.587609
0.581955
0.576399
0.570939
0.565573
0.560297
0.555111
0.550011
0.544996
0.540063
0.53521
0.530436
0.525739
0.521117
0.516567
0.512089
0.507681
0.503341
0.499067
0.494859
0.490714
0.486631
0.482609
0.478646
0.474741
0.470894
0.467102
0.463364
0.45968
0.456048
0.452467
0.448936
0.445454
0.442021
0.438634
0.435295
0.432001
0.428752
0.425547
0.422386
0.419268
0.416193
0.413161
0.410172
0.407225
0.404321
0.40146
0.398643
0.395871
0.393145
0.390467
0.387839
0.385264
0.382745
0.380285
0.377888
0.37556
0.373305
0.371128
0.369031
0.367019
0.365089
0.363238
0.361456
0.359729
0.358039
0.356384
0.354798
0.353414
0.352556
0.623748
0.617446
0.61126
0.605186
0.599222
0.593363
0.587608
0.581955
0.576399
0.570939
0.565573
0.560297
0.555111
0.550011
0.544995
0.540062
0.53521
0.530436
0.525738
0.521116
0.516566
0.512088
0.50768
0.503339
0.499066
0.494857
0.490712
0.486629
0.482606
0.478643
0.474739
0.470891
0.467098
0.46336
0.459676
0.456043
0.452462
0.448931
0.445448
0.442014
0.438628
0.435287
0.431993
0.428743
0.425538
0.422376
0.419258
0.416183
0.41315
0.41016
0.407213
0.404308
0.401447
0.39863
0.395858
0.393132
0.390454
0.387826
0.385251
0.382732
0.380272
0.377874
0.375544
0.373283
0.371096
0.368983
0.366944
0.364973
0.363059
0.361183
0.35932
0.357443
0.355534
0.353613
0.351791
0.350348
0.623748
0.617446
0.61126
0.605186
0.599222
0.593363
0.587608
0.581954
0.576399
0.570939
0.565573
0.560297
0.555111
0.550011
0.544995
0.540062
0.535209
0.530435
0.525738
0.521115
0.516566
0.512087
0.507679
0.503338
0.499064
0.494855
0.49071
0.486627
0.482604
0.478641
0.474736
0.470888
0.467095
0.463357
0.459672
0.456039
0.452457
0.448926
0.445443
0.442009
0.438622
0.435281
0.431986
0.428736
0.42553
0.422368
0.419249
0.416174
0.41314
0.41015
0.407202
0.404297
0.401436
0.398618
0.395846
0.39312
0.390442
0.387815
0.38524
0.382721
0.38026
0.377861
0.375527
0.373262
0.371066
0.368939
0.366877
0.364871
0.362907
0.36096
0.359
0.356997
0.35493
0.352824
0.350788
0.34909
0.623748
0.617446
0.61126
0.605186
0.599222
0.593363
0.587608
0.581954
0.576399
0.570939
0.565572
0.560297
0.55511
0.55001
0.544995
0.540062
0.535209
0.530435
0.525737
0.521115
0.516565
0.512086
0.507678
0.503337
0.499063
0.494854
0.490709
0.486625
0.482602
0.478639
0.474734
0.470885
0.467092
0.463354
0.459669
0.456036
0.452453
0.448921
0.445439
0.442004
0.438616
0.435275
0.43198
0.428729
0.425523
0.422361
0.419241
0.416165
0.413132
0.410141
0.407193
0.404287
0.401426
0.398608
0.395836
0.39311
0.390432
0.387805
0.38523
0.38271
0.380249
0.377849
0.375513
0.373243
0.371039
0.368901
0.366821
0.364789
0.362787
0.360791
0.35877
0.356695
0.354554
0.352383
0.350308
0.348601
0.623748
0.617446
0.61126
0.605186
0.599222
0.593363
0.587608
0.581954
0.576399
0.570939
0.565572
0.560297
0.55511
0.55001
0.544995
0.540061
0.535209
0.530434
0.525737
0.521114
0.516564
0.512086
0.507677
0.503336
0.499062
0.494853
0.490707
0.486624
0.482601
0.478637
0.474732
0.470883
0.46709
0.463351
0.459666
0.456032
0.45245
0.448918
0.445435
0.441999
0.438612
0.43527
0.431974
0.428723
0.425517
0.422354
0.419234
0.416158
0.413124
0.410133
0.407184
0.404279
0.401417
0.398599
0.395827
0.393101
0.390423
0.387796
0.385221
0.382701
0.38024
0.377838
0.3755
0.373227
0.371018
0.36887
0.366777
0.364727
0.362701
0.360676
0.358624
0.356523
0.354376
0.352239
0.350265
0.348748
0.623748
0.617446
0.61126
0.605186
0.599222
0.593363
0.587608
0.581954
0.576399
0.570939
0.565572
0.560297
0.55511
0.55001
0.544994
0.540061
0.535208
0.530434
0.525736
0.521114
0.516564
0.512085
0.507676
0.503336
0.499061
0.494852
0.490706
0.486622
0.482599
0.478636
0.47473
0.470881
0.467088
0.463349
0.459663
0.45603
0.452447
0.448915
0.445431
0.441996
0.438608
0.435266
0.43197
0.428719
0.425512
0.422349
0.419229
0.416152
0.413118
0.410126
0.407177
0.404272
0.40141
0.398592
0.395819
0.393093
0.390416
0.387788
0.385213
0.382694
0.380232
0.37783
0.37549
0.373214
0.371
0.368846
0.366745
0.364683
0.362644
0.360607
0.358548
0.356458
0.354358
0.352332
0.350571
0.34941
0.623748
0.617446
0.61126
0.605186
0.599222
0.593363
0.587608
0.581954
0.576399
0.570939
0.565572
0.560297
0.55511
0.55001
0.544994
0.540061
0.535208
0.530434
0.525736
0.521113
0.516563
0.512085
0.507676
0.503335
0.499061
0.494851
0.490705
0.486621
0.482598
0.478635
0.474729
0.47088
0.467086
0.463347
0.459661
0.456028
0.452445
0.448912
0.445429
0.441993
0.438605
0.435263
0.431966
0.428715
0.425508
0.422344
0.419224
0.416147
0.413112
0.410121
0.407172
0.404266
0.401404
0.398586
0.395813
0.393087
0.390409
0.387782
0.385207
0.382687
0.380225
0.377823
0.375482
0.373204
0.370988
0.36883
0.366723
0.364655
0.362611
0.360573
0.358525
0.356469
0.35445
0.623748
0.617446
0.61126
0.605186
0.599222
0.593363
0.587608
0.581954
0.576399
0.570939
0.565572
0.560297
0.55511
0.55001
0.544994
0.540061
0.535208
0.530434
0.525736
0.521113
0.516563
0.512084
0.507675
0.503335
0.49906
0.494851
0.490705
0.486621
0.482598
0.478634
0.474728
0.470879
0.467085
0.463346
0.45966
0.456026
0.452443
0.44891
0.445427
0.441991
0.438602
0.43526
0.431963
0.428712
0.425504
0.422341
0.419221
0.416143
0.413109
0.410117
0.407168
0.404262
0.401399
0.398581
0.395808
0.393083
0.390405
0.387778
0.385203
0.382683
0.380221
0.377818
0.375476
0.373197
0.370979
0.368819
0.366709
0.36464
0.362596
0.360563
0.358534
0.623748
0.617446
0.61126
0.605186
0.599222
0.593363
0.587608
0.581954
0.576399
0.570939
0.565572
0.560297
0.55511
0.55001
0.544994
0.540061
0.535208
0.530434
0.525736
0.521113
0.516563
0.512084
0.507675
0.503334
0.49906
0.49485
0.490704
0.48662
0.482597
0.478633
0.474727
0.470878
0.467084
0.463345
0.459659
0.456025
0.452442
0.448909
0.445425
0.441989
0.438601
0.435258
0.431962
0.42871
0.425502
0.422339
0.419218
0.416141
0.413106
0.410114
0.407165
0.404259
0.401396
0.398578
0.395805
0.393079
0.390402
0.387775
0.3852
0.38268
0.380217
0.377814
0.375472
0.373192
0.370973
0.368811
0.3667
0.36463
0.362587
0.360561
0.35855
0.623748
0.617446
0.61126
0.605186
0.599222
0.593363
0.587608
0.581954
0.576399
0.570939
0.565572
0.560297
0.55511
0.55001
0.544994
0.540061
0.535208
0.530433
0.525736
0.521113
0.516563
0.512084
0.507675
0.503334
0.49906
0.49485
0.490704
0.48662
0.482597
0.478633
0.474727
0.470878
0.467084
0.463345
0.459659
0.456025
0.452442
0.448909
0.445425
0.441989
0.4386
0.435258
0.431961
0.428709
0.425501
0.422338
0.419217
0.41614
0.413105
0.410113
0.407164
0.404257
0.401395
0.398577
0.395804
0.393078
0.390401
0.387773
0.385199
0.382679
0.380216
0.377813
0.375471
0.373191
0.370972
0.36881
0.366699
0.364629
0.362589
0.360568
0.358569
0.623748
0.617446
0.61126
0.605186
0.599222
0.593363
0.587608
0.581954
0.576399
0.570939
0.565572
0.560297
0.55511
0.55001
0.544994
0.540061
0.535208
0.530433
0.525736
0.521113
0.516563
0.512084
0.507675
0.503334
0.49906
0.49485
0.490704
0.48662
0.482597
0.478633
0.474727
0.470878
0.467084
0.463345
0.459659
0.456025
0.452442
0.448909
0.445425
0.441989
0.4386
0.435258
0.431961
0.428709
0.425502
0.422338
0.419217
0.41614
0.413105
0.410113
0.407164
0.404257
0.401395
0.398577
0.395804
0.393078
0.390401
0.387773
0.385199
0.382679
0.380216
0.377813
0.375471
0.373191
0.370972
0.36881
0.366699
0.364629
0.362588
0.360567
0.358568
0.623748
0.617446
0.61126
0.605186
0.599222
0.593363
0.587608
0.581954
0.576399
0.570939
0.565572
0.560297
0.55511
0.55001
0.544994
0.540061
0.535208
0.530434
0.525736
0.521113
0.516563
0.512084
0.507675
0.503334
0.49906
0.49485
0.490704
0.48662
0.482597
0.478633
0.474727
0.470878
0.467085
0.463345
0.459659
0.456025
0.452442
0.448909
0.445425
0.441989
0.438601
0.435259
0.431962
0.42871
0.425503
0.422339
0.419219
0.416141
0.413106
0.410114
0.407165
0.404259
0.401397
0.398579
0.395806
0.39308
0.390402
0.387775
0.3852
0.38268
0.380218
0.377815
0.375473
0.373193
0.370974
0.368812
0.366701
0.36463
0.623748
0.617446
0.61126
0.605186
0.599222
0.593363
0.587608
0.581954
0.576399
0.570939
0.565572
0.560297
0.55511
0.55001
0.544994
0.540061
0.535208
0.530434
0.525736
0.521113
0.516563
0.512084
0.507675
0.503335
0.49906
0.494851
0.490705
0.486621
0.482598
0.478634
0.474728
0.470879
0.467085
0.463346
0.45966
0.456026
0.452443
0.448911
0.445427
0.441991
0.438603
0.43526
0.431964
0.428712
0.425505
0.422341
0.419221
0.416144
0.413109
0.410117
0.407168
0.404262
0.4014
0.398582
0.395809
0.393083
0.390406
0.387779
0.385204
0.382684
0.380222
0.377819
0.375478
0.373198
0.37098
0.36882
0.36671
0.623748
0.617446
0.61126
0.605186
0.599222
0.593363
0.587608
0.581954
0.576399
0.570939
0.565572
0.560297
0.55511
0.55001
0.544994
0.540061
0.535208
0.530434
0.525736
0.521113
0.516563
0.512085
0.507676
0.503335
0.499061
0.494851
0.490705
0.486622
0.482599
0.478635
0.474729
0.47088
0.467087
0.463348
0.459662
0.456028
0.452445
0.448913
0.445429
0.441993
0.438605
0.435263
0.431967
0.428715
0.425508
0.422345
0.419225
0.416148
0.413113
0.410122
0.407173
0.404267
0.401405
0.398587