/*--------------------------------*- C++ -*----------------------------------*\
  =========                 |
  \\      /  F ield         | OpenFOAM: The Open Source CFD Toolbox
   \\    /   O peration     | Website:  https://openfoam.org
    \\  /    A nd           | Version:  13
     \\/     M anipulation  |
\*---------------------------------------------------------------------------*/
FoamFile
{
    format      ascii;
    class       volScalarField;
    location    "600";
    object      k;
}
// * * * * * * * * * * * * * * * * * * * * * * * * * * * * * * * * * * * * * //

dimensions      [0 2 -2 0 0 0 0];

internalField   nonuniform List<scalar> 
172836
(
0.209223
0.208453
0.207688
0.206929
0.206175
0.205426
0.204682
0.203943
0.209384
0.208613
0.207848
0.207089
0.206335
0.205586
0.204842
0.204103
0.210503
0.209726
0.208954
0.208188
0.207428
0.206673
0.205923
0.205179
0.204439
0.211094
0.210315
0.209542
0.208775
0.208014
0.207258
0.206507
0.205761
0.205021
0.211968
0.211188
0.210414
0.209645
0.208882
0.208124
0.207371
0.206624
0.205881
0.213141
0.212359
0.211582
0.210811
0.210045
0.209284
0.208529
0.207778
0.207033
0.214581
0.213797
0.213018
0.212243
0.211474
0.21071
0.209952
0.209198
0.208448
0.21622
0.215433
0.214652
0.213875
0.213103
0.212337
0.211575
0.210817
0.210064
0.217171
0.216388
0.21561
0.214836
0.214067
0.213303
0.212543
0.211787
0.211407
0.210619
0.209837
0.209061
0.20829
0.207525
0.206766
0.206011
0.205263
0.204519
0.20378
0.203046
0.20233
0.211564
0.210776
0.209993
0.209216
0.208445
0.20768
0.20692
0.206166
0.205417
0.204673
0.203934
0.2032
0.202484
0.211899
0.21111
0.210326
0.209548
0.208776
0.20801
0.20725
0.206494
0.205745
0.205
0.204261
0.203527
0.20281
0.212477
0.211687
0.210903
0.210124
0.209351
0.208584
0.207823
0.207067
0.206316
0.205571
0.204831
0.204095
0.203378
0.213338
0.212547
0.211761
0.210981
0.210207
0.209438
0.208675
0.207918
0.207165
0.206418
0.205676
0.204939
0.204219
0.214493
0.2137
0.212913
0.212131
0.211355
0.210584
0.209819
0.209059
0.208304
0.207554
0.206809
0.206069
0.205347
0.215913
0.215118
0.214328
0.213544
0.212766
0.211992
0.211224
0.210461
0.209703
0.208951
0.208202
0.207458
0.206732
0.217523
0.216726
0.215936
0.21515
0.214369
0.213594
0.212823
0.212057
0.211297
0.210541
0.209789
0.209041
0.208312
0.219222
0.218426
0.217634
0.216847
0.216065
0.215288
0.214516
0.213748
0.212986
0.212227
0.211473
0.210722
0.209991
0.211693
0.274635
0.273422
0.272214
0.271013
0.269818
0.268629
0.267447
0.266273
0.265106
0.263947
0.262797
0.261655
0.260522
0.259398
0.258282
0.257176
0.25608
0.254992
0.253914
0.252845
0.251785
0.250734
0.249691
0.248657
0.24763
0.246612
0.2456
0.244596
0.243598
0.242607
0.241622
0.240643
0.239669
0.2387
0.237737
0.236778
0.235823
0.234874
0.233928
0.232987
0.232051
0.231119
0.230191
0.229268
0.22835
0.227437
0.226529
0.225626
0.224729
0.223838
0.222952
0.222073
0.221199
0.220333
0.219472
0.218619
0.217772
0.216931
0.216098
0.215271
0.214451
0.213638
0.212833
0.212034
0.211241
0.210454
0.209672
0.208896
0.208126
0.207362
0.206603
0.205849
0.205101
0.204357
0.203619
0.202886
0.20217
0.274759
0.273549
0.272344
0.271145
0.269952
0.268765
0.267585
0.266412
0.265247
0.264089
0.26294
0.261799
0.260666
0.259542
0.258427
0.257322
0.256225
0.255138
0.254059
0.25299
0.251931
0.250879
0.249837
0.248802
0.247776
0.246757
0.245746
0.244742
0.243744
0.242753
0.241768
0.24079
0.239816
0.238848
0.237885
0.236927
0.235973
0.235024
0.234079
0.233139
0.232203
0.231272
0.230346
0.229424
0.228506
0.227594
0.226686
0.225784
0.224887
0.223996
0.22311
0.222231
0.221357
0.22049
0.21963
0.218776
0.217928
0.217087
0.216253
0.215426
0.214605
0.213792
0.212986
0.212187
0.211394
0.210606
0.209824
0.209048
0.208277
0.207512
0.206753
0.205999
0.20525
0.204507
0.203769
0.203035
0.20232
0.275046
0.273839
0.272638
0.271442
0.270253
0.269069
0.267891
0.266721
0.265557
0.264401
0.263253
0.262114
0.260982
0.259859
0.258745
0.257639
0.256543
0.255456
0.254378
0.253309
0.252249
0.251197
0.250155
0.24912
0.248094
0.247075
0.246064
0.24506
0.244062
0.243072
0.242087
0.241109
0.240136
0.239168
0.238206
0.237248
0.236295
0.235347
0.234403
0.233464
0.232529
0.231598
0.230673
0.229751
0.228835
0.227923
0.227016
0.226114
0.225218
0.224327
0.223442
0.222562
0.221689
0.220822
0.219961
0.219107
0.218259
0.217418
0.216583
0.215755
0.214935
0.214121
0.213314
0.212514
0.21172
0.210931
0.210148
0.209371
0.208599
0.207834
0.207074
0.206319
0.20557
0.204826
0.204088
0.203354
0.202638
0.275569
0.274369
0.273174
0.271983
0.270798
0.269619
0.268445
0.267278
0.266118
0.264965
0.263819
0.262681
0.261551
0.260429
0.259316
0.258211
0.257115
0.256028
0.25495
0.25388
0.25282
0.251768
0.250725
0.24969
0.248663
0.247644
0.246632
0.245627
0.244629
0.243638
0.242652
0.241673
0.2407
0.239732
0.238769
0.237811
0.236858
0.23591
0.234966
0.234026
0.233092
0.232161
0.231236
0.230315
0.229398
0.228487
0.22758
0.226679
0.225783
0.224892
0.224007
0.223128
0.222255
0.221388
0.220527
0.219673
0.218825
0.217984
0.21715
0.216322
0.215501
0.214687
0.21388
0.213079
0.212284
0.211495
0.210712
0.209934
0.209162
0.208395
0.207635
0.206879
0.20613
0.205385
0.204645
0.20391
0.203194
0.276416
0.275223
0.274035
0.272851
0.271671
0.270497
0.269328
0.268165
0.267008
0.265857
0.264714
0.263578
0.262449
0.261327
0.260214
0.259109
0.258013
0.256925
0.255846
0.254775
0.253714
0.25266
0.251615
0.250578
0.249549
0.248528
0.247514
0.246507
0.245506
0.244513
0.243525
0.242544
0.241569
0.240599
0.239634
0.238674
0.23772
0.23677
0.235824
0.234883
0.233947
0.233016
0.232089
0.231167
0.23025
0.229338
0.228431
0.227529
0.226632
0.225741
0.224856
0.223976
0.223103
0.222236
0.221375
0.22052
0.219672
0.218831
0.217996
0.217168
0.216346
0.215532
0.214724
0.213923
0.213127
0.212337
0.211553
0.210774
0.210001
0.209233
0.208471
0.207715
0.206963
0.206217
0.205476
0.204739
0.204021
0.277609
0.276425
0.275244
0.274067
0.272894
0.271725
0.270561
0.269401
0.268248
0.2671
0.265958
0.264823
0.263695
0.262574
0.26146
0.260354
0.259256
0.258167
0.257086
0.256013
0.254948
0.253891
0.252843
0.251802
0.25077
0.249744
0.248726
0.247715
0.246711
0.245713
0.244722
0.243736
0.242757
0.241783
0.240815
0.239852
0.238894
0.237941
0.236992
0.236049
0.23511
0.234176
0.233247
0.232324
0.231405
0.230491
0.229582
0.228679
0.227781
0.226888
0.226002
0.225122
0.224248
0.22338
0.222518
0.221663
0.220814
0.219972
0.219136
0.218308
0.217485
0.21667
0.215861
0.215059
0.214262
0.21347
0.212684
0.211904
0.211129
0.210359
0.209595
0.208837
0.208083
0.207335
0.206591
0.205851
0.20513
0.279075
0.2779
0.276728
0.275559
0.274393
0.27323
0.272072
0.270917
0.269767
0.268623
0.267484
0.266351
0.265224
0.264103
0.262989
0.261882
0.260783
0.259692
0.258608
0.257532
0.256464
0.255404
0.254352
0.253307
0.25227
0.25124
0.250217
0.249201
0.248192
0.24719
0.246193
0.245203
0.244219
0.243241
0.242268
0.2413
0.240338
0.239381
0.238429
0.237482
0.23654
0.235603
0.234671
0.233745
0.232824
0.231908
0.230997
0.230092
0.229192
0.228298
0.227411
0.226529
0.225654
0.224785
0.223922
0.223066
0.222217
0.221374
0.220537
0.219707
0.218884
0.218068
0.217258
0.216454
0.215655
0.214862
0.214075
0.213293
0.212516
0.211744
0.210977
0.210216
0.20946
0.208708
0.207961
0.207218
0.206494
0.280662
0.279499
0.278338
0.277179
0.276022
0.274868
0.273717
0.272569
0.271426
0.270286
0.269152
0.268023
0.266899
0.26578
0.264668
0.263562
0.262463
0.261371
0.260286
0.259209
0.258139
0.257077
0.256021
0.254973
0.253932
0.252898
0.251871
0.250851
0.249837
0.24883
0.247829
0.246835
0.245846
0.244863
0.243886
0.242915
0.241949
0.240988
0.240032
0.239082
0.238137
0.237198
0.236264
0.235335
0.234412
0.233494
0.232582
0.231676
0.230775
0.229881
0.228992
0.22811
0.227235
0.226366
0.225503
0.224647
0.223798
0.222955
0.222118
0.221288
0.220465
0.219648
0.218838
0.218033
0.217234
0.21644
0.215651
0.214867
0.214089
0.213315
0.212546
0.211783
0.211024
0.210269
0.209519
0.208773
0.208046
0.282233
0.281085
0.279937
0.278791
0.277646
0.276503
0.275362
0.274223
0.273088
0.271956
0.270828
0.269705
0.268586
0.267472
0.266363
0.265259
0.264163
0.263072
0.261988
0.260911
0.259841
0.258777
0.257721
0.256671
0.255628
0.254591
0.253562
0.252539
0.251522
0.250511
0.249507
0.248509
0.247518
0.246532
0.245552
0.244577
0.243608
0.242645
0.241687
0.240735
0.239788
0.238847
0.237911
0.236981
0.236057
0.235139
0.234227
0.23332
0.23242
0.231526
0.230638
0.229757
0.228882
0.228014
0.227152
0.226297
0.225449
0.224607
0.223772
0.222943
0.22212
0.221305
0.220495
0.219691
0.218892
0.218098
0.21731
0.216526
0.215746
0.214972
0.214202
0.213436
0.212676
0.211919
0.211167
0.210418
0.209688
0.283754
0.282623
0.281492
0.28036
0.279229
0.278099
0.27697
0.275842
0.274717
0.273594
0.272474
0.271357
0.270244
0.269134
0.26803
0.26693
0.265835
0.264747
0.263664
0.262587
0.261517
0.260452
0.259394
0.258343
0.257297
0.256258
0.255226
0.2542
0.25318
0.252166
0.251159
0.250158
0.249162
0.248173
0.24719
0.246213
0.245242
0.244276
0.243316
0.242362
0.241414
0.240472
0.239536
0.238606
0.237682
0.236764
0.235852
0.234946
0.234047
0.233154
0.232268
0.231389
0.230516
0.22965
0.228791
0.227938
0.227092
0.226253
0.22542
0.224594
0.223774
0.22296
0.222152
0.22135
0.220553
0.219761
0.218973
0.218189
0.21741
0.216635
0.215865
0.215098
0.214337
0.213579
0.212825
0.212075
0.211344
0.285273
0.284162
0.283048
0.281933
0.280818
0.279702
0.278586
0.27747
0.276355
0.275242
0.27413
0.27302
0.271913
0.270808
0.269707
0.26861
0.267518
0.26643
0.265347
0.26427
0.263198
0.262131
0.261071
0.260016
0.258967
0.257924
0.256888
0.255857
0.254833
0.253815
0.252803
0.251797
0.250798
0.249804
0.248817
0.247836
0.246862
0.245893
0.244931
0.243974
0.243024
0.242081
0.241143
0.240213
0.239288
0.238371
0.237459
0.236555
0.235657
0.234765
0.233881
0.233004
0.232134
0.23127
0.230414
0.229564
0.228721
0.227885
0.227055
0.226231
0.225414
0.224603
0.223797
0.222998
0.222202
0.221412
0.220625
0.219843
0.219065
0.21829
0.21752
0.216753
0.215991
0.215232
0.214476
0.213724
0.212992
0.286878
0.285789
0.284697
0.283601
0.282503
0.281403
0.280302
0.279199
0.278096
0.276993
0.27589
0.274787
0.273685
0.272584
0.271486
0.27039
0.269297
0.268209
0.267124
0.266043
0.264967
0.263896
0.26283
0.261769
0.260713
0.259663
0.258619
0.257581
0.256548
0.255522
0.254503
0.253489
0.252483
0.251482
0.250489
0.249502
0.248522
0.247548
0.246581
0.245621
0.244668
0.243722
0.242783
0.24185
0.240926
0.240008
0.239097
0.238193
0.237296
0.236407
0.235525
0.23465
0.233783
0.232923
0.23207
0.231224
0.230384
0.229551
0.228725
0.227905
0.227091
0.226283
0.22548
0.224683
0.22389
0.223101
0.222316
0.221535
0.220757
0.219982
0.219211
0.218444
0.217679
0.216918
0.21616
0.215405
0.214671
0.288668
0.287605
0.286536
0.285463
0.284385
0.283303
0.282218
0.28113
0.280039
0.278947
0.277853
0.276757
0.27566
0.274562
0.273465
0.272369
0.271275
0.270183
0.269093
0.268007
0.266924
0.265845
0.264769
0.263698
0.262632
0.261571
0.260515
0.259466
0.258422
0.257384
0.256353
0.255328
0.254311
0.2533
0.252297
0.251301
0.250313
0.249331
0.248358
0.247391
0.246433
0.245483
0.24454
0.243605
0.242679
0.24176
0.240848
0.239945
0.239049
0.238162
0.237282
0.23641
0.235546
0.234689
0.233839
0.232997
0.232161
0.231332
0.23051
0.229693
0.228883
0.228078
0.227278
0.226483
0.225692
0.224905
0.224121
0.22334
0.222562
0.221786
0.221013
0.220243
0.219475
0.21871
0.217948
0.217188
0.216449
0.29075
0.289719
0.288679
0.287631
0.286577
0.285517
0.284451
0.28338
0.282304
0.281224
0.28014
0.279051
0.277959
0.276864
0.275767
0.274668
0.27357
0.272471
0.271374
0.270278
0.269183
0.268091
0.267001
0.265915
0.264832
0.263755
0.262682
0.261615
0.260553
0.259498
0.25845
0.257409
0.256375
0.25535
0.254332
0.253323
0.252322
0.25133
0.250346
0.249371
0.248405
0.247449
0.246501
0.245563
0.244633
0.243713
0.242801
0.241898
0.241004
0.240118
0.239241
0.238373
0.237513
0.236661
0.235816
0.234978
0.234148
0.233324
0.232506
0.231695
0.230888
0.230087
0.229291
0.228498
0.22771
0.226924
0.22614
0.225358
0.224578
0.223799
0.223022
0.222247
0.221473
0.220702
0.219933
0.219166
0.218419
0.293241
0.292247
0.291241
0.290225
0.289199
0.288164
0.28712
0.286069
0.285011
0.283945
0.282872
0.281791
0.280704
0.27961
0.278512
0.277409
0.276303
0.275195
0.274085
0.272975
0.271864
0.270753
0.269644
0.268536
0.267432
0.266331
0.265234
0.264143
0.263058
0.26198
0.260908
0.259844
0.258789
0.257743
0.256706
0.255679
0.254661
0.253654
0.252657
0.25167
0.250694
0.249728
0.248774
0.24783
0.246897
0.245974
0.245061
0.244159
0.243266
0.242383
0.24151
0.240646
0.239791
0.238944
0.238105
0.237274
0.23645
0.235632
0.234821
0.234014
0.233213
0.232416
0.231623
0.230834
0.230047
0.229261
0.228477
0.227693
0.226908
0.226125
0.225341
0.224558
0.223776
0.222995
0.222215
0.221436
0.220677
0.29628
0.295331
0.294366
0.293387
0.292395
0.29139
0.290375
0.289348
0.28831
0.28726
0.2862
0.285129
0.284046
0.282953
0.281851
0.280741
0.279624
0.278501
0.277373
0.276242
0.275107
0.27397
0.272832
0.271695
0.270559
0.269425
0.268296
0.267171
0.266053
0.264942
0.263838
0.262743
0.261658
0.260584
0.259521
0.258469
0.257429
0.256401
0.255385
0.254383
0.253393
0.252417
0.251453
0.250503
0.249565
0.24864
0.247727
0.246825
0.245935
0.245057
0.244189
0.243332
0.242484
0.241646
0.240816
0.239994
0.239179
0.23837
0.237567
0.236768
0.235973
0.235182
0.234394
0.233608
0.232822
0.232036
0.231249
0.23046
0.22967
0.228878
0.228084
0.227289
0.226493
0.225697
0.224901
0.224104
0.223328
0.300019
0.299123
0.298205
0.297269
0.296316
0.295347
0.294363
0.293363
0.292349
0.291319
0.290273
0.289211
0.288132
0.287038
0.28593
0.284808
0.283674
0.28253
0.281377
0.280217
0.27905
0.277878
0.276702
0.275524
0.274347
0.27317
0.271997
0.270829
0.269666
0.268511
0.267366
0.26623
0.265106
0.263995
0.262897
0.261813
0.260743
0.259689
0.25865
0.257626
0.256619
0.255628
0.254653
0.253694
0.25275
0.251822
0.250908
0.250009
0.249123
0.24825
0.24739
0.246542
0.245704
0.244877
0.244059
0.243248
0.242444
0.241647
0.240854
0.240065
0.239279
0.238494
0.237711
0.236928
0.236143
0.235355
0.234565
0.233769
0.232968
0.232163
0.231354
0.230541
0.229726
0.228908
0.228088
0.227267
0.226466
0.304619
0.303782
0.302918
0.30203
0.30112
0.30019
0.299241
0.298273
0.297284
0.296275
0.295245
0.294191
0.293116
0.292018
0.290899
0.289761
0.288603
0.28743
0.286243
0.285042
0.283831
0.282611
0.281383
0.280151
0.278916
0.277682
0.27645
0.275222
0.274002
0.272789
0.271588
0.270398
0.269223
0.268062
0.266919
0.265793
0.264685
0.263596
0.262526
0.261476
0.260446
0.259437
0.258447
0.257478
0.256527
0.255596
0.254682
0.253786
0.252906
0.252042
0.251192
0.250357
0.249533
0.248721
0.247918
0.247124
0.246336
0.245553
0.244774
0.243998
0.243222
0.242446
0.241669
0.24089
0.240104
0.239313
0.238513
0.237706
0.236891
0.236067
0.235236
0.234399
0.233556
0.232707
0.231855
0.230998
0.230163
0.310196
0.309417
0.308604
0.307763
0.306895
0.306004
0.30509
0.304152
0.303189
0.302201
0.301184
0.300139
0.299063
0.297958
0.296824
0.295663
0.294475
0.293264
0.292031
0.29078
0.289513
0.288231
0.286939
0.285638
0.284332
0.283026
0.28172
0.280419
0.279125
0.277841
0.27657
0.275313
0.274073
0.272852
0.271652
0.270473
0.269317
0.268184
0.267076
0.265992
0.264933
0.2639
0.262891
0.261908
0.260948
0.260011
0.259097
0.258204
0.25733
0.256476
0.255639
0.254818
0.254012
0.253217
0.252433
0.251657
0.250888
0.250123
0.24936
0.248598
0.247834
0.247068
0.246297
0.245518
0.244731
0.243933
0.243125
0.242302
0.241466
0.240618
0.239759
0.238888
0.238009
0.23712
0.236225
0.235323
0.234443
0.316746
0.316018
0.315252
0.314451
0.313622
0.312766
0.311883
0.310973
0.310034
0.309063
0.308058
0.307017
0.305938
0.304821
0.303667
0.302477
0.301252
0.299993
0.298705
0.297392
0.296055
0.294699
0.293327
0.291943
0.290552
0.289157
0.287763
0.286373
0.284992
0.283621
0.282266
0.280928
0.27961
0.278316
0.277046
0.275803
0.274588
0.273402
0.272246
0.27112
0.270025
0.268962
0.267929
0.266926
0.265953
0.265009
0.264092
0.2632
0.262333
0.261489
0.260666
0.259862
0.259074
0.2583
0.257538
0.256785
0.256038
0.255295
0.254552
0.253808
0.25306
0.252306
0.251544
0.250772
0.249984
0.249182
0.24836
0.247523
0.246667
0.245792
0.244901
0.243994
0.243072
0.242138
0.241193
0.240238
0.239305
0.324112
0.323426
0.322698
0.321927
0.321122
0.320287
0.319421
0.318526
0.317597
0.316632
0.315626
0.314578
0.313483
0.312344
0.31116
0.309932
0.30866
0.307346
0.305996
0.304613
0.303201
0.301764
0.300306
0.298833
0.29735
0.295862
0.294374
0.29289
0.291414
0.289952
0.288506
0.28708
0.285679
0.284304
0.282958
0.281643
0.280361
0.279114
0.277901
0.276725
0.275586
0.274483
0.273418
0.272389
0.271396
0.270437
0.269511
0.268617
0.267752
0.266915
0.266104
0.265316
0.264548
0.263798
0.263062
0.262338
0.261621
0.260909
0.260199
0.259487
0.25877
0.258047
0.257315
0.256566
0.255803
0.255019
0.254215
0.253385
0.25253
0.251651
0.250747
0.24982
0.248873
0.247905
0.246919
0.245919
0.244939
0.331415
0.33069
0.329919
0.329108
0.328259
0.327377
0.32646
0.325505
0.324509
0.323468
0.322378
0.321239
0.320049
0.318811
0.317524
0.316191
0.314813
0.31339
0.311932
0.310441
0.308922
0.307381
0.305823
0.304254
0.30268
0.301106
0.299536
0.297975
0.296429
0.2949
0.293394
0.291914
0.290462
0.289043
0.287658
0.286309
0.284998
0.283727
0.282497
0.281309
0.280163
0.279061
0.278001
0.276984
0.276009
0.275074
0.274178
0.273321
0.2725
0.271713
0.270959
0.270235
0.269538
0.268864
0.268212
0.267577
0.266957
0.266348
0.265747
0.26515
0.264556
0.263959
0.263357
0.262737
0.262098
0.261429
0.260734
0.260004
0.259237
0.258431
0.257587
0.256704
0.255786
0.254835
0.253852
0.252886
0.339731
0.338935
0.338083
0.337181
0.336233
0.335245
0.334216
0.333146
0.332031
0.330867
0.329654
0.328392
0.327084
0.325733
0.324342
0.322912
0.321446
0.319943
0.31841
0.316851
0.315271
0.313674
0.312067
0.310452
0.308835
0.307221
0.305613
0.304015
0.302431
0.300865
0.29932
0.2978
0.296308
0.294847
0.29342
0.29203
0.29068
0.289372
0.288107
0.28689
0.285722
0.284605
0.283541
0.282532
0.281578
0.280681
0.279842
0.279061
0.278341
0.277682
0.277084
0.276547
0.276071
0.275656
0.275301
0.275005
0.274765
0.274584
0.274456
0.274376
0.274352
0.274371
0.274409
0.274458
0.274491
0.274499
0.274454
0.274347
0.274167
0.273905
0.273555
0.273117
0.272591
0.271981
0.2713
0.270616
0.347067
0.346007
0.344896
0.343739
0.342533
0.341279
0.339974
0.338613
0.337197
0.335726
0.334206
0.332647
0.331058
0.329449
0.327829
0.326202
0.324573
0.322946
0.321324
0.319709
0.318105
0.316511
0.314929
0.313359
0.311801
0.310257
0.308726
0.30721
0.30571
0.304228
0.302768
0.301332
0.299926
0.298551
0.297216
0.295923
0.294679
0.293492
0.292368
0.291316
0.290343
0.289458
0.288669
0.287986
0.287418
0.286975
0.286668
0.286508
0.286506
0.286672
0.287017
0.287552
0.288286
0.289229
0.290389
0.291767
0.29338
0.29522
0.297275
0.299584
0.30208
0.304707
0.307383
0.310052
0.312641
0.315107
0.317392
0.319461
0.321286
0.322855
0.324165
0.325225
0.326057
0.326685
0.327273
0.353988
0.352757
0.351484
0.350177
0.348808
0.347352
0.345789
0.344099
0.342283
0.340347
0.338315
0.336217
0.334086
0.33196
0.329872
0.327852
0.325922
0.324099
0.322376
0.320744
0.319196
0.317718
0.316292
0.314911
0.313565
0.312251
0.310963
0.309701
0.308466
0.307262
0.306096
0.304978
0.303919
0.302933
0.30204
0.301257
0.300609
0.300121
0.299821
0.299738
0.299906
0.300358
0.301131
0.302265
0.303799
0.305777
0.308241
0.311235
0.314802
0.318984
0.323818
0.329334
0.33557
0.342535
0.350238
0.3587
0.367857
0.377697
0.388249
0.399259
0.410462
0.421642
0.432577
0.443105
0.453055
0.462337
0.470883
0.478663
0.485683
0.491986
0.49764
0.502733
0.507397
0.512027
0.367302
0.367524
0.367734
0.367836
0.367708
0.367213
0.366246
0.364725
0.362626
0.359974
0.356843
0.35335
0.349638
0.345855
0.342163
0.338667
0.335544
0.332777
0.330329
0.328162
0.32624
0.32453
0.323003
0.321638
0.320417
0.319335
0.318394
0.317605
0.31699
0.316579
0.316414
0.316544
0.317029
0.317937
0.319347
0.321343
0.324019
0.327476
0.331819
0.337159
0.343607
0.351278
0.360282
0.370725
0.382705
0.396309
0.411605
0.428645
0.447458
0.468037
0.490351
0.514345
0.539876
0.566842
0.595087
0.624259
0.654282
0.684923
0.71546
0.745319
0.773984
0.801126
0.826466
0.849912
0.871381
0.890906
0.908591
0.924599
0.939142
0.952472
0.96489
0.976719
0.988833
0.41765
0.426553
0.435914
0.445241
0.453917
0.46127
0.466667
0.469628
0.469863
0.467327
0.462195
0.454842
0.445786
0.435644
0.425031
0.41459
0.404728
0.396179
0.388779
0.382406
0.376955
0.372342
0.368511
0.365435
0.363117
0.361594
0.360935
0.361241
0.362648
0.365316
0.369434
0.375211
0.38287
0.392644
0.404766
0.419462
0.436941
0.457387
0.480952
0.507747
0.537839
0.571245
0.607933
0.647818
0.690765
0.736593
0.785064
0.835911
0.888815
0.943394
0.999293
1.05608
1.11322
1.17045
1.22716
1.28271
1.33722
1.38976
1.43954
1.48597
1.52881
1.56787
1.60322
1.63489
1.66316
1.68831
1.71069
1.73067
1.74869
1.76521
1.78067
1.79581
1.81161
0.603129
0.647528
0.695882
0.744202
0.789909
0.830227
0.862677
0.885386
0.897322
0.898305
0.88894
0.87052
0.844753
0.813749
0.779519
0.744273
0.709804
0.67741
0.649706
0.626134
0.606365
0.590212
0.577626
0.56867
0.563517
0.562424
0.565711
0.573725
0.586815
0.605291
0.629404
0.659315
0.695085
0.73667
0.783919
0.836589
0.894353
0.956819
1.02354
1.09404
1.16782
1.24436
1.32313
1.40363
1.48532
1.56771
1.65026
1.7325
1.81389
1.89394
1.97222
2.04814
2.12131
2.19141
2.2577
2.32006
2.37854
2.43179
2.47971
2.5224
2.55991
2.59256
2.62059
2.64448
2.66456
2.68129
2.69514
2.70662
2.71624
2.72452
2.73212
2.73998
2.74906
1.37971
1.54617
1.7102
1.85803
1.98274
2.07886
2.14363
2.17659
2.17936
2.15504
2.10785
2.04266
1.96454
1.87844
1.78877
1.70029
1.61547
1.53993
1.47534
1.4215
1.37887
1.34806
1.32882
1.32117
1.32498
1.33988
1.3653
1.40051
1.44468
1.49695
1.55643
1.62231
1.69379
1.77012
1.85057
1.93446
2.02113
2.10991
2.2002
2.29137
2.38286
2.47408
2.5645
2.6536
2.74086
2.82583
2.908
2.98687
3.06214
3.13323
3.19976
3.26175
3.31836
3.36934
3.41578
3.45559
3.48924
3.51713
3.53959
3.55713
3.57008
3.57896
3.58413
3.58612
3.58541
3.5825
3.5779
3.57211
3.56569
3.55932
3.55434
3.55153
3.61853
3.94036
4.20109
4.39181
4.51674
4.5814
4.59329
4.56066
4.49161
4.39414
4.27546
4.14224
3.99944
3.8539
3.71044
3.57667
3.44733
3.32619
3.2175
3.12346
3.04518
2.98285
2.93605
2.904
2.88575
2.88034
2.88678
2.90406
2.93133
2.96775
3.01248
3.06453
3.12295
3.18675
3.25484
3.32617
3.39972
3.47454
3.54977
3.62459
3.69828
3.77017
3.83963
3.90613
3.96914
4.02818
4.08291
4.13288
4.17773
4.21752
4.25163
4.27989
4.30326
4.32029
4.33139
4.33721
4.33829
4.33516
4.32819
4.31792
4.30472
4.28915
4.27158
4.25249
4.23232
4.21153
4.19057
4.16989
4.15028
4.13306
4.11925
6.857
7.03639
7.12426
7.1423
7.10537
7.0246
6.91039
6.7702
6.61112
6.44005
6.25963
6.07551
5.88805
5.70644
5.52716
5.35569
5.19754
5.05285
4.92122
4.80154
4.69635
4.60633
4.53117
4.47037
4.42348
4.38979
4.3668
4.35446
4.35282
4.36127
4.37858
4.40507
4.43969
4.47897
4.52149
4.56598
4.61127
4.65637
4.70038
4.74255
4.78222
4.81881
4.85186
4.88093
4.90573
4.92596
4.94138
4.95202
4.9576
4.95807
4.95401
4.94495
4.93108
4.91314
4.89174
4.86738
4.84046
4.81147
4.78077
4.74881
4.71592
4.68253
4.64897
4.61558
4.58271
4.55064
4.51974
4.4906
4.4646
4.44289
8.77355
8.69524
8.57323
8.42254
8.2512
8.06628
7.87243
7.67363
7.47483
7.27602
7.08212
6.89364
6.70908
6.53535
6.37541
6.23057
6.10115
5.98636
5.88535
5.79723
5.72136
5.65631
5.60127
5.55528
5.51794
5.48729
5.463
5.44582
5.43484
5.42854
5.42752
5.43304
5.44167
5.45194
5.46268
5.47297
5.48199
5.48912
5.49378
5.49556
5.49412
5.4892
5.48063
5.46829
5.45206
5.43208
5.40825
5.38067
5.34969
5.31539
5.27799
5.23817
5.19647
5.15333
5.10914
5.06432
5.01914
4.97397
4.92908
4.88478
4.8413
4.79886
4.75766
4.71786
4.67959
4.64301
4.60862
4.57742
4.5511
9.16568
8.96582
8.75331
8.54294
8.33807
8.14153
7.95278
7.77551
7.60658
7.44904
7.30437
7.17204
7.05183
6.94339
6.84619
6.75953
6.68258
6.61437
6.55398
6.50017
6.4522
6.40918
6.37012
6.3341
6.30111
6.27044
6.2407
6.21231
6.18557
6.15918
6.13336
6.10955
6.08624
6.06246
6.03756
6.01106
5.9826
5.95192
5.9188
5.88317
5.84494
5.80415
5.76078
5.71496
5.66682
5.61643
5.56397
5.50973
5.45387
5.39683
5.3391
5.28112
5.22321
5.16573
5.10894
5.05311
4.99847
4.9452
4.89352
4.84353
4.79538
4.74911
4.70478
4.66237
4.62186
4.58324
4.54676
4.51327
4.48485
8.27694
8.08369
7.90852
7.75725
7.62488
7.51016
7.41183
7.32815
7.25815
7.1994
7.14988
7.10771
7.0721
7.04113
7.01424
6.98964
6.9669
6.94443
6.92181
6.89763
6.87202
6.84376
6.81275
6.77859
6.74198
6.70154
6.65802
6.6117
6.56255
6.51082
6.45764
6.40267
6.34581
6.28707
6.22641
6.16401
6.09983
6.03415
5.96695
5.89861
5.82906
5.75871
5.6876
5.61599
5.54396
5.47195
5.39982
5.32836
5.2577
5.1883
5.12021
5.0538
4.98913
4.92649
4.86594
4.80766
4.75168
4.69808
4.64687
4.59805
4.55156
4.50731
4.46517
4.42498
4.38661
4.35019
4.31628
4.28753
7.13877
7.06284
7.00654
6.96707
6.94771
6.93111
6.92973
6.93773
6.95409
6.974
6.99743
7.01984
7.04251
7.06132
7.07779
7.08801
7.09363
7.09115
7.08232
7.06462
7.03995
7.00615
6.96526
6.91669
6.86149
6.7992
6.73156
6.65882
6.58195
6.50167
6.4186
6.33351
6.24657
6.1586
6.06952
5.98019
5.89037
5.80098
5.71164
5.62324
5.5354
5.44888
5.3633
5.27953
5.1968
5.11642
5.03791
4.96198
4.88819
4.81717
4.74852
4.68277
4.6196
4.5594
4.50189
4.44717
4.3952
4.34591
4.29918
4.25485
4.21271
4.17267
4.13439
4.09783
4.06283
4.03001
4.00229
6.32266
6.32628
6.34769
6.38517
0.274408
0.273196
0.27199
0.27079
0.269596
0.268408
0.267228
0.266055
0.264889
0.263731
0.262582
0.261441
0.260309
0.259185
0.25807
0.256965
0.255869
0.254781
0.253704
0.252635
0.251575
0.250524
0.249481
0.248447
0.247421
0.246402
0.245391
0.244387
0.24339
0.242399
0.241415
0.240436
0.239463
0.238495
0.237532
0.236574
0.235621
0.234673
0.233728
0.232789
0.231854
0.230923
0.229997
0.229076
0.228159
0.227248
0.226341
0.22544
0.224545
0.223655
0.222771
0.221893
0.221021
0.220156
0.219297
0.218445
0.217599
0.21676
0.215928
0.215102
0.214284
0.213472
0.212667
0.21187
0.211078
0.210292
0.209511
0.208736
0.207967
0.207203
0.206445
0.205692
0.204945
0.204202
0.203465
0.202732
0.202017
0.274526
0.273317
0.272113
0.270916
0.269724
0.268539
0.267361
0.266189
0.265025
0.263868
0.26272
0.26158
0.260448
0.259325
0.258211
0.257105
0.256009
0.254922
0.253844
0.252775
0.251715
0.250664
0.249621
0.248587
0.24756
0.246542
0.24553
0.244526
0.243529
0.242539
0.241555
0.240576
0.239604
0.238636
0.237674
0.236717
0.235765
0.234817
0.233873
0.232935
0.232
0.231071
0.230146
0.229225
0.22831
0.227399
0.226493
0.225592
0.224697
0.223807
0.222923
0.222046
0.221174
0.220308
0.219449
0.218596
0.21775
0.216911
0.216078
0.215252
0.214433
0.213621
0.212816
0.212018
0.211225
0.210439
0.209658
0.208882
0.208113
0.207349
0.20659
0.205837
0.20509
0.204347
0.20361
0.202877
0.202163
0.274801
0.273595
0.272395
0.271201
0.270013
0.26883
0.267654
0.266485
0.265323
0.264168
0.263021
0.261883
0.260752
0.25963
0.258516
0.257411
0.256315
0.255228
0.25415
0.253081
0.252021
0.250969
0.249927
0.248892
0.247866
0.246847
0.245836
0.244832
0.243835
0.242845
0.241861
0.240883
0.23991
0.238944
0.237982
0.237026
0.236074
0.235127
0.234185
0.233247
0.232313
0.231385
0.23046
0.229541
0.228626
0.227716
0.226811
0.225911
0.225017
0.224127
0.223244
0.222366
0.221495
0.220629
0.21977
0.218917
0.218071
0.217231
0.216398
0.215572
0.214752
0.21394
0.213134
0.212335
0.211542
0.210755
0.209973
0.209197
0.208426
0.207662
0.206903
0.206149
0.205401
0.204659
0.203921
0.203188
0.202473
0.275305
0.274105
0.272911
0.271722
0.270538
0.26936
0.268188
0.267022
0.265863
0.264711
0.263567
0.26243
0.261301
0.26018
0.259067
0.257962
0.256867
0.25578
0.254702
0.253633
0.252573
0.251521
0.250478
0.249443
0.248416
0.247397
0.246385
0.24538
0.244383
0.243392
0.242407
0.241429
0.240456
0.239489
0.238527
0.237571
0.236619
0.235672
0.234729
0.233792
0.232859
0.23193
0.231006
0.230087
0.229173
0.228263
0.227359
0.226459
0.225565
0.224676
0.223793
0.222916
0.222045
0.22118
0.220321
0.219469
0.218622
0.217783
0.21695
0.216124
0.215304
0.214491
0.213686
0.212886
0.212093
0.211305
0.210523
0.209747
0.208976
0.208211
0.207451
0.206697
0.205949
0.205205
0.204467
0.203733
0.203017
0.276124
0.274932
0.273745
0.272562
0.271384
0.270211
0.269043
0.267881
0.266725
0.265576
0.264434
0.263299
0.262171
0.261051
0.259938
0.258834
0.257738
0.25665
0.255572
0.254501
0.25344
0.252386
0.251341
0.250305
0.249276
0.248254
0.24724
0.246234
0.245234
0.244241
0.243254
0.242274
0.2413
0.240331
0.239367
0.238409
0.237456
0.236507
0.235564
0.234625
0.233691
0.232761
0.231837
0.230917
0.230002
0.229092
0.228187
0.227287
0.226393
0.225504
0.224621
0.223744
0.222873
0.222008
0.221149
0.220296
0.21945
0.21861
0.217777
0.216951
0.216131
0.215318
0.214512
0.213712
0.212919
0.21213
0.211347
0.21057
0.209798
0.209032
0.208272
0.207517
0.206767
0.206023
0.205282
0.204547
0.20383
0.277283
0.276099
0.274919
0.273743
0.272571
0.271404
0.270241
0.269083
0.26793
0.266784
0.265644
0.26451
0.263383
0.262263
0.26115
0.260045
0.258948
0.257859
0.256778
0.255705
0.254641
0.253585
0.252536
0.251496
0.250464
0.249439
0.248421
0.247411
0.246407
0.24541
0.24442
0.243436
0.242458
0.241485
0.240518
0.239557
0.238601
0.237649
0.236703
0.235762
0.234825
0.233894
0.232968
0.232046
0.23113
0.230218
0.229312
0.228411
0.227516
0.226626
0.225742
0.224865
0.223993
0.223127
0.222268
0.221415
0.220569
0.219729
0.218895
0.218068
0.217248
0.216434
0.215627
0.214827
0.214032
0.213242
0.212458
0.21168
0.210907
0.210139
0.209377
0.20862
0.207868
0.207121
0.206379
0.205641
0.204921
0.278709
0.277535
0.276363
0.275195
0.27403
0.272869
0.271711
0.270558
0.26941
0.268267
0.267129
0.265998
0.264872
0.263752
0.262639
0.261534
0.260435
0.259344
0.258261
0.257186
0.256119
0.255059
0.254007
0.252963
0.251926
0.250897
0.249874
0.248859
0.247851
0.246849
0.245854
0.244866
0.243883
0.242906
0.241935
0.24097
0.240009
0.239054
0.238105
0.23716
0.236221
0.235287
0.234358
0.233434
0.232516
0.231602
0.230695
0.229792
0.228896
0.228005
0.22712
0.226242
0.225369
0.224503
0.223644
0.22279
0.221943
0.221103
0.220269
0.219441
0.21862
0.217806
0.216998
0.216197
0.2154
0.21461
0.213824
0.213044
0.212269
0.2115
0.210736
0.209976
0.209222
0.208472