/*--------------------------------*- C++ -*----------------------------------*\
  =========                 |
  \\      /  F ield         | OpenFOAM: The Open Source CFD Toolbox
   \\    /   O peration     | Website:  https://openfoam.org
    \\  /    A nd           | Version:  13
     \\/     M anipulation  |
\*---------------------------------------------------------------------------*/
FoamFile
{
    format      ascii;
    class       volScalarField;
    location    "600";
    object      nut;
}
// * * * * * * * * * * * * * * * * * * * * * * * * * * * * * * * * * * * * * //

dimensions      [0 2 -1 0 0 0 0];

internalField   nonuniform List<scalar> 
172836
(
0.0176193
0.017609
0.0175988
0.0175886
0.0175784
0.0175683
0.0175582
0.0175482
0.0176354
0.0176251
0.0176149
0.0176048
0.0175947
0.0175846
0.0175746
0.0175647
0.0176827
0.0176724
0.0176622
0.0176521
0.017642
0.017632
0.017622
0.0176121
0.0176022
0.0177505
0.0177404
0.0177302
0.0177201
0.0177101
0.0177001
0.0176902
0.0176803
0.0176704
0.0178595
0.0178493
0.0178391
0.017829
0.0178189
0.0178088
0.0177988
0.0177888
0.0177789
0.0180165
0.0180061
0.0179958
0.0179854
0.0179751
0.0179649
0.0179546
0.0179444
0.0179342
0.0182229
0.0182123
0.0182017
0.0181911
0.0181805
0.0181699
0.0181594
0.0181488
0.0181382
0.0184741
0.0184633
0.0184525
0.0184417
0.0184309
0.0184201
0.0184092
0.0183984
0.0183875
0.0187393
0.0187287
0.018718
0.0187073
0.0186966
0.0186858
0.018675
0.0186641
0.0176441
0.0176336
0.0176231
0.0176127
0.0176024
0.0175921
0.0175818
0.0175716
0.0175615
0.0175514
0.0175414
0.0175314
0.017522
0.0176597
0.0176492
0.0176388
0.0176284
0.0176181
0.0176079
0.0175977
0.0175876
0.0175775
0.0175675
0.0175575
0.0175476
0.0175382
0.0176959
0.0176855
0.0176751
0.0176649
0.0176546
0.0176445
0.0176344
0.0176243
0.0176143
0.0176044
0.0175945
0.0175846
0.0175753
0.0177628
0.0177525
0.0177422
0.017732
0.0177218
0.0177117
0.0177017
0.0176917
0.0176817
0.0176718
0.017662
0.0176521
0.0176429
0.0178709
0.0178605
0.0178503
0.0178401
0.0178299
0.0178197
0.0178097
0.0177996
0.0177896
0.0177797
0.0177697
0.0177598
0.0177505
0.0180273
0.0180169
0.0180065
0.0179961
0.0179858
0.0179755
0.0179653
0.0179551
0.0179449
0.0179347
0.0179245
0.0179144
0.0179048
0.0182334
0.0182228
0.0182123
0.0182017
0.0181912
0.0181807
0.0181701
0.0181596
0.0181491
0.0181386
0.0181281
0.0181176
0.0181077
0.018484
0.0184733
0.0184627
0.018452
0.0184413
0.0184306
0.0184199
0.0184092
0.0183984
0.0183877
0.0183769
0.018366
0.0183558
0.0187577
0.0187474
0.018737
0.0187265
0.018716
0.0187055
0.0186949
0.0186843
0.0186736
0.0186629
0.0186521
0.0186412
0.018631
0.0189017
0.0184044
0.0183915
0.0183785
0.0183654
0.0183524
0.0183392
0.018326
0.0183129
0.0182997
0.0182866
0.0182735
0.0182605
0.0182475
0.0182346
0.0182218
0.018209
0.0181964
0.0181838
0.0181714
0.0181591
0.0181468
0.0181347
0.0181227
0.0181107
0.0180988
0.018087
0.0180752
0.0180635
0.0180518
0.0180402
0.0180286
0.018017
0.0180054
0.0179938
0.0179822
0.0179705
0.0179588
0.0179472
0.0179354
0.0179237
0.0179119
0.0179001
0.0178883
0.0178765
0.0178647
0.0178528
0.017841
0.0178292
0.0178174
0.0178056
0.0177939
0.0177822
0.0177706
0.0177591
0.0177476
0.0177362
0.0177249
0.0177136
0.0177025
0.0176914
0.0176804
0.0176695
0.0176588
0.0176481
0.0176375
0.0176269
0.0176164
0.017606
0.0175956
0.0175853
0.017575
0.0175648
0.0175547
0.0175446
0.0175345
0.0175245
0.0175151
0.0184133
0.0184006
0.0183878
0.0183749
0.018362
0.018349
0.018336
0.018323
0.01831
0.0182969
0.018284
0.0182711
0.0182582
0.0182454
0.0182326
0.01822
0.0182074
0.0181949
0.0181826
0.0181703
0.0181582
0.0181461
0.0181342
0.0181223
0.0181105
0.0180987
0.018087
0.0180754
0.0180638
0.0180523
0.0180407
0.0180292
0.0180177
0.0180062
0.0179947
0.0179832
0.0179716
0.01796
0.0179484
0.0179368
0.0179251
0.0179134
0.0179017
0.01789
0.0178783
0.0178665
0.0178548
0.0178431
0.0178314
0.0178197
0.0178081
0.0177965
0.017785
0.0177735
0.0177621
0.0177508
0.0177395
0.0177284
0.0177173
0.0177063
0.0176954
0.0176846
0.0176739
0.0176633
0.0176527
0.0176422
0.0176318
0.0176214
0.0176111
0.0176008
0.0175906
0.0175805
0.0175704
0.0175604
0.0175504
0.0175404
0.0175311
0.0184379
0.0184255
0.0184131
0.0184006
0.018388
0.0183753
0.0183626
0.0183499
0.0183371
0.0183243
0.0183116
0.0182989
0.0182862
0.0182736
0.018261
0.0182485
0.0182361
0.0182238
0.0182115
0.0181994
0.0181874
0.0181755
0.0181636
0.0181519
0.0181402
0.0181286
0.018117
0.0181055
0.0180941
0.0180827
0.0180713
0.0180599
0.0180485
0.0180372
0.0180258
0.0180144
0.0180031
0.0179916
0.0179802
0.0179687
0.0179572
0.0179457
0.0179342
0.0179226
0.0179111
0.0178995
0.017888
0.0178764
0.0178649
0.0178534
0.0178419
0.0178305
0.0178191
0.0178078
0.0177965
0.0177853
0.0177742
0.0177631
0.0177522
0.0177413
0.0177305
0.0177198
0.0177092
0.0176987
0.0176882
0.0176778
0.0176675
0.0176572
0.017647
0.0176368
0.0176267
0.0176167
0.0176067
0.0175967
0.0175868
0.0175769
0.0175677
0.018492
0.0184802
0.0184684
0.0184564
0.0184443
0.0184321
0.0184198
0.0184074
0.018395
0.0183826
0.0183701
0.0183577
0.0183452
0.0183328
0.0183203
0.018308
0.0182957
0.0182835
0.0182714
0.0182594
0.0182475
0.0182356
0.0182239
0.0182122
0.0182006
0.0181891
0.0181776
0.0181662
0.0181548
0.0181435
0.0181322
0.0181209
0.0181096
0.0180984
0.0180871
0.0180759
0.0180646
0.0180533
0.018042
0.0180307
0.0180194
0.018008
0.0179967
0.0179853
0.0179739
0.0179626
0.0179512
0.0179398
0.0179285
0.0179171
0.0179058
0.0178946
0.0178834
0.0178722
0.0178611
0.0178501
0.0178391
0.0178283
0.0178174
0.0178067
0.017796
0.0177855
0.017775
0.0177646
0.0177542
0.0177439
0.0177337
0.0177235
0.0177134
0.0177033
0.0176932
0.0176833
0.0176733
0.0176634
0.0176536
0.0176437
0.0176345
0.0185936
0.0185826
0.0185714
0.01856
0.0185484
0.0185367
0.0185248
0.0185129
0.0185007
0.0184886
0.0184763
0.018464
0.0184516
0.0184393
0.0184269
0.0184145
0.0184022
0.01839
0.0183778
0.0183657
0.0183537
0.0183417
0.0183298
0.018318
0.0183063
0.0182946
0.0182831
0.0182715
0.01826
0.0182486
0.0182372
0.0182258
0.0182145
0.0182032
0.0181919
0.0181806
0.0181693
0.018158
0.0181467
0.0181354
0.0181241
0.0181128
0.0181015
0.0180902
0.0180789
0.0180676
0.0180563
0.0180451
0.0180339
0.0180227
0.0180115
0.0180004
0.0179893
0.0179783
0.0179673
0.0179564
0.0179456
0.0179348
0.0179241
0.0179134
0.0179029
0.0178924
0.017882
0.0178716
0.0178613
0.0178511
0.0178408
0.0178307
0.0178205
0.0178104
0.0178004
0.0177904
0.0177804
0.0177705
0.0177606
0.0177507
0.0177414
0.0187554
0.018745
0.0187344
0.0187235
0.0187123
0.0187009
0.0186893
0.0186775
0.0186656
0.0186535
0.0186412
0.0186289
0.0186164
0.0186039
0.0185913
0.0185787
0.0185661
0.0185535
0.018541
0.0185285
0.0185161
0.0185038
0.0184915
0.0184792
0.0184671
0.018455
0.0184429
0.018431
0.0184191
0.0184072
0.0183954
0.0183837
0.018372
0.0183603
0.0183487
0.0183371
0.0183256
0.0183141
0.0183026
0.0182911
0.0182796
0.0182682
0.0182568
0.0182454
0.0182341
0.0182228
0.0182115
0.0182002
0.018189
0.0181778
0.0181667
0.0181556
0.0181446
0.0181336
0.0181227
0.0181119
0.0181011
0.0180903
0.0180797
0.018069
0.0180585
0.018048
0.0180376
0.0180272
0.0180168
0.0180065
0.0179962
0.0179859
0.0179757
0.0179655
0.0179553
0.0179451
0.017935
0.0179249
0.0179147
0.0179046
0.0178951
0.0189738
0.018964
0.0189538
0.0189432
0.0189324
0.0189212
0.0189098
0.0188981
0.0188862
0.0188741
0.0188617
0.0188493
0.0188366
0.0188238
0.0188109
0.018798
0.018785
0.018772
0.018759
0.018746
0.0187331
0.0187202
0.0187073
0.0186944
0.0186817
0.018669
0.0186563
0.0186437
0.0186312
0.0186188
0.0186064
0.0185941
0.0185819
0.0185697
0.0185576
0.0185456
0.0185336
0.0185217
0.0185098
0.018498
0.0184863
0.0184746
0.018463
0.0184515
0.01844
0.0184285
0.0184171
0.0184058
0.0183946
0.0183834
0.0183722
0.0183611
0.0183501
0.0183392
0.0183283
0.0183175
0.0183067
0.018296
0.0182853
0.0182747
0.0182641
0.0182535
0.0182431
0.0182326
0.0182222
0.0182117
0.0182013
0.0181909
0.0181805
0.01817
0.0181596
0.0181492
0.0181388
0.0181284
0.0181179
0.0181075
0.0180976
0.0192224
0.0192133
0.0192038
0.0191939
0.0191837
0.0191731
0.0191622
0.0191509
0.0191394
0.0191276
0.0191156
0.0191034
0.019091
0.0190784
0.0190656
0.0190527
0.0190397
0.0190267
0.0190136
0.0190004
0.0189873
0.0189741
0.018961
0.0189478
0.0189347
0.0189216
0.0189086
0.0188956
0.0188827
0.0188699
0.0188571
0.0188445
0.0188319
0.0188194
0.018807
0.0187946
0.0187824
0.0187702
0.0187582
0.0187462
0.0187343
0.0187225
0.0187108
0.0186992
0.0186877
0.0186763
0.018665
0.0186537
0.0186425
0.0186314
0.0186204
0.0186094
0.0185986
0.0185878
0.018577
0.0185663
0.0185557
0.0185451
0.0185346
0.0185241
0.0185136
0.0185031
0.0184927
0.0184823
0.0184719
0.0184614
0.0184509
0.0184404
0.0184299
0.0184193
0.0184087
0.0183981
0.0183874
0.0183768
0.018366
0.0183553
0.0183451
0.0194583
0.0194505
0.0194422
0.0194335
0.0194245
0.019415
0.0194052
0.019395
0.0193846
0.0193738
0.0193628
0.0193515
0.01934
0.0193283
0.0193163
0.0193043
0.019292
0.0192796
0.0192672
0.0192546
0.019242
0.0192294
0.0192167
0.0192039
0.0191912
0.0191785
0.0191658
0.0191532
0.0191406
0.019128
0.0191156
0.0191032
0.0190908
0.0190786
0.0190665
0.0190544
0.0190425
0.0190306
0.0190189
0.0190072
0.0189957
0.0189843
0.018973
0.0189618
0.0189507
0.0189397
0.0189288
0.018918
0.0189073
0.0188966
0.0188861
0.0188757
0.0188653
0.018855
0.0188448
0.0188346
0.0188245
0.0188144
0.0188043
0.0187943
0.0187842
0.0187742
0.0187642
0.0187541
0.0187441
0.0187339
0.0187237
0.0187135
0.0187031
0.0186927
0.0186823
0.0186718
0.0186612
0.0186506
0.0186399
0.0186291
0.018619
0.0196566
0.0196504
0.0196436
0.0196365
0.0196289
0.019621
0.0196126
0.0196039
0.0195948
0.0195855
0.0195758
0.0195659
0.0195557
0.0195452
0.0195345
0.0195237
0.0195126
0.0195014
0.0194901
0.0194786
0.0194671
0.0194554
0.0194437
0.019432
0.0194202
0.0194084
0.0193966
0.0193848
0.0193731
0.0193614
0.0193498
0.0193382
0.0193267
0.0193152
0.0193039
0.0192927
0.0192815
0.0192705
0.0192595
0.0192487
0.0192379
0.0192273
0.0192168
0.0192064
0.0191962
0.019186
0.0191759
0.019166
0.0191561
0.0191463
0.0191366
0.019127
0.0191175
0.0191081
0.0190987
0.0190894
0.0190801
0.0190708
0.0190615
0.0190523
0.0190431
0.0190338
0.0190246
0.0190153
0.0190059
0.0189964
0.0189869
0.0189773
0.0189675
0.0189577
0.0189477
0.0189378
0.0189277
0.0189175
0.0189073
0.018897
0.0188873
0.0198174
0.0198128
0.0198077
0.0198022
0.0197962
0.0197898
0.019783
0.0197758
0.0197682
0.0197603
0.019752
0.0197435
0.0197346
0.0197255
0.0197161
0.0197065
0.0196967
0.0196867
0.0196766
0.0196663
0.0196559
0.0196454
0.0196348
0.0196242
0.0196135
0.0196028
0.019592
0.0195813
0.0195706
0.0195599
0.0195492
0.0195387
0.0195281
0.0195177
0.0195073
0.0194971
0.0194869
0.0194768
0.0194669
0.019457
0.0194472
0.0194376
0.0194281
0.0194187
0.0194094
0.0194002
0.0193911
0.0193821
0.0193732
0.0193644
0.0193557
0.0193471
0.0193386
0.0193301
0.0193217
0.0193134
0.0193051
0.0192968
0.0192885
0.0192802
0.0192719
0.0192636
0.0192552
0.0192468
0.0192383
0.0192298
0.0192211
0.0192123
0.0192034
0.0191943
0.0191852
0.019176
0.0191667
0.0191573
0.0191478
0.0191382
0.0191292
0.0199517
0.0199489
0.0199454
0.0199415
0.0199371
0.0199322
0.0199269
0.0199211
0.019915
0.0199084
0.0199015
0.0198942
0.0198866
0.0198787
0.0198705
0.019862
0.0198533
0.0198444
0.0198353
0.019826
0.0198166
0.0198071
0.0197975
0.0197877
0.0197779
0.0197681
0.0197583
0.0197484
0.0197385
0.0197287
0.0197189
0.0197092
0.0196996
0.01969
0.0196805
0.0196711
0.0196619
0.0196527
0.0196436
0.0196347
0.0196259
0.0196172
0.0196086
0.0196001
0.0195918
0.0195836
0.0195755
0.0195675
0.0195596
0.0195518
0.0195441
0.0195365
0.019529
0.0195215
0.0195141
0.0195067
0.0194994
0.0194921
0.0194848
0.0194775
0.0194702
0.0194628
0.0194554
0.019448
0.0194404
0.0194328
0.019425
0.019417
0.019409
0.0194008
0.0193925
0.0193841
0.0193755
0.0193669
0.0193582
0.0193494
0.0193411
0.0200721
0.020071
0.0200693
0.020067
0.0200641
0.0200608
0.0200569
0.0200525
0.0200477
0.0200425
0.0200368
0.0200307
0.0200242
0.0200173
0.0200101
0.0200025
0.0199947
0.0199866
0.0199783
0.0199698
0.0199612
0.0199523
0.0199433
0.0199343
0.0199251
0.0199159
0.0199066
0.0198974
0.0198881
0.0198789
0.0198697
0.0198606
0.0198516
0.0198427
0.0198338
0.0198251
0.0198165
0.0198081
0.0197998
0.0197916
0.0197835
0.0197756
0.0197679
0.0197603
0.0197528
0.0197455
0.0197383
0.0197312
0.0197242
0.0197173
0.0197106
0.0197039
0.0196974
0.0196909
0.0196844
0.019678
0.0196717
0.0196653
0.019659
0.0196526
0.0196462
0.0196398
0.0196333
0.0196267
0.01962
0.0196132
0.0196063
0.0195992
0.0195919
0.0195845
0.0195769
0.0195692
0.0195614
0.0195534
0.0195454
0.0195372
0.0195295
0.0201897
0.0201904
0.0201905
0.0201899
0.0201887
0.0201869
0.0201845
0.0201816
0.0201781
0.0201741
0.0201696
0.0201646
0.0201591
0.0201531
0.0201467
0.0201399
0.0201328
0.0201253
0.0201176
0.0201096
0.0201013
0.0200929
0.0200842
0.0200755
0.0200666
0.0200576
0.0200486
0.0200396
0.0200306
0.0200216
0.0200127
0.0200039
0.0199951
0.0199866
0.0199781
0.0199698
0.0199616
0.0199537
0.0199459
0.0199382
0.0199308
0.0199235
0.0199165
0.0199096
0.0199029
0.0198963
0.01989
0.0198837
0.0198776
0.0198717
0.0198659
0.0198601
0.0198545
0.019849
0.0198435
0.0198381
0.0198327
0.0198273
0.0198219
0.0198165
0.019811
0.0198054
0.0197998
0.019794
0.0197882
0.0197821
0.0197759
0.0197695
0.0197628
0.019756
0.019749
0.0197418
0.0197345
0.0197271
0.0197195
0.0197118
0.0197045
0.0203133
0.0203161
0.0203181
0.0203194
0.0203199
0.0203198
0.020319
0.0203176
0.0203155
0.0203128
0.0203094
0.0203055
0.0203009
0.0202958
0.0202901
0.0202839
0.0202773
0.0202702
0.0202628
0.0202551
0.020247
0.0202386
0.02023
0.0202212
0.0202123
0.0202033
0.0201942
0.0201851
0.0201759
0.0201669
0.0201579
0.020149
0.0201403
0.0201317
0.0201234
0.0201152
0.0201072
0.0200995
0.020092
0.0200847
0.0200777
0.020071
0.0200645
0.0200582
0.0200522
0.0200463
0.0200407
0.0200353
0.0200301
0.020025
0.0200201
0.0200153
0.0200107
0.0200061
0.0200016
0.0199972
0.0199927
0.0199883
0.0199838
0.0199793
0.0199747
0.01997
0.0199652
0.0199602
0.0199551
0.0199497
0.0199441
0.0199382
0.019932
0.0199257
0.019919
0.0199122
0.0199052
0.019898
0.0198907
0.0198832
0.019876
0.0204503
0.0204554
0.0204595
0.0204628
0.0204653
0.020467
0.0204679
0.0204681
0.0204675
0.0204662
0.0204641
0.0204612
0.0204576
0.0204532
0.0204482
0.0204425
0.0204362
0.0204294
0.0204221
0.0204143
0.0204061
0.0203975
0.0203886
0.0203795
0.0203701
0.0203606
0.020351
0.0203414
0.0203318
0.0203222
0.0203128
0.0203035
0.0202944
0.0202855
0.0202769
0.0202686
0.0202606
0.0202528
0.0202454
0.0202384
0.0202316
0.0202252
0.0202192
0.0202134
0.020208
0.0202029
0.020198
0.0201934
0.0201891
0.0201849
0.020181
0.0201772
0.0201736
0.0201701
0.0201667
0.0201633
0.0201599
0.0201565
0.020153
0.0201494
0.0201457
0.0201418
0.0201378
0.0201336
0.0201291
0.0201243
0.0201191
0.0201136
0.0201078
0.0201016
0.0200951
0.0200884
0.0200814
0.0200742
0.0200668
0.0200591
0.0200519
0.0206055
0.0206131
0.0206195
0.0206249
0.0206294
0.020633
0.0206357
0.0206376
0.0206386
0.0206386
0.0206378
0.020636
0.0206334
0.0206298
0.0206253
0.0206201
0.020614
0.0206073
0.0205999
0.0205918
0.0205833
0.0205742
0.0205647
0.0205549
0.0205448
0.0205344
0.020524
0.0205135
0.0205031
0.0204927
0.0204824
0.0204723
0.0204626
0.0204531
0.0204439
0.0204351
0.0204267
0.0204187
0.0204112
0.0204041
0.0203974
0.0203912
0.0203854
0.0203801
0.0203752
0.0203707
0.0203665
0.0203627
0.0203592
0.020356
0.0203531
0.0203503
0.0203478
0.0203453
0.020343
0.0203407
0.0203383
0.020336
0.0203335
0.0203308
0.020328
0.020325
0.0203217
0.020318
0.020314
0.0203096
0.0203048
0.0202995
0.0202937
0.0202876
0.020281
0.020274
0.0202668
0.0202592
0.0202514
0.0202433
0.0202355
0.0207806
0.0207904
0.020799
0.0208064
0.0208128
0.0208182
0.0208225
0.020826
0.0208284
0.0208298
0.0208302
0.0208295
0.0208278
0.0208249
0.020821
0.0208161
0.0208102
0.0208035
0.0207958
0.0207874
0.0207782
0.0207684
0.020758
0.0207472
0.020736
0.0207245
0.0207128
0.0207011
0.0206894
0.0206777
0.0206663
0.020655
0.0206442
0.0206336
0.0206236
0.0206139
0.0206048
0.0205963
0.0205883
0.0205808
0.0205739
0.0205677
0.0205619
0.0205568
0.0205522
0.0205481
0.0205445
0.0205413
0.0205385
0.0205361
0.0205341
0.0205323
0.0205307
0.0205292
0.0205279
0.0205266
0.0205252
0.0205238
0.0205222
0.0205204
0.0205183
0.0205159
0.0205131
0.0205099
0.0205062
0.020502
0.0204972
0.0204918
0.0204859
0.0204794
0.0204725
0.020465
0.0204572
0.020449
0.0204405
0.0204316
0.020423
0.0209695
0.0209806
0.0209902
0.0209985
0.0210058
0.021012
0.0210172
0.0210215
0.0210248
0.0210271
0.0210283
0.0210284
0.0210273
0.0210251
0.0210218
0.0210173
0.0210118
0.0210051
0.0209974
0.0209886
0.020979
0.0209685
0.0209573
0.0209455
0.0209331
0.0209204
0.0209075
0.0208944
0.0208813
0.0208682
0.0208553
0.0208427
0.0208304
0.0208186
0.0208072
0.0207964
0.0207861
0.0207765
0.0207676
0.0207593
0.0207517
0.0207448
0.0207386
0.0207331
0.0207282
0.0207239
0.0207202
0.0207171
0.0207144
0.0207122
0.0207104
0.0207089
0.0207077
0.0207067
0.0207058
0.0207049
0.020704
0.020703
0.0207017
0.0207002
0.0206984
0.0206961
0.0206935
0.0206902
0.0206864
0.020682
0.020677
0.0206713
0.020665
0.0206581
0.0206507
0.0206427
0.0206343
0.0206254
0.0206161
0.0206064
0.020597
0.0211472
0.0211566
0.0211645
0.0211712
0.0211769
0.0211817
0.0211857
0.021189
0.0211916
0.0211934
0.0211944
0.0211946
0.0211939
0.0211924
0.0211899
0.0211864
0.0211819
0.0211762
0.0211692
0.0211611
0.0211519
0.0211416
0.0211304
0.0211184
0.0211058
0.0210925
0.0210789
0.021065
0.0210509
0.0210367
0.0210226
0.0210086
0.0209949
0.0209816
0.0209687
0.0209563
0.0209444
0.0209331
0.0209224
0.0209124
0.0209031
0.0208945
0.0208866
0.0208794
0.0208729
0.020867
0.0208618
0.0208571
0.020853
0.0208494
0.0208463
0.0208436
0.0208411
0.020839
0.020837
0.0208351
0.0208331
0.0208311
0.020829
0.0208266
0.0208239
0.0208208
0.0208173
0.0208134
0.0208089
0.020804
0.0207984
0.0207925
0.0207861
0.0207792
0.0207718
0.0207639
0.0207556
0.0207469
0.0207377
0.020728
0.0207185
0.0212542
0.021256
0.0212565
0.0212559
0.0212545
0.0212527
0.0212507
0.0212488
0.0212469
0.0212453
0.0212439
0.0212427
0.0212418
0.021241
0.0212403
0.0212395
0.0212383
0.0212363
0.021233
0.0212285
0.0212228
0.0212159
0.0212078
0.0211987
0.0211886
0.0211776
0.0211659
0.0211535
0.0211405
0.021127
0.0211132
0.0210992
0.021085
0.0210707
0.0210564
0.0210422
0.0210282
0.0210144
0.0210009
0.0209876
0.0209748
0.0209623
0.0209503
0.0209388
0.0209277
0.0209172
0.0209071
0.0208975
0.0208883
0.0208797
0.0208715
0.0208637
0.0208564
0.0208494
0.0208427
0.0208362
0.02083
0.020824
0.0208181
0.0208122
0.0208064
0.0208006
0.0207948
0.0207889
0.0207832
0.0207776
0.0207724
0.0207671
0.020762
0.020757
0.020752
0.0207469
0.0207416
0.020736
0.0207299
0.0207234
0.0207166
0.0211583
0.0211389
0.0211189
0.0210991
0.0210799
0.0210621
0.0210461
0.0210324
0.0210213
0.0210132
0.0210082
0.0210063
0.0210075
0.0210114
0.0210176
0.0210254
0.0210337
0.0210416
0.0210484
0.0210539
0.0210581
0.0210609
0.0210621
0.0210619
0.0210601
0.0210568
0.021052
0.0210456
0.0210378
0.0210286
0.021018
0.0210061
0.0209929
0.0209787
0.0209633
0.020947
0.0209297
0.0209116
0.0208928
0.0208733
0.0208533
0.0208329
0.0208121
0.0207911
0.0207699
0.0207486
0.0207274
0.0207063
0.0206854
0.0206648
0.0206446
0.020625
0.0206058
0.0205874
0.0205696
0.0205527
0.0205366
0.0205215
0.0205074
0.0204945
0.0204825
0.0204718
0.0204629
0.0204557
0.0204505
0.0204473
0.0204463
0.0204471
0.0204494
0.0204531
0.0204577
0.0204629
0.0204682
0.0204731
0.0204773
0.0204804
0.0206419
0.0205792
0.0205169
0.020457
0.0204007
0.0203493
0.020304
0.0202659
0.0202361
0.0202151
0.0202037
0.0202018
0.0202092
0.0202253
0.0202488
0.0202783
0.0203117
0.0203472
0.020382
0.0204158
0.0204481
0.0204785
0.0205067
0.0205322
0.0205549
0.0205744
0.0205906
0.0206032
0.0206121
0.0206172
0.0206184
0.0206158
0.0206094
0.0205991
0.0205851
0.0205675
0.0205463
0.0205218
0.0204941
0.0204635
0.02043
0.020394
0.0203557
0.0203154
0.0202733
0.0202297
0.0201849
0.0201393
0.0200931
0.0200468
0.0200006
0.019955
0.0199104
0.0198673
0.0198259
0.0197867
0.0197503
0.0197169
0.0196871
0.0196614
0.0196395
0.0196227
0.0196115
0.0196067
0.0196085
0.0196169
0.0196313
0.0196514
0.0196762
0.0197049
0.0197364
0.0197696
0.0198035
0.0198367
0.0198684
0.0198969
0.019202
0.0190691
0.0189424
0.018826
0.0187217
0.0186316
0.0185576
0.0185016
0.018465
0.0184485
0.0184525
0.0184764
0.0185189
0.018578
0.0186507
0.0187337
0.0188236
0.0189151
0.0190062
0.0190957
0.0191827
0.0192663
0.0193454
0.0194193
0.0194871
0.0195481
0.0196017
0.0196475
0.0196849
0.0197137
0.0197337
0.0197447
0.0197467
0.0197398
0.0197241
0.0196997
0.0196669
0.019626
0.0195774
0.0195216
0.0194589
0.01939
0.0193155
0.019236
0.0191523
0.0190651
0.0189754
0.0188841
0.0187921
0.0187008
0.0186112
0.0185248
0.0184428
0.0183667
0.0182979
0.0182382
0.0181886
0.0181508
0.0181262
0.0181156
0.0181206
0.0181422
0.0181799
0.0182329
0.0182995
0.0183783
0.0184668
0.0185626
0.0186633
0.0187665
0.01887
0.0189717
0.0190697
0.0191621
0.0192472
0.0164411
0.0162475
0.0160697
0.0159148
0.0157846
0.0156811
0.0156063
0.0155618
0.0155488
0.0155676
0.0156177
0.0156978
0.0158054
0.015937
0.0160883
0.0162538
0.016429
0.0166063
0.016784
0.0169599
0.0171322
0.0172986
0.0174571
0.0176057
0.0177428
0.0178669
0.0179766
0.018071
0.018149
0.0182101
0.0182538
0.0182797
0.0182879
0.0182783
0.0182514
0.0182076
0.0181475
0.018072
0.0179821
0.0178793
0.0177651
0.0176413
0.01751
0.0173736
0.0172348
0.0170966
0.0169623
0.0168351
0.0167188
0.0166168
0.0165329
0.0164702
0.0164324
0.0164221
0.0164418
0.0164942
0.0165801
0.0167001
0.0168572
0.0170468
0.0172635
0.0175022
0.0177572
0.0180236
0.018296
0.0185701
0.0188422
0.0191088
0.0193675
0.0196162
0.0198536
0.0200788
0.0202921
0.0204946
0.0127244
0.0125538
0.0124124
0.0123007
0.0122187
0.0121667
0.0121449
0.0121531
0.0121916
0.0122605
0.0123598
0.0124892
0.0126475
0.0128332
0.0130427
0.0132739
0.0135182
0.0137711
0.0140291
0.0142885
0.0145454
0.0147959
0.0150362
0.0152627
0.015472
0.0156613
0.0158278
0.0159695
0.0160847
0.0161725
0.0162323
0.0162642
0.0162691
0.0162484
0.0162046
0.0161407
0.0160608
0.0159696
0.0158727
0.0157759
0.0156858
0.0156087
0.0155512
0.0155193
0.0155185
0.0155536
0.0156287
0.0157468
0.0159104
0.0161209
0.0163789
0.016685
0.0170374
0.0174356
0.0178787
0.0183609
0.0188825
0.0194422
0.0200252
0.0206195
0.0212145
0.0218029
0.0223783
0.0229369
0.0234751
0.0239912
0.0244844
0.0249553
0.0254051
0.0258363
0.0262522
0.0266567
0.0270559
0.00972952
0.00971907
0.00973965
0.00978567
0.00985042
0.00992675
0.0100081
0.0100896
0.0101689
0.0102458
0.0103226
0.0104034
0.0104937
0.0105992
0.010726
0.0108782
0.0110612
0.0112736
0.01151
0.0117649
0.0120325
0.0123068
0.0125818
0.0128518
0.0131116
0.0133568
0.0135842
0.0137918
0.0139792
0.014148
0.0143015
0.0144447
0.0145842
0.0147279
0.0148841
0.0150611
0.0152667
0.0155076
0.0157894
0.016116
0.0164899
0.0169125
0.0173841
0.017904
0.0184709
0.0190834
0.0197393
0.0204365
0.0211729
0.0219454
0.022752
0.0235896
0.0244536
0.0253436
0.0262543
0.027177
0.0281183
0.0290659
0.0300039
0.0309205
0.0318091
0.0326643
0.0334841
0.0342667
0.0350133
0.0357258
0.036407
0.0370607
0.0376915
0.038305
0.0389073
0.0395074
0.0401046
0.0088907
0.00928815
0.00973043
0.0101809
0.010616
0.0110116
0.0113479
0.0116107
0.0117939
0.0118979
0.0119296
0.0119011
0.0118276
0.0117275
0.0116188
0.0115215
0.011452
0.0114258
0.0114632
0.0115555
0.0116963
0.0118804
0.0121043
0.0123662
0.0126665
0.0130073
0.0133928
0.0138285
0.0143199
0.0148725
0.01549
0.0161743
0.0169249
0.0177391
0.0186124
0.0195386
0.0205114
0.0215238
0.0225694
0.0236426
0.0247382
0.0258523
0.0269815
0.0281235
0.0292764
0.0304387
0.031609
0.0327865
0.0339697
0.0351567
0.0363468
0.0375359
0.038722
0.0399042
0.0410732
0.0422279
0.043372
0.0444823
0.0455526
0.0465795
0.0475603
0.0484954
0.0493849
0.0502318
0.0510383
0.0518079
0.0525451
0.0532548
0.0539429
0.0546156
0.0552813
0.0559501
0.056607
0.0129764
0.0142614
0.015519
0.016658
0.0176312
0.0184027
0.0189551
0.0192873
0.0194124
0.0193539
0.0191436
0.018818
0.0184167
0.0179783
0.0175388
0.0171387
0.0168011
0.0165832
0.0164932
0.0165281
0.0166918
0.0169924
0.0174335
0.0180204
0.0187558
0.0196384
0.0206616
0.0218138
0.023079
0.0244381
0.0258706
0.0273563
0.0288763
0.0304141
0.0319564
0.033493
0.0350164
0.0365221
0.0380074
0.0394716
0.0409151
0.0423389
0.0437446
0.0451337
0.0465074
0.0478671
0.0492126
0.0505429
0.0518586
0.0531558
0.0544312
0.0556875
0.0569131
0.058103
0.0592741
0.0603911
0.061455
0.0624669
0.063427
0.0643376
0.0651997
0.0660164
0.0667897
0.0675237
0.0682226
0.0688912
0.0695345
0.0701587
0.0707706
0.0713788
0.0719966
0.0725928
0.0260192
0.0284568
0.0305308
0.0321705
0.0333774
0.0341713
0.0345913
0.0346874
0.0345147
0.0341322
0.0335974
0.0329676
0.0322902
0.0316296
0.0310278
0.0305627
0.0302209
0.0300264
0.0300076
0.0301811
0.0305572
0.0311386
0.0319213
0.0328943
0.0340414
0.0353415
0.03677
0.0382996
0.0399037
0.0415574
0.0432382
0.0449264
0.0466068
0.048268
0.0499013
0.0515017
0.0530666
0.0545956
0.0560902
0.0575525
0.0589851
0.0603905
0.0617708
0.0631275
0.064461
0.0657704
0.0670558
0.0683137
0.0695404
0.0707382
0.0718961
0.0730093
0.0740924
0.0751154
0.0760783
0.0769857
0.0778405
0.0786459
0.079403
0.0801155
0.0807855
0.0814174
0.0820147
0.0825817
0.0831232
0.0836448
0.084152
0.0846514
0.085153
0.0856683
0.0861582
0.048276
0.0506006
0.0522837
0.0534224
0.0541042
0.054401
0.0543836
0.05411
0.0536398
0.0530338
0.0523302
0.0515963
0.0508503
0.0501996
0.0495988
0.0491105
0.0487996
0.0486704
0.0487222
0.0489462
0.0493706
0.0500004
0.050824
0.0518236
0.0529777
0.0542591
0.0556236
0.0570522
0.0585295
0.0600353
0.0615495
0.0630759
0.0646033
0.0661039
0.0675712
0.0690024
0.0703973
0.0717573
0.0730844
0.0743811
0.0756489
0.0768893
0.0781025
0.0792878
0.0804444
0.0815697
0.0826597
0.0837149
0.0847279
0.085693
0.0866192
0.0874898
0.088299
0.0890537
0.0897583
0.0904163
0.0910297
0.0916023
0.0921365
0.0926364
0.0931051
0.0935472
0.0939669
0.0943687
0.0947575
0.0951382
0.0955164
0.0959006
0.0963016
0.0966757
0.0681861
0.0693674
0.0701091
0.0705123
0.0706371
0.0705381
0.070256
0.0698343
0.0693309
0.0687419
0.0681558
0.0675353
0.0668365
0.0661939
0.0656749
0.0653229
0.0651616
0.0651988
0.0654348
0.0658654
0.0664811
0.0672607
0.0681839
0.0692265
0.0703656
0.0715637
0.0728014
0.0740726
0.0753547
0.0766227
0.0778846
0.0791606
0.0804185
0.0816488
0.0828478
0.0840152
0.0851517
0.0862591
0.0873382
0.0883901
0.0894147
0.0904109
0.0913776
0.0923126
0.0932122
0.0940754
0.0948976
0.0956733
0.0964069
0.0970914
0.0977188
0.0982963
0.0988287
0.0993198
0.0997724
0.10019
0.100576
0.100933
0.101265
0.101577
0.101871
0.102153
0.102424
0.102691
0.102955
0.103221
0.103495
0.103785
0.10405
0.0799896
0.0808294
0.0814135
0.0818029
0.0820263
0.0820945
0.0820029
0.0818232
0.0814669
0.0810314
0.0805812
0.0801216
0.0797047
0.0793686
0.079142
0.0790451
0.0790901
0.0792829
0.0796233
0.0801032
0.080713
0.0814385
0.0822587
0.0831526
0.084107
0.0851
0.086103
0.0871143
0.0881284
0.0891196
0.090089
0.0910655
0.0920296
0.0929727
0.0938917
0.0947859
0.0956556
0.0965013
0.0973229
0.0981203
0.0988917
0.0996359
0.100351
0.101033
0.10168
0.102291
0.102859
0.103387
0.103872
0.104307
0.104699
0.105053
0.105372
0.105659
0.105919
0.106154
0.106367
0.106563
0.106745
0.106917
0.107081
0.107242
0.107401
0.107561
0.107723
0.107891
0.108067
0.108257
0.108425
0.0876103
0.0884323
0.0890954
0.0896531
0.0899613
0.0901049
0.0901666
0.0901607
0.0901234
0.0900477
0.0899871
0.0899585
0.0899827
0.0900704
0.0902361
0.0904815
0.0908134
0.0912273
0.0917203
0.0922804
0.0929029
0.0935699
0.0942691
0.0949903
0.095727
0.0964528
0.0971737
0.0978866
0.0985773
0.0992457
0.0999159
0.100577
0.101224
0.101854
0.102467
0.103063
0.10364
0.104198
0.104734
0.105248
0.105735
0.106195
0.106623
0.10702
0.10738
0.107704
0.107991
0.108239
0.108449
0.108629
0.10878
0.108908
0.109013
0.109103
0.109177
0.109242
0.1093
0.109354
0.109407
0.109461
0.10952
0.109583
0.109653
0.109729
0.109811
0.109903
0.110003
0.110091
0.0923452
0.0932717
0.094051
0.0946572
0.0951187
0.0955593
0.09598
0.0963632
0.0967302
0.0970638
0.0974003
0.0977361
0.0980993
0.0984794
0.0988935
0.0993235
0.0997861
0.100259
0.100753
0.101248
0.101753
0.102245
0.102735
0.103211
0.103668
0.104105
0.104532
0.104934
0.105322
0.105708
0.106088
0.106462
0.106824
0.107177
0.107515
0.10784
0.108147
0.108437
0.108703
0.108949
0.109165
0.109357
0.109515
0.109647
0.109745
0.109815
0.109854
0.109871
0.109865
0.109844
0.109807
0.109761
0.109706
0.10965
0.109592
0.109537
0.109486
0.109443
0.109409
0.109384
0.109369
0.109364
0.109368
0.109382
0.109403
0.109432
0.109457
0.093616
0.0947016
0.0957067
0.0965795
0.0183976
0.0183846
0.0183717
0.0183586
0.0183456
0.0183324
0.0183193
0.0183061
0.018293
0.0182799
0.0182668
0.0182538
0.0182408
0.0182279
0.018215
0.0182023
0.0181896
0.0181771
0.0181646
0.0181523
0.01814
0.0181278
0.0181158
0.0181038
0.0180919
0.01808
0.0180683
0.0180565
0.0180448
0.0180332
0.0180216
0.01801
0.0179984
0.0179868
0.0179751
0.0179635
0.0179519
0.0179402
0.0179285
0.0179168
0.017905
0.0178932
0.0178815
0.0178697
0.0178578
0.017846
0.0178342
0.0178224
0.0178107
0.0177989
0.0177872
0.0177756
0.017764
0.0177524
0.017741
0.0177296
0.0177183
0.017707
0.0176959
0.0176848
0.0176738
0.017663
0.0176522
0.0176415
0.0176309
0.0176203
0.0176098
0.0175994
0.017589
0.0175787
0.0175684
0.0175582
0.0175481
0.017538
0.0175279
0.0175179
0.0175085
0.0184062
0.0183935
0.0183807
0.0183678
0.0183549
0.0183419
0.0183289
0.0183159
0.0183029
0.0182899
0.0182769
0.018264
0.0182511
0.0182383
0.0182256
0.0182129
0.0182003
0.0181878
0.0181755
0.0181632
0.018151
0.0181389
0.0181269
0.018115
0.0181032
0.0180914
0.0180797
0.0180681
0.0180565
0.0180449
0.0180334
0.0180218
0.0180103
0.0179988
0.0179873
0.0179758
0.0179642
0.0179527
0.0179411
0.0179295
0.0179178
0.0179062
0.0178945
0.0178828
0.0178711
0.0178594
0.0178477
0.017836
0.0178243
0.0178127
0.0178011
0.0177895
0.017778
0.0177665
0.0177551
0.0177438
0.0177326
0.0177214
0.0177103
0.0176993
0.0176884
0.0176776
0.0176669
0.0176563
0.0176458
0.0176353
0.0176249
0.0176145
0.0176042
0.0175939
0.0175837
0.0175736
0.0175635
0.0175535
0.0175435
0.0175335
0.0175242