/*--------------------------------*- C++ -*----------------------------------*\
  =========                 |
  \\      /  F ield         | OpenFOAM: The Open Source CFD Toolbox
   \\    /   O peration     | Website:  https://openfoam.org
    \\  /    A nd           | Version:  13
     \\/     M anipulation  |
\*---------------------------------------------------------------------------*/
FoamFile
{
    format      ascii;
    class       volScalarField;
    location    "600";
    object      omega;
}
// * * * * * * * * * * * * * * * * * * * * * * * * * * * * * * * * * * * * * //

dimensions      [0 0 -1 0 0 0 0];

internalField   nonuniform List<scalar> 
172836
(
11.8746
11.8378
11.8013
11.765
11.7289
11.693
11.6573
11.6219
11.8729
11.8361
11.7995
11.7632
11.7271
11.6912
11.6555
11.6201
11.9045
11.8674
11.8306
11.794
11.7576
11.7215
11.6856
11.6499
11.6144
11.8922
11.8552
11.8184
11.7818
11.7455
11.7094
11.6735
11.6379
11.6025
11.8686
11.8317
11.7951
11.7587
11.7225
11.6866
11.6509
11.6154
11.5801
11.8303
11.7937
11.7573
11.7212
11.6853
11.6496
11.6142
11.579
11.544
11.7753
11.7391
11.7032
11.6674
11.6319
11.5967
11.5616
11.5268
11.4922
11.704
11.6682
11.6326
11.5973
11.5623
11.5275
11.4928
11.4585
11.4243
11.5891
11.5538
11.5188
11.484
11.4495
11.4152
11.3811
11.3473
11.9817
11.9442
11.9069
11.8699
11.8331
11.7965
11.7602
11.7241
11.6882
11.6526
11.6171
11.5819
11.5472
11.98
11.9425
11.9052
11.8681
11.8313
11.7947
11.7583
11.7222
11.6863
11.6507
11.6152
11.58
11.5453
11.9745
11.9369
11.8996
11.8624
11.8256
11.789
11.7526
11.7164
11.6805
11.6449
11.6094
11.5741
11.5395
11.962
11.9244
11.8871
11.85
11.8132
11.7766
11.7403
11.7042
11.6683
11.6327
11.5973
11.5621
11.5274
11.9377
11.9003
11.8632
11.8263
11.7896
11.7532
11.717
11.681
11.6453
11.6098
11.5745
11.5395
11.505
11.8982
11.8611
11.8242
11.7876
11.7512
11.715
11.6791
11.6434
11.608
11.5728
11.5378
11.503
11.4688
11.8416
11.8049
11.7684
11.7321
11.6961
11.6603
11.6248
11.5895
11.5545
11.5196
11.485
11.4506
11.4168
11.7682
11.7319
11.6958
11.66
11.6244
11.5891
11.554
11.5191
11.4845
11.4501
11.4159
11.382
11.3486
11.687
11.651
11.6152
11.5797
11.5444
11.5093
11.4746
11.44
11.4057
11.3716
11.3377
11.3041
11.271
11.1997
14.9222
14.8668
14.8116
14.7567
14.7021
14.6478
14.5938
14.5402
14.4869
14.4339
14.3813
14.329
14.2771
14.2256
14.1744
14.1236
14.0731
14.023
13.9733
13.9239
13.8749
13.8262
13.7778
13.7298
13.6821
13.6348
13.5877
13.5409
13.4944
13.4481
13.4022
13.3564
13.311
13.2657
13.2207
13.1759
13.1313
13.0869
13.0428
12.9988
12.9551
12.9116
12.8682
12.8251
12.7822
12.7395
12.6971
12.6549
12.6129
12.5712
12.5297
12.4884
12.4475
12.4068
12.3663
12.3261
12.2862
12.2466
12.2072
12.1681
12.1293
12.0908
12.0525
12.0146
11.9768
11.9393
11.9021
11.8651
11.8283
11.7918
11.7555
11.7194
11.6835
11.6479
11.6125
11.5772
11.5426
14.9217
14.8663
14.8111
14.7562
14.7017
14.6474
14.5934
14.5398
14.4865
14.4335
14.3809
14.3286
14.2767
14.2251
14.1739
14.1231
14.0726
14.0224
13.9727
13.9233
13.8742
13.8255
13.7771
13.7291
13.6814
13.634
13.5868
13.54
13.4935
13.4472
13.4012
13.3555
13.31
13.2648
13.2197
13.1749
13.1303
13.086
13.0418
12.9978
12.9541
12.9106
12.8672
12.8241
12.7812
12.7385
12.6961
12.6539
12.6119
12.5701
12.5286
12.4873
12.4463
12.4056
12.3651
12.3248
12.2849
12.2452
12.2058
12.1666
12.1278
12.0892
12.0509
12.0129
11.9752
11.9376
11.9003
11.8633
11.8265
11.7899
11.7536
11.7175
11.6816
11.6459
11.6105
11.5753
11.5406
14.9174
14.8619
14.8067
14.7518
14.6972
14.6429
14.589
14.5353
14.482
14.429
14.3763
14.324
14.2721
14.2205
14.1693
14.1184
14.0679
14.0177
13.9679
13.9185
13.8694
13.8207
13.7723
13.7242
13.6765
13.6291
13.5819
13.5351
13.4885
13.4423
13.3962
13.3505
13.305
13.2597
13.2147
13.1699
13.1253
13.0809
13.0367
12.9928
12.949
12.9055
12.8622
12.8191
12.7762
12.7335
12.691
12.6487
12.6067
12.565
12.5234
12.4821
12.4411
12.4003
12.3598
12.3195
12.2796
12.2398
12.2004
12.1612
12.1223
12.0837
12.0454
12.0073
11.9695
11.9319
11.8946
11.8575
11.8207
11.7841
11.7477
11.7116
11.6757
11.64
11.6046
11.5693
11.5347
14.9021
14.8466
14.7914
14.7365
14.6819
14.6277
14.5737
14.5201
14.4668
14.4139
14.3613
14.3091
14.2572
14.2057
14.1545
14.1037
14.0533
14.0032
13.9535
13.9041
13.8551
13.8064
13.7581
13.7101
13.6624
13.615
13.5679
13.5211
13.4746
13.4284
13.3824
13.3367
13.2913
13.246
13.201
13.1563
13.1117
13.0674
13.0232
12.9793
12.9356
12.8921
12.8488
12.8057
12.7628
12.7202
12.6777
12.6355
12.5935
12.5518
12.5103
12.469
12.428
12.3873
12.3468
12.3065
12.2666
12.2269
12.1875
12.1483
12.1095
12.0709
12.0326
11.9946
11.9568
11.9193
11.882
11.8449
11.8081
11.7716
11.7352
11.6992
11.6633
11.6277
11.5923
11.5571
11.5225
14.8662
14.8108
14.7557
14.701
14.6466
14.5925
14.5387
14.4853
14.4323
14.3795
14.3272
14.2752
14.2236
14.1723
14.1214
14.0709
14.0207
13.9709
13.9215
13.8724
13.8236
13.7752
13.7271
13.6793
13.6319
13.5847
13.5379
13.4913
13.445
13.399
13.3532
13.3077
13.2625
13.2174
13.1726
13.128
13.0836
13.0394
12.9954
12.9517
12.9081
12.8647
12.8216
12.7786
12.7359
12.6933
12.651
12.6089
12.567
12.5254
12.484
12.4429
12.402
12.3613
12.321
12.2809
12.241
12.2015
12.1622
12.1232
12.0844
12.046
12.0078
11.97
11.9323
11.8949
11.8578
11.8209
11.7842
11.7478
11.7116
11.6757
11.64
11.6045
11.5692
11.5342
11.4997
14.8016
14.7466
14.6919
14.6376
14.5837
14.53
14.4767
14.4238
14.3712
14.319
14.2672
14.2158
14.1647
14.114
14.0636
14.0136
13.964
13.9147
13.8658
13.8172
13.769
13.7211
13.6735
13.6262
13.5793
13.5326
13.4863
13.4402
13.3943
13.3487
13.3034
13.2583
13.2134
13.1688
13.1243
13.0801
13.0361
12.9922
12.9486
12.9051
12.8619
12.8188
12.7759
12.7332
12.6908
12.6485
12.6065
12.5646
12.523
12.4816
12.4405
12.3996
12.3589
12.3185
12.2784
12.2385
12.199
12.1596
12.1206
12.0819
12.0434
12.0052
11.9673
11.9297
11.8923
11.8552
11.8183
11.7816
11.7452
11.7091
11.6732
11.6375
11.6021
11.5669
11.5319
11.4971
11.4629
14.7084
14.6541
14.6002
14.5466
14.4933
14.4404
14.3879
14.3357
14.2838
14.2324
14.1813
14.1306
14.0802
14.0302
13.9806
13.9314
13.8825
13.834
13.7858
13.738
13.6905
13.6433
13.5964
13.5499
13.5036
13.4576
13.4119
13.3665
13.3213
13.2764
13.2317
13.1872
13.1429
13.0988
13.0549
13.0112
12.9677
12.9244
12.8812
12.8382
12.7954
12.7528
12.7104
12.6681
12.626
12.5842
12.5425
12.501
12.4598
12.4188
12.378
12.3374
12.2971
12.2571
12.2173
12.1778
12.1386
12.0996
12.0609
12.0225
11.9844
11.9466
11.9091
11.8718
11.8348
11.798
11.7615
11.7253
11.6892
11.6535
11.6179
11.5827
11.5476
11.5128
11.4782
11.4438
11.41
14.6007
14.5472
14.4939
14.441
14.3884
14.3361
14.2842
14.2327
14.1815
14.1307
14.0802
14.0301
13.9803
13.931
13.8819
13.8333
13.785
13.7371
13.6895
13.6423
13.5954
13.5488
13.5026
13.4566
13.4109
13.3656
13.3205
13.2756
13.231
13.1866
13.1425
13.0985
13.0548
13.0112
12.9679
12.9247
12.8817
12.8388
12.7961
12.7536
12.7113
12.6691
12.6271
12.5853
12.5436
12.5022
12.4609
12.4198
12.379
12.3383
12.2979
12.2578
12.2179
12.1782
12.1388
12.0997
12.0609
12.0223
11.984
11.946
11.9083
11.8709
11.8337
11.7969
11.7603
11.7239
11.6878
11.652
11.6164
11.5811
11.546
11.5111
11.4765
11.4421
11.408
11.374
11.3406
14.5045
14.4513
14.3984
14.3459
14.2936
14.2417
14.1901
14.1388
14.0879
14.0373
13.9871
13.9371
13.8876
13.8384
13.7895
13.741
13.6928
13.6451
13.5976
13.5506
13.5038
13.4574
13.4113
13.3655
13.32
13.2748
13.2299
13.1852
13.1408
13.0966
13.0526
13.0088
12.9653
12.9219
12.8787
12.8357
12.7929
12.7502
12.7077
12.6654
12.6233
12.5813
12.5395
12.4978
12.4564
12.4152
12.3741
12.3333
12.2926
12.2522
12.212
12.1721
12.1324
12.093
12.0538
12.015
11.9764
11.9381
11.9
11.8623
11.8248
11.7877
11.7508
11.7143
11.6779
11.6419
11.6061
11.5706
11.5353
11.5003
11.4655
11.431
11.3967
11.3626
11.3288
11.2951
11.2621
14.4356
14.3826
14.3299
14.2775
14.2254
14.1736
14.122
14.0708
14.0198
13.9692
13.9189
13.8689
13.8192
13.7698
13.7208
13.6721
13.6238
13.5758
13.5281
13.4808
13.4338
13.3871
13.3408
13.2947
13.249
13.2035
13.1583
13.1133
13.0686
13.0242
12.9799
12.9359
12.8922
12.8486
12.8052
12.762
12.719
12.6762
12.6336
12.5911
12.5489
12.5068
12.4649
12.4232
12.3817
12.3404
12.2994
12.2585
12.2179
12.1775
12.1373
12.0975
12.0578
12.0185
11.9794
11.9406
11.9021
11.8639
11.8259
11.7883
11.7509
11.7139
11.6771
11.6407
11.6045
11.5685
11.5328
11.4974
11.4622
11.4273
11.3926
11.3582
11.324
11.29
11.2562
11.2226
11.1897
14.3951
14.3423
14.2898
14.2375
14.1854
14.1336
14.0821
14.0308
13.9798
13.929
13.8786
13.8284
13.7785
13.7289
13.6795
13.6305
13.5818
13.5335
13.4854
13.4377
13.3903
13.3431
13.2963
13.2498
13.2035
13.1576
13.1118
13.0664
13.0212
12.9763
12.9316
12.8871
12.8429
12.7989
12.7551
12.7115
12.6681
12.6249
12.5819
12.5392
12.4966
12.4543
12.4121
12.3702
12.3285
12.287
12.2458
12.2048
12.164
12.1235
12.0833
12.0433
12.0036
11.9642
11.9251
11.8863
11.8477
11.8095
11.7715
11.7339
11.6965
11.6595
11.6227
11.5862
11.55
11.514
11.4783
11.4428
11.4076
11.3726
11.3379
11.3034
11.2691
11.235
11.2011
11.1674
11.1344
14.3786
14.3261
14.2738
14.2216
14.1697
14.118
14.0665
14.0152
13.9642
13.9133
13.8627
13.8124
13.7623
13.7124
13.6628
13.6134
13.5643
13.5156
13.4671
13.4189
13.371
13.3233
13.2759
13.2288
13.182
13.1355
13.0892
13.0431
12.9973
12.9518
12.9065
12.8615
12.8167
12.7721
12.7278
12.6837
12.6398
12.5961
12.5527
12.5096
12.4666
12.4239
12.3814
12.3392
12.2973
12.2555
12.2141
12.1729
12.132
12.0913
12.051
12.0109
11.9711
11.9316
11.8924
11.8535
11.8149
11.7766
11.7386
11.7009
11.6635
11.6264
11.5896
11.553
11.5167
11.4807
11.4449
11.4093
11.374
11.3388
11.3039
11.2692
11.2347
11.2004
11.1663
11.1324
11.0992
14.3815
14.3294
14.2774
14.2255
14.1738
14.1222
14.0709
14.0196
13.9686
13.9178
13.8671
13.8166
13.7664
13.7163
13.6664
13.6167
13.5673
13.5182
13.4693
13.4206
13.3722
13.324
13.2761
13.2284
13.181
13.1338
13.0869
13.0402
12.9938
12.9476
12.9017
12.856
12.8106
12.7654
12.7205
12.6759
12.6315
12.5873
12.5435
12.4998
12.4565
12.4134
12.3706
12.328
12.2858
12.2438
12.2021
12.1607
12.1196
12.0788
12.0383
11.9981
11.9582
11.9187
11.8794
11.8404
11.8018
11.7635
11.7254
11.6877
11.6502
11.613
11.5761
11.5395
11.5031
11.467
11.4311
11.3954
11.3599
11.3246
11.2895
11.2546
11.2198
11.1853
11.1509
11.1166
11.0832
14.4009
14.3493
14.2978
14.2463
14.1949
14.1437
14.0925
14.0415
13.9906
13.9398
13.8892
13.8387
13.7883
13.738
13.6879
13.638
13.5883
13.5387
13.4894
13.4402
13.3913
13.3426
13.2941
13.2458
13.1977
13.1498
13.1022
13.0549
13.0078
12.9609
12.9143
12.868
12.8219
12.7761
12.7305
12.6853
12.6403
12.5957
12.5513
12.5072
12.4634
12.4199
12.3767
12.3339
12.2913
12.2491
12.2072
12.1656
12.1244
12.0834
12.0428
12.0026
11.9626
11.923
11.8838
11.8448
11.8062
11.7678
11.7298
11.692
11.6546
11.6174
11.5805
11.5438
11.5074
11.4711
11.4351
11.3993
11.3636
11.3281
11.2928
11.2576
11.2226
11.1878
11.153
11.1185
11.0847
14.4359
14.385
14.3341
14.2831
14.2323
14.1814
14.1306
14.0799
14.0292
13.9786
13.9281
13.8776
13.8272
13.7768
13.7265
13.6763
13.6262
13.5763
13.5265
13.4769
13.4274
13.378
13.3289
13.2799
13.2311
13.1826
13.1342
13.0861
13.0382
12.9906
12.9432
12.8961
12.8493
12.8028
12.7566
12.7107
12.6652
12.6199
12.575
12.5304
12.4862
12.4423
12.3987
12.3555
12.3127
12.2703
12.2282
12.1864
12.145
12.104
12.0634
12.0231
11.9831
11.9436
11.9043
11.8654
11.8268
11.7885
11.7505
11.7128
11.6754
11.6383
11.6014
11.5647
11.5282
11.492
11.4559
11.4199
11.3841
11.3484
11.3128
11.2774
11.2421
11.2069
11.1718
11.1368
11.1027
14.4878
14.4378
14.3877
14.3375
14.2873
14.2371
14.1868
14.1365
14.0862
14.0359
13.9855
13.9351
13.8846
13.8342
13.7837
13.7332
13.6827
13.6323
13.582
13.5318
13.4816
13.4315
13.3816
13.3318
13.2821
13.2327
13.1834
13.1344
13.0856
13.037
12.9888
12.9408
12.8931
12.8458
12.7988
12.7522
12.7059
12.66
12.6145
12.5693
12.5246
12.4803
12.4364
12.3929
12.3498
12.3072
12.2649
12.2231
12.1816
12.1406
12.1
12.0597
12.0199
11.9804
11.9413
11.9025
11.8641
11.826
11.7882
11.7506
11.7133
11.6763
11.6395
11.6029
11.5665
11.5302
11.494
11.4579
11.422
11.386
11.3502
11.3144
11.2788
11.2432
11.2076
11.1722
11.1375
14.5601
14.5113
14.4623
14.4131
14.3638
14.3143
14.2647
14.215
14.1652
14.1152
14.0651
14.0148
13.9644
13.9138
13.863
13.8122
13.7612
13.7102
13.6592
13.6082
13.5571
13.5061
13.4552
13.4043
13.3536
13.303
13.2526
13.2024
13.1525
13.1028
13.0534
13.0044
12.9557
12.9074
12.8594
12.8119
12.7648
12.7182
12.672
12.6262
12.581
12.5362
12.4919
12.4481
12.4048
12.362
12.3196
12.2778
12.2364
12.1954
12.1549
12.1149
12.0753
12.036
11.9972
11.9587
11.9206
11.8827
11.8452
11.8079
11.7709
11.7341
11.6974
11.661
11.6246
11.5884
11.5522
11.516
11.4798
11.4436
11.4074
11.3713
11.3351
11.299
11.2629
11.2268
11.1915
14.6588
14.6116
14.5641
14.5162
14.468
14.4196
14.371
14.3221
14.273
14.2236
14.1739
14.1238
14.0733
14.0225
13.9714
13.92
13.8683
13.8165
13.7644
13.7123
13.66
13.6077
13.5554
13.5031
13.4508
13.3987
13.3468
13.2951
13.2436
13.1924
13.1416
13.0911
13.0411
12.9915
12.9424
12.8938
12.8458
12.7982
12.7513
12.7049
12.659
12.6138
12.5692
12.5252
12.4817
12.4389
12.3966
12.3549
12.3137
12.2731
12.233
12.1933
12.1542
12.1155
12.0771
12.0392
12.0016
11.9643
11.9273
11.8905
11.8539
11.8175
11.7812
11.745
11.7088
11.6726
11.6364
11.6
11.5636
11.527
11.4904
11.4536
11.4168
11.3799
11.3429
11.3059
11.2698
14.7927
14.7478
14.7023
14.6564
14.61
14.5633
14.5162
14.4686
14.4205
14.372
14.3228
14.273
14.2226
14.1715
14.1198
14.0676
14.0148
13.9615
13.908
13.8542
13.8001
13.7459
13.6916
13.6372
13.5829
13.5287
13.4746
13.4208
13.3673
13.3141
13.2614
13.2091
13.1574
13.1062
13.0557
13.0058
12.9565
12.908
12.8602
12.8131
12.7668
12.7213
12.6764
12.6324
12.589
12.5464
12.5045
12.4633
12.4228
12.3828
12.3435
12.3048
12.2665
12.2288
12.1914
12.1545
12.1178
12.0815
12.0454
12.0094
11.9736
11.9379
11.9022
11.8664
11.8305
11.7945
11.7582
11.7216
11.6848
11.6476
11.6102
11.5725
11.5346
11.4965
11.4583
11.4199
11.3824
14.9781
14.9371
14.8953
14.8528
14.8096
14.7658
14.7213
14.6761
14.63
14.583
14.5349
14.4856
14.4352
14.3835
14.3307
14.2769
14.2221
14.1665
14.1103
14.0537
13.9966
13.9393
13.8817
13.8241
13.7665
13.709
13.6517
13.5948
13.5382
13.4822
13.4268
13.372
13.318
13.2648
13.2124
13.1609
13.1104
13.0608
13.0122
12.9646
12.918
12.8724
12.8278
12.7842
12.7416
12.6999
12.6591
12.6192
12.5801
12.5418
12.5042
12.4672
12.4309
12.3951
12.3597
12.3247
12.2899
12.2554
12.2211
12.1867
12.1524
12.118
12.0834
12.0486
12.0133
11.9776
11.9413
11.9044
11.8669
11.8288
11.7901
11.7508
11.7112
11.6711
11.6307
11.59
11.5503
15.2494
15.2157
15.1811
15.1454
15.1085
15.0704
15.0311
14.9903
14.9479
14.9036
14.8573
14.8087
14.7579
14.7048
14.6495
14.5922
14.5332
14.4727
14.4113
14.3492
14.2866
14.2235
14.1602
14.0968
14.0335
13.9705
13.908
13.846
13.7847
13.7242
13.6647
13.6062
13.5489
13.4928
13.4381
13.3846
13.3326
13.282
13.2329
13.1852
13.1389
13.0941
13.0508
13.0088
12.9682
12.929
12.8909
12.854
12.8183
12.7835
12.7496
12.7166
12.6843
12.6526
12.6213
12.5904
12.5598
12.5292
12.4987
12.468
12.437
12.4058
12.374
12.3415
12.3082
12.2737
12.2381
12.2012
12.1631
12.1236
12.083
12.0413
11.9987
11.9553
11.9112
11.8668
11.8233
15.6636
15.6437
15.622
15.5982
15.5721
15.5434
15.5117
15.4764
15.4372
15.3936
15.3454
15.2925
15.235
15.1732
15.1075
15.0385
14.967
14.8938
14.8197
14.745
14.67
14.5949
14.5201
14.4457
14.3722
14.2997
14.2284
14.1585
14.0903
14.0238
13.9592
13.8966
13.8362
13.7779
13.722
13.6683
13.6169
13.5679
13.5213
13.477
13.435
13.3952
13.3577
13.3223
13.2889
13.2574
13.2278
13.1999
13.1735
13.1486
13.1249
13.1023
13.0807
13.0597
13.0392
13.0191
12.9991
12.979
12.9586
12.9376
12.9162
12.8938
12.87
12.8442
12.8162
12.7855
12.7522
12.716
12.677
12.6353
12.5912
12.5449
12.4968
12.4473
12.3968
12.3477
16.4584
16.4698
16.4783
16.4824
16.4814
16.4745
16.4606
16.4387
16.4079
16.3673
16.3165
16.2556
16.1849
16.1052
16.0178
15.924
15.8256
15.7242
15.6221
15.5199
15.4181
15.3173
15.2178
15.1202
15.0249
14.9322
14.8424
14.7557
14.6725
14.5929
14.5171
14.4452
14.3773
14.3136
14.254
14.1987
14.1475
14.1007
14.058
14.0196
13.9854
13.9553
13.9293
13.9073
13.8891
13.8747
13.8639
13.8566
13.8526
13.8517
13.8538
13.8585
13.8656
13.8749
13.8859
13.8984
13.912
13.9263
13.9409
13.955
13.9694
13.9823
13.9923
13.9981
13.9986
13.993
13.9804
13.9607
13.934
13.9004
13.8605
13.815
13.7648
13.711
13.6549
13.6009
18.0746
18.1449
18.2076
18.2588
18.2961
18.3172
18.3199
18.3018
18.2614
18.198
18.1117
18.0039
17.8768
17.7333
17.5772
17.4126
17.2429
17.0734
16.9063
16.7425
16.5828
16.4282
16.2792
16.1365
16.0004
15.8715
15.7499
15.6361
15.5302
15.4323
15.3427
15.2614
15.1886
15.1243
15.0687
15.0217
14.9835
14.9542
14.9339
14.9228
14.9208
14.9282
14.9449
14.9712
15.007
15.0524
15.1074
15.172
15.246
15.3294
15.4217
15.5226
15.6314
15.7475
15.87
15.9976
16.1299
16.2648
16.4003
16.5374
16.6705
16.7954
16.9079
17.0051
17.0846
17.1455
17.1872
17.2099
17.2149
17.2038
17.1788
17.1426
17.0982
17.0485
17.0037
21.5307
21.7114
21.8725
22.0032
22.0981
22.1511
22.157
22.1117
22.0135
21.8626
21.6623
21.4181
21.1375
20.8296
20.5038
20.1708
19.8383
19.5166
19.2073
18.9119
18.6314
18.3667
18.1183
17.8869
17.6729
17.4765
17.2982
17.138
16.9963
16.8732
16.7689
16.684
16.6186
16.5734
16.5488
16.5457
16.5648
16.607
16.6732
16.7645
16.8817
17.0258
17.1977
17.3979
17.6271
17.8852
18.1722
18.4873
18.8292
19.1964
19.5863
19.9957
20.4213
20.8582
21.3017
21.747
22.1867
22.6164
23.0316
23.4213
23.7763
24.0908
24.3606
24.5846
24.7626
24.8969
24.9909
25.0493
25.0772
25.0806
25.0655
25.038
25.0047
24.9834
28.8658
29.276
29.6263
29.9038
30.0938
30.1817
30.1565
30.0109
29.744
29.3605
28.8713
28.2926
27.6449
26.9501
26.234
25.5137
24.8217
24.1649
23.5459
22.9668
22.4291
21.9338
21.4817
21.0734
20.7094
20.3902
20.1162
19.8883
19.7075
19.5752
19.4929
19.4626
19.4866
19.5673
19.7072
19.9088
20.1745
20.5062
20.9051
21.3717
21.9057
22.5052
23.1674
23.888
24.6612
25.4802
26.3366
27.2211
28.1236
29.0329
29.9379
30.8269
31.6877
32.5106
33.2847
33.9994
34.6503
35.2286
35.728
36.1464
36.4837
36.7439
36.9316
37.0544
37.1194
37.1347
37.1089
37.0502
36.9666
36.8657
36.7547
36.6407
36.5477
42.9261
43.8882
44.7566
45.4993
46.0809
46.4674
46.6291
46.5455
46.2059
45.6116
44.775
43.7203
42.4813
41.1017
39.6263
38.1119
36.5898
35.1421
33.7776
32.5041
31.3281
30.255
29.2892
28.4345
27.6943
27.0718
26.5702
26.1925
25.9419
25.821
25.8319
25.9758
26.2524
26.6598
27.1945
27.8507
28.6205
29.4943
30.4604
31.5059
32.6163
33.7764
34.9707
36.1829
37.3974
38.5986
39.7717
40.9028
41.9789
42.9882
43.9211
44.7686
45.524
46.1832
46.7415
47.1983
47.5569
47.8142
47.9785
48.0578
48.0621
47.9996
47.8801
47.7109
47.5008
47.2574
46.9878
46.6983
46.3949
46.0829
45.767
45.4549
45.1721
67.8382
69.7155
71.5161
73.0978
74.4077
75.3955
76.0211
76.2557
76.0837
75.501
74.5152
73.1461
71.4222
69.3879
67.0912
64.5985
61.9808
59.2877
56.6774
54.1848
51.8425
49.6796
47.7208
45.9858
44.489
43.2392
42.2398
41.4887
40.9789
40.6988
40.633
40.7632
41.0687
41.5279
42.1182
42.8172
43.6028
44.4541
45.3508
46.2743
47.2072
48.1334
49.0385
49.9094
50.7345
51.5038
52.2085
52.8417
53.3973
53.8714
54.2612
54.5648
54.7832
54.9169
54.9676
54.9414
54.8404
54.6687
54.4362
54.1525
53.8245
53.46
53.0647
52.6455
52.2071
51.7544
51.292
50.824
50.354
49.8854
49.4221
48.9718
48.5639
106.324
108.416
110.2
111.54
112.456
112.965
113.09
112.851
112.266
111.349
110.107
108.549
106.671
104.484
101.989
99.2073
96.1527
92.8609
89.4512
86.0053
82.6074
79.333
76.222
73.3153
70.6436
68.2275
66.0791
64.2031
62.5975
61.2547
60.1622
59.3031
58.6569
58.2005
57.9091
57.7572
57.7194
57.7709
57.8886
58.0511
58.2391
58.4351
58.6244
58.7942
58.9339
59.0349
59.0905
59.0958
59.0478
58.9443
58.7855
58.5723
58.3057
57.9891
57.6267
57.2203
56.7772
56.3039
55.8058
55.2885
54.7561
54.2132
53.6629
53.109
52.5546
52.0024
51.455
50.9147
50.3838
49.8652
49.3682
48.9241
139.071
138.468
137.602
136.517
135.323
134.071
132.788
131.479
130.136
128.739
127.256
125.646
123.859
121.845
119.585
117.027
114.071
110.775
107.223
103.49
99.6552
95.7926
91.9779
88.2827
84.772
81.5002
78.5091
75.8249
73.4601
71.4133
69.6717
68.2123
67.0063
66.022
65.2254
64.5836
64.0651
63.6414
63.2868
62.9789
62.6986
62.4298
62.1593
61.8768
61.5744
61.2462
60.8884
60.4986
60.0763
59.6216
59.1357
58.6212
58.0797
57.5154
56.9333
56.3379
55.733
55.1225
54.5091
53.8962
53.2858
52.6809
52.0832
51.4944
50.9162
50.3502
49.7976
49.2595
48.7391
48.2449
47.8103
142.037
139.057
136.262
133.695
131.327
129.126
127.067
125.119
123.25
121.433
119.618
117.751
115.792
113.675
111.437
109.054
106.508
103.818
101.006
98.0984
95.1244
92.1259
89.1541
86.2613
83.497
80.9041
78.5064
76.324
74.3697
72.6452
71.1392
69.8375
68.7224
67.7565
66.9145
66.1713
65.5035
64.8905
64.3144
63.7602
63.2159
62.6721
62.1216
61.5597
60.9829
60.3896
59.7797
59.1534
58.512
57.8585
57.1929
56.5203
55.8452
55.1706
54.499
53.833
53.1745
52.5256
51.8879
51.2629
50.6516
50.0553
49.4745
48.9101
48.3625
47.8319
47.319
46.8256
46.3606
45.9567
128.671
125.35
122.284
119.448
116.811
114.353
112.053
109.883
107.814
105.846
103.911
102.075
100.381
98.7303
97.0752
95.3811
93.6311
91.8171
89.9421
88.0163
86.06
84.0953
82.1494
80.2479
78.4182
76.677
75.0398
73.52
72.1235
70.8477
69.6868
68.6331
67.6669
66.773
65.9363
65.1426
64.3791
63.6353
62.9023
62.174
61.4454
60.7139
59.9779
59.2366
58.4909
57.7418
56.9904
56.24
55.4907
54.7462
54.012
53.2896
52.5805
51.8862
51.208
50.547
49.904
49.2799
48.6749
48.0895
47.5237
46.9774
46.4504
45.9424
45.4529
44.9815
44.5297
44.1048
43.7395
114.586
110.923
107.517
104.433
101.651
99.1727
96.9817
95.0283
93.3703
91.9278
90.6461
89.5145
88.4745
87.4828
86.5052
85.5149
84.4932
83.4274
82.3123
81.1475
79.94
78.6996
77.44
76.1744
74.9178
73.6832
72.4795
71.3122
70.1881
69.1114
68.0811
67.0897
66.1335
65.2068
64.3034
63.4173
62.5431
61.6771
60.8161
59.9588
59.1044
58.2536
57.4065
56.5654
55.7316
54.9064
54.0931
53.2925
52.5058
51.7398
50.9947
50.2711
49.5694
48.8905
48.2346
47.6019
46.9925
46.4063
45.8429
45.3018
44.7825
44.2841
43.8057
43.3464
42.9049
42.4803
42.0734
41.6905
41.3636
94.4745
91.411
88.7647
86.5251
84.7573
83.3491
82.2015
81.2788
80.5357
79.951
79.4545
79.0109
78.594
78.1736
77.7321
77.2493
76.7166
76.1223
75.4666
74.7465
73.9699
73.1406
72.2692
71.3609
70.4292
69.48
68.5167
67.5445
66.5726
65.603
64.6307
63.6595
62.691
61.7261
60.7648
59.8079
58.8558
57.9103
56.9724
56.045
55.1289
54.2277
53.3429
52.476
51.6295
50.8054
50.0024
49.2279
48.4808
47.7616
47.0693
46.4044
45.7661
45.1547
44.5691
44.0092
43.4738
42.9622
42.4734
42.0062
41.5594
41.1315
40.721
40.3266
39.9469
39.5821
39.2377
38.9453
77.3052
75.7233
74.4972
73.6032
73.0425
72.532
72.1997
71.9956
71.8916
71.8497
71.8419
71.8245
71.7895
71.7036
71.5698
71.3628
71.0884
70.7286
70.2942
69.7751
69.1865
68.5232
67.7983
67.0149
66.1875
65.311
64.3974
63.4574
62.4938
61.5059
60.5024
59.491
58.4754
57.4621
56.453
55.4541
54.4664
53.4962
52.5434
51.6137
50.7069
49.8268
48.9732
48.1503
47.3534
46.5912
45.8601
45.1616
44.4926
43.8545
43.2444
42.6633
42.1088
41.5813
41.0786
40.5998
40.1438
39.7092
39.2945
38.8982
38.5183
38.1538
37.8025
37.4637
37.1365
36.8266
36.565
67.5383
66.8023
66.3244
66.1131
14.9154
14.86
14.8048
14.75
14.6954
14.6412
14.5872
14.5336
14.4804
14.4274
14.3748
14.3226
14.2707
14.2192
14.168
14.1172
14.0667
14.0166
13.9669
13.9175
13.8685
13.8198
13.7715
13.7235
13.6758
13.6284
13.5813
13.5345
13.488
13.4418
13.3959
13.3502
13.3047
13.2595
13.2145
13.1697
13.1252
13.0808
13.0367
12.9928
12.9491
12.9056
12.8623
12.8193
12.7764
12.7338
12.6914
12.6492
12.6073
12.5656
12.5242
12.483
12.4421
12.4014
12.361
12.3209
12.2811
12.2415
12.2022
12.1631
12.1244
12.0859
12.0477
12.0097
11.972
11.9346
11.8974
11.8604
11.8237
11.7872
11.7509
11.7149
11.679
11.6434
11.608
11.5728
11.5382
14.9149
14.8595
14.8043
14.7495
14.695
14.6407
14.5868
14.5332
14.4799
14.427
14.3744
14.3221
14.2702
14.2187
14.1675
14.1167
14.0662
14.0161
13.9663
13.9169
13.8678
13.8191
13.7707
13.7227
13.675
13.6276
13.5805
13.5336
13.4871
13.4409
13.3949
13.3492
13.3037
13.2584
13.2134
13.1687
13.1241
13.0798
13.0356
12.9917
12.948
12.9045
12.8613
12.8182
12.7754
12.7327
12.6903
12.6482
12.6062
12.5645
12.5231
12.4818
12.4409
12.4002
12.3598
12.3196
12.2797
12.24
12.2007
12.1616
12.1228
12.0843
12.046
12.008
11.9703
11.9328
11.8956
11.8586
11.8218
11.7852
11.7489
11.7129
11.677
11.6414
11.606
11.5708
11.5362
14.9106
14.8551
14.7999
14.7451
14.6905
14.6363
14.5823
14.5287
14.4754
14.4224
14.3698
14.3175
14.2656
14.214
14.1628
14.112
14.0615
14.0113
13.9615
13.9121
13.863
13.8143
13.7659
13.7178
13.67
13.6226
13.5755
13.5286
13.4821
13.4358
13.3898
13.3441
13.2986
13.2533
13.2083
13.1635
13.119
13.0746
13.0305
12.9866
12.9429
12.8994
12.8561
12.813
12.7702
12.7275
12.6851
12.6429
12.601
12.5593
12.5178
12.4766
12.4356
12.3949
12.3544
12.3142
12.2743
12.2346
12.1952
12.1561
12.1172
12.0787
12.0404
12.0024
11.9646
11.9271
11.8898
11.8527
11.8159
11.7793
11.743
11.7069
11.6711
11.6354
11.6
11.5648
11.5302
14.8954
14.8399
14.7847
14.7299
14.6753
14.6211
14.5672
14.5136
14.4603
14.4074
14.3548
14.3026
14.2508
14.1992
14.1481
14.0973
14.0469
13.9968
13.9471
13.8977
13.8487
13.8
13.7516
13.7036
13.6559
13.6085
13.5614
13.5147
13.4681
13.4219
13.376
13.3303
13.2848
13.2396
13.1946
13.1499
13.1053
13.061
13.0169
12.973
12.9294
12.8859
12.8427
12.7996
12.7568
12.7142
12.6718
12.6296
12.5877
12.546
12.5046
12.4634
12.4224
12.3817
12.3413
12.3011
12.2612
12.2216
12.1822
12.1431
12.1043
12.0657
12.0275
11.9895
11.9518
11.9143
11.877
11.84
11.8032
11.7667
11.7304
11.6944
11.6585
11.6229
11.5876
11.5524
11.5178
14.8597
14.8043
14.7493
14.6945
14.6401
14.5861
14.5323
14.4789
14.4259
14.3732
14.3209
14.2689
14.2173
14.166
14.1151
14.0646
14.0144
13.9646
13.9151
13.866
13.8172
13.7688
13.7207
13.6729
13.6254
13.5783
13.5314
13.4848
13.4385
13.3925
13.3467
13.3012
13.2559
13.2109
13.1661
13.1215
13.0771
13.033
12.989
12.9453
12.9017
12.8584
12.8153
12.7724
12.7296
12.6872
12.6449
12.6028
12.561
12.5194
12.4781
12.437
12.3962
12.3556
12.3153
12.2752
12.2354
12.1959
12.1567
12.1177
12.079
12.0406
12.0025
11.9646
11.927
11.8897
11.8525
11.8157
11.779
11.7426
11.7065
11.6706
11.6349
11.5994
11.5642
11.5292
11.4947
14.7952
14.7402
14.6856
14.6313
14.5773
14.5237
14.4704
14.4175
14.3649
14.3127
14.2609
14.2094
14.1583
14.1076
14.0572
14.0072
13.9576
13.9083
13.8593
13.8108
13.7625
13.7146
13.667
13.6197
13.5727
13.526
13.4796
13.4335
13.3876
13.342
13.2967
13.2516
13.2067
13.162
13.1176
13.0734
13.0294
12.9855
12.9419
12.8985
12.8552
12.8122
12.7693
12.7267
12.6843
12.642
12.6
12.5582
12.5166
12.4753
12.4342
12.3933
12.3527
12.3124
12.2723
12.2325
12.1929
12.1537
12.1147
12.0759
12.0375
11.9993
11.9615
11.9239
11.8865
11.8494
11.8125
11.7759
11.7395
11.7034
11.6675
11.6319
11.5965
11.5613
11.5263
11.4916
11.4574
14.7018
14.6475
14.5935
14.5399
14.4866
14.4337
14.3812
14.329
14.2771
14.2256
14.1745
14.1238
14.0734
14.0234
13.9738
13.9246
13.8756
13.8271
13.7789
13.731
13.6835
13.6363
13.5894
13.5428
13.4965
13.4505
13.4047
13.3593
13.3141
13.2691
13.2244
13.1798
13.1355
13.0915
13.0476
13.0039
12.9604
12.917
12.8739
12.8309
12.7881
12.7455
12.7031
12.6609
12.6188
12.577
12.5354
12.4939
12.4527
12.4117
12.371
12.3305
12.2902
12.2502
12.2105
12.171
12.1318
12.0929
12.0542
12.0158
11.9778
11.94
11.9024
11.8652
11.8282
11.7914
11.7549
11.7187
11.6827
11.6469
11.6114
11.5762
11.5412
11.5064
11.4718
11.4374
11.4036
14.5933
14.5397
14.4864
14.4334
14.3808
14.3286
14.2766
14.2251
14.1739
14.123
14.0725
14.0224
13.9726
13.9232
13.8742
13.8255
13.7772
13.7292
13.6816
13.6344
13.5874
13.5408
13.4945
13.4485
13.4029
13.3574
13.3123
13.2674
13.2228
13.1784
13.1342
13.0903
13.0465
13.003
12.9596
12.9164
12.8734
12.8306
12.7879
12.7454
12.7031
12.6609
12.6189
12.5771
12.5355
12.4941
12.4528
12.4118
12.371
12.3304
12.29
12.2499
12.21
12.1704
12.131
12.0919
12.0531
12.0145
11.9762
11.9383
11.9006
11.8631
11.826
11.7892
11.7526
11.7162
11.6801
11.6443
11.6088
11.5734
11.5384
11.5036
11.469
11.4346
11.4005
11.3665
11.3332
14.4958
14.4425
14.3896
14.337
14.2848
14.2328
14.1812
14.1299
14.079
14.0284
13.9781
13.9282
13.8786
13.8294
13.7805
13.732
13.6838
13.636
13.5885
13.5414
13.4946
13.4482
13.4021
13.3562
13.3107
13.2655
13.2205
13.1758
13.1313
13.0871
13.0431
12.9993
12.9558
12.9124
12.8692
12.8262
12.7834
12.7408
12.6983
12.656
12.6139
12.5719
12.5301
12.4885
12.4471
12.4059
12.3649
12.3241
12.2835
12.2431
12.203
12.1631
12.1234
12.084
12.0449
12.006
11.9675
11.9292
11.8912
11.8534
11.816
11.7789
11.742
11.7055
11.6692
11.6331
11.5974
11.5619
11.5266
11.4916
11.4569
11.4224
11.3881
11.3541
11.3203
11.2866
11.2536
14.4252
14.3722
14.3195
14.267
14.2149
14.163
14.1115
14.0602
14.0093
13.9586
13.9083
13.8583
13.8086
13.7593
13.7102
13.6615
13.6132
13.5652
13.5175
13.4701
13.4231
13.3764
13.33
13.284
13.2382
13.1927
13.1475
13.1025
13.0578
13.0134
12.9692
12.9252
12.8814
12.8378
12.7945
12.7513
12.7083
12.6655
12.6229
12.5805
12.5383
12.4963
12.4544
12.4128
12.3713
12.3301
12.289
12.2482
12.2076
12.1673
12.1272
12.0873
12.0477
12.0084
11.9694
11.9306
11.8921
11.8539
11.816
11.7784
11.7411
11.704
11.6673
11.6308
11.5947
11.5588
11.5231
11.4878
11.4526
11.4177
11.3831
11.3487
11.3145
11.2806
11.2468
11.2133
11.1804
14.3828
14.33
14.2774
14.2251
14.173
14.1212
14.0696
14.0183
13.9673
13.9166
13.8661
13.8159
13.766
13.7164
13.6671
13.6181
13.5694
13.521
13.473
13.4252
13.3778
13.3307
13.2838
13.2373
13.1911
13.1451
13.0994
13.054
13.0088
12.9639
12.9192
12.8748
12.8305
12.7866
12.7428
12.6992
12.6559
12.6128
12.5699
12.5271
12.4846
12.4423
12.4003
12.3584
12.3168
12.2753
12.2342
12.1932
12.1525
12.1121
12.0719
12.032
11.9924
11.953
11.9139
11.8751
11.8367
11.7984
11.7605
11.7229
11.6856
11.6486
11.6119
11.5754
11.5392
11.5033
11.4677
11.4323
11.3971
11.3622
11.3275
11.2931
11.2588
11.2247
11.1909
11.1572
11.1243
14.364
14.3114
14.259
14.2068
14.1549
14.1031
14.0516
14.0003
13.9493
13.8984
13.8479
13.7975
13.7474
13.6976
13.648
13.5987
13.5496
13.5009
13.4524
13.4042
13.3563
13.3087
13.2613
13.2143
13.1675
13.1209
13.0747
13.0287
12.983
12.9375
12.8922
12.8472
12.8025
12.758
12.7137
12.6697
12.6259
12.5823
12.539
12.4959
12.453
12.4104
12.368
12.3259
12.284
12.2424
12.201
12.1599
12.119