/*--------------------------------*- C++ -*----------------------------------*\
  =========                 |
  \\      /  F ield         | OpenFOAM: The Open Source CFD Toolbox
   \\    /   O peration     | Website:  https://openfoam.org
    \\  /    A nd           | Version:  13
     \\/     M anipulation  |
\*---------------------------------------------------------------------------*/
FoamFile
{
    format      ascii;
    class       volScalarField;
    location    "600";
    object      p;
}
// * * * * * * * * * * * * * * * * * * * * * * * * * * * * * * * * * * * * * //

dimensions      [0 2 -2 0 0 0 0];

internalField   nonuniform List<scalar> 
172836
(
-0.643142
-0.568943
-0.497763
-0.429626
-0.363896
-0.299975
-0.237248
-0.17513
-0.640151
-0.566202
-0.495276
-0.427362
-0.361877
-0.298235
-0.235849
-0.174146
-0.711073
-0.634442
-0.560915
-0.49064
-0.423289
-0.358365
-0.295316
-0.233554
-0.172512
-0.701976
-0.626043
-0.553282
-0.483855
-0.417361
-0.353313
-0.291159
-0.230315
-0.170204
-0.6899
-0.614942
-0.543213
-0.474872
-0.409498
-0.346595
-0.285614
-0.22596
-0.167057
-0.674869
-0.601105
-0.530634
-0.463617
-0.399611
-0.338116
-0.278579
-0.220408
-0.163019
-0.656809
-0.58449
-0.515521
-0.450067
-0.387673
-0.327841
-0.270022
-0.213617
-0.158054
-0.635485
-0.565134
-0.497938
-0.4343
-0.373779
-0.31587
-0.260023
-0.20566
-0.152188
-0.542641
-0.477834
-0.416249
-0.357911
-0.302227
-0.248645
-0.196574
-0.145466
-0.894314
-0.80983
-0.728459
-0.650346
-0.575612
-0.50387
-0.434977
-0.368429
-0.303678
-0.240113
-0.177143
-0.114269
-0.0523296
-0.890525
-0.806458
-0.725278
-0.647496
-0.572966
-0.501441
-0.432752
-0.366448
-0.30198
-0.238763
-0.17622
-0.113976
-0.0526748
-0.883473
-0.799782
-0.719159
-0.641893
-0.567769
-0.496751
-0.42859
-0.36284
-0.298966
-0.236382
-0.174513
-0.112952
-0.0522993
-0.872973
-0.789868
-0.709923
-0.633412
-0.560051
-0.489857
-0.422538
-0.357662
-0.294688
-0.233029
-0.172107
-0.111503
-0.0517927
-0.85904
-0.776744
-0.69771
-0.622184
-0.549875
-0.480765
-0.414571
-0.350842
-0.289045
-0.228585
-0.168882
-0.109513
-0.0510238
-0.841679
-0.760378
-0.682452
-0.608159
-0.537125
-0.469358
-0.404536
-0.342225
-0.281881
-0.222915
-0.164744
-0.106943
-0.0500239
-0.820675
-0.740632
-0.664058
-0.591262
-0.521784
-0.455593
-0.392403
-0.331766
-0.273151
-0.215973
-0.159647
-0.103756
-0.0487716
-0.796005
-0.717354
-0.642484
-0.57142
-0.503772
-0.439462
-0.378177
-0.319492
-0.262887
-0.20778
-0.153604
-0.0999365
-0.0472549
-0.76713
-0.690463
-0.617331
-0.548295
-0.482927
-0.420786
-0.361735
-0.305328
-0.251052
-0.198347
-0.14663
-0.0955126
-0.0454689
-0.0430748
-8.83247
-8.96342
-9.07125
-9.15653
-9.21994
-9.26226
-9.28431
-9.28697
-9.27111
-9.2376
-9.18732
-9.12118
-9.04021
-8.94547
-8.83804
-8.71896
-8.58915
-8.44946
-8.3007
-8.14369
-7.97924
-7.80814
-7.6312
-7.44918
-7.26282
-7.07283
-6.87984
-6.68444
-6.48716
-6.2885
-6.08896
-5.88904
-5.68922
-5.48996
-5.2917
-5.09487
-4.89984
-4.70692
-4.51639
-4.32847
-4.1434
-3.96141
-3.78274
-3.60759
-3.43617
-3.26868
-3.10527
-2.94608
-2.79119
-2.64065
-2.49452
-2.35283
-2.21562
-2.0829
-1.95463
-1.83077
-1.71128
-1.59614
-1.48532
-1.37879
-1.27645
-1.17813
-1.08355
-0.992267
-0.90406
-0.8189
-0.736676
-0.657738
-0.582058
-0.509531
-0.439841
-0.372504
-0.306947
-0.242568
-0.178751
-0.114991
-0.0522634
-8.85827
-8.98878
-9.09607
-9.1807
-9.2434
-9.28493
-9.30616
-9.30796
-9.29122
-9.25682
-9.20563
-9.1386
-9.05673
-8.96109
-8.85277
-8.73279
-8.6021
-8.46155
-8.31198
-8.15418
-7.98896
-7.81711
-7.63943
-7.45667
-7.26958
-7.07886
-6.88516
-6.68907
-6.49114
-6.29186
-6.09174
-5.89127
-5.69091
-5.49113
-5.29236
-5.09502
-4.89949
-4.7061
-4.51513
-4.32682
-4.1414
-3.95908
-3.7801
-3.60466
-3.43296
-3.26519
-3.10153
-2.9421
-2.787
-2.6363
-2.49004
-2.34825
-2.21098
-2.0782
-1.9499
-1.82604
-1.70657
-1.59147
-1.48071
-1.37425
-1.27199
-1.17375
-1.07928
-0.988211
-0.900265
-0.815361
-0.733537
-0.654838
-0.579403
-0.50708
-0.437593
-0.370485
-0.305211
-0.241178
-0.177795
-0.11469
-0.0526466
-8.90929
-9.03903
-9.1453
-9.22871
-9.29001
-9.33002
-9.34962
-9.34972
-9.33122
-9.29501
-9.24199
-9.17313
-9.08942
-8.99196
-8.88183
-8.76007
-8.62762
-8.48537
-8.33414
-8.17473
-8.00795
-7.83458
-7.6554
-7.47118
-7.28266
-7.09054
-6.89548
-6.69808
-6.49889
-6.29842
-6.09716
-5.8956
-5.6942
-5.49341
-5.29366
-5.09538
-4.89894
-4.70469
-4.5129
-4.32383
-4.1377
-3.95474
-3.77516
-3.59916
-3.42693
-3.25866
-3.09452
-2.93467
-2.77921
-2.62821
-2.48172
-2.33976
-2.20234
-2.06947
-1.94111
-1.81722
-1.69778
-1.58276
-1.47211
-1.3658
-1.26371
-1.16566
-1.07143
-0.980658
-0.89307
-0.808669
-0.727282
-0.649115
-0.574173
-0.502354
-0.433384
-0.366824
-0.302139
-0.238737
-0.176034
-0.113624
-0.0522623
-8.98639
-9.11489
-9.21956
-9.30108
-9.36024
-9.39792
-9.41504
-9.41253
-9.39133
-9.35236
-9.29656
-9.2249
-9.13841
-9.03819
-8.92534
-8.8009
-8.66584
-8.52103
-8.36731
-8.20549
-8.03635
-7.86068
-7.67926
-7.49286
-7.30221
-7.10803
-6.91097
-6.71164
-6.51058
-6.30833
-6.10538
-5.9022
-5.69923
-5.49694
-5.29575
-5.09606
-4.89828
-4.70274
-4.50974
-4.31953
-4.13236
-3.94842
-3.76793
-3.59107
-3.41805
-3.24904
-3.08424
-2.92378
-2.7678
-2.61636
-2.46952
-2.32728
-2.18965
-2.05661
-1.92815
-1.80423
-1.68481
-1.56988
-1.45939
-1.35329
-1.25146
-1.15372
-1.05984
-0.969507
-0.88243
-0.798634
-0.717944
-0.640537
-0.566385
-0.495384
-0.427254
-0.361561
-0.29777
-0.235292
-0.173542
-0.112104
-0.0517256
-9.08962
-9.21643
-9.31894
-9.3979
-9.45417
-9.4887
-9.50245
-9.49643
-9.47159
-9.42891
-9.36935
-9.29392
-9.20368
-9.09976
-8.98328
-8.85527
-8.71672
-8.5685
-8.41146
-8.2464
-8.07411
-7.89538
-7.71098
-7.52167
-7.3282
-7.13129
-6.93158
-6.7297
-6.52618
-6.32157
-6.11635
-5.91099
-5.70595
-5.50165
-5.29852
-5.09699
-4.89743
-4.70019
-4.50558
-4.31387
-4.12528
-3.94003
-3.75832
-3.58033
-3.40625
-3.23628
-3.07059
-2.90936
-2.75269
-2.60069
-2.45337
-2.31076
-2.17283
-2.03958
-1.91097
-1.78699
-1.6676
-1.55279
-1.44251
-1.33669
-1.23521
-1.13788
-1.04451
-0.954744
-0.868367
-0.785389
-0.705609
-0.629199
-0.556098
-0.486187
-0.419176
-0.35463
-0.292013
-0.230737
-0.170218
-0.110036
-0.050914
-9.22
-9.34455
-9.44425
-9.5199
-9.57246
-9.60294
-9.6124
-9.60188
-9.57241
-9.525
-9.46067
-9.38046
-9.2855
-9.17691
-9.05585
-8.92337
-8.78044
-8.62795
-8.46675
-8.29763
-8.12139
-7.93881
-7.75068
-7.55774
-7.36076
-7.16043
-6.95742
-6.75234
-6.54575
-6.33818
-6.13011
-5.92202
-5.71435
-5.50753
-5.30199
-5.09813
-4.89635
-4.69699
-4.50038
-4.30677
-4.11642
-3.92952
-3.74627
-3.56686
-3.39146
-3.22028
-3.05351
-2.89131
-2.7338
-2.58108
-2.43317
-2.29008
-2.15178
-2.01825
-1.88946
-1.7654
-1.64604
-1.53136
-1.42132
-1.31584
-1.21481
-1.11803
-1.02529
-0.936308
-0.85081
-0.768831
-0.690178
-0.614995
-0.543185
-0.474614
-0.408984
-0.345858
-0.284701
-0.224929
-0.165957
-0.107368
-0.0498563
-9.37813
-9.49985
-9.59599
-9.66752
-9.71547
-9.74097
-9.74514
-9.72909
-9.69394
-9.64076
-9.57061
-9.48462
-9.38391
-9.26969
-9.14311
-9.00523
-8.85704
-8.69941
-8.5332
-8.35921
-8.17823
-7.99104
-7.79842
-7.60113
-7.39993
-7.19551
-6.98855
-6.77964
-6.56935
-6.35821
-6.14671
-5.93532
-5.72449
-5.51462
-5.30616
-5.09951
-4.89505
-4.69315
-4.49412
-4.29824
-4.10576
-3.91686
-3.73175
-3.55061
-3.37362
-3.201
-3.03291
-2.86954
-2.71102
-2.55743
-2.4088
-2.26512
-2.12635
-1.99247
-1.86346
-1.73929
-1.61995
-1.50543
-1.39567
-1.29061
-1.19012
-1.09401
-1.00207
-0.914006
-0.829601
-0.748866
-0.671602
-0.597859
-0.527583
-0.460602
-0.396613
-0.335178
-0.275773
-0.217812
-0.160718
-0.104068
-0.0485409
-9.5652
-9.68333
-9.7751
-9.84157
-9.88394
-9.9034
-9.90119
-9.87853
-9.8366
-9.77654
-9.69951
-9.60665
-9.49919
-9.37833
-9.24526
-9.10105
-8.94669
-8.78306
-8.61099
-8.43129
-8.24476
-8.05217
-7.85431
-7.65194
-7.44581
-7.23661
-7.02502
-6.81164
-6.59702
-6.3817
-6.16618
-5.95091
-5.73635
-5.52291
-5.31101
-5.10108
-4.89349
-4.6886
-4.48674
-4.28819
-4.0932
-3.90195
-3.71465
-3.53148
-3.35263
-3.1783
-3.00868
-2.84395
-2.68423
-2.52962
-2.38013
-2.23575
-2.09642
-1.96213
-1.83285
-1.70855
-1.58924
-1.47488
-1.36545
-1.26087
-1.16101
-1.06567
-0.97468
-0.887767
-0.804598
-0.725353
-0.649604
-0.577632
-0.509164
-0.444057
-0.381997
-0.322553
-0.265205
-0.209382
-0.154489
-0.100138
-0.0469642
-9.78223
-9.89596
-9.9824
-10.0428
-10.0785
-10.0908
-10.081
-10.0506
-10.0007
-9.93261
-9.84755
-9.74676
-9.63148
-9.50297
-9.36243
-9.21096
-9.04952
-8.879
-8.70022
-8.514
-8.32112
-8.12236
-7.91851
-7.71032
-7.49855
-7.28389
-7.067
-6.84849
-6.62891
-6.40879
-6.18863
-5.9689
-5.75004
-5.53247
-5.31662
-5.1029
-4.8917
-4.68337
-4.47825
-4.27662
-4.07872
-3.88477
-3.69494
-3.50942
-3.3284
-3.1521
-2.9807
-2.81438
-2.65328
-2.49747
-2.34698
-2.20177
-2.06179
-1.92701
-1.7974
-1.67295
-1.55365
-1.43948
-1.33041
-1.22637
-1.12724
-1.03283
-0.942941
-0.857148
-0.775572
-0.697961
-0.624093
-0.553997
-0.487636
-0.424721
-0.364935
-0.307839
-0.252919
-0.199592
-0.147297
-0.095601
-0.0451615
-10.0308
-10.139
-10.2191
-10.2722
-10.2999
-10.3038
-10.2852
-10.2457
-10.1866
-10.1093
-10.0151
-9.90522
-9.78104
-9.64384
-9.49484
-9.33515
-9.16572
-8.98743
-8.80109
-8.60751
-8.40747
-8.20176
-7.99115
-7.77641
-7.55828
-7.33745
-7.11458
-6.89027
-6.66507
-6.43951
-6.2141
-5.9893
-5.76555
-5.5433
-5.32295
-5.10493
-4.88962
-4.67738
-4.46855
-4.26342
-4.06222
-3.86518
-3.67246
-3.48427
-3.30079
-3.12224
-2.94881
-2.78069
-2.618
-2.46083
-2.30918
-2.16301
-2.02228
-1.88693
-1.75695
-1.63232
-1.51303
-1.39907
-1.2904
-1.18698
-1.08866
-0.995271
-0.90655
-0.822353
-0.742231
-0.666331
-0.594364
-0.526515
-0.462501
-0.402105
-0.344977
-0.290647
-0.238583
-0.188217
-0.138942
-0.0903416
-0.0430459
-10.3122
-10.4139
-10.4862
-10.5307
-10.5491
-10.5431
-10.5144
-10.4644
-10.3948
-10.307
-10.2024
-10.0823
-9.94806
-9.80112
-9.64267
-9.4738
-9.29546
-9.10852
-8.91378
-8.71202
-8.50403
-8.29059
-8.07247
-7.85044
-7.62523
-7.39754
-7.16801
-6.93722
-6.70574
-6.47409
-6.24278
-6.01229
-5.78306
-5.55553
-5.33012
-5.10725
-4.88732
-4.67068
-4.45767
-4.24859
-4.04367
-3.84314
-3.64717
-3.45595
-3.26969
-3.08859
-2.91286
-2.74267
-2.57818
-2.41944
-2.26646
-2.1192
-1.97759
-1.84159
-1.71117
-1.58632
-1.46703
-1.35329
-1.24508
-1.14233
-1.04493
-0.952715
-0.865429
-0.782683
-0.704508
-0.630553
-0.560883
-0.495316
-0.433906
-0.376314
-0.32214
-0.270911
-0.222079
-0.175049
-0.12922
-0.0841972
-0.0405689
-10.6286
-10.7222
-10.7852
-10.8195
-10.827
-10.8096
-10.7691
-10.7073
-10.6258
-10.5261
-10.4097
-10.2782
-10.1328
-9.97509
-9.80617
-9.62717
-9.43901
-9.24253
-9.03853
-8.82777
-8.61102
-8.38907
-8.16269
-7.93262
-7.69961
-7.46432
-7.22742
-6.98946
-6.75101
-6.5126
-6.27473
-6.0379
-5.80255
-5.56913
-5.33808
-5.1098
-4.8847
-4.66315
-4.44548
-4.23199
-4.02292
-3.81848
-3.61887
-3.42427
-3.23488
-3.05093
-2.87261
-2.70012
-2.53359
-2.37309
-2.21861
-2.07011
-1.92751
-1.79076
-1.65984
-1.53472
-1.41542
-1.30193
-1.19421
-1.09221
-0.995829
-0.904871
-0.819075
-0.738305
-0.662022
-0.590359
-0.523055
-0.460315
-0.401785
-0.347256
-0.296349
-0.248563
-0.20334
-0.16009
-0.118206
-0.0772227
-0.0377901
-10.9816
-11.0655
-11.1174
-11.1397
-11.1344
-11.1039
-11.05
-10.9747
-10.8797
-10.7668
-10.6374
-10.4932
-10.3356
-10.1659
-9.98555
-9.79546
-9.59657
-9.3897
-9.17561
-8.95505
-8.72877
-8.49755
-8.26215
-8.02331
-7.78176
-7.53817
-7.29317
-7.04734
-6.80122
-6.55534
-6.31024
-6.06639
-5.82427
-5.58433
-5.34701
-5.11273
-4.8819
-4.65489
-4.43204
-4.21364
-3.99994
-3.79116
-3.58749
-3.3891
-3.19622
-3.00907
-2.82785
-2.65277
-2.48394
-2.32145
-2.16527
-2.01535
-1.87162
-1.73401
-1.6025
-1.47708
-1.35775
-1.2445
-1.13731
-1.03613
-0.940857
-0.851331
-0.767306
-0.688337
-0.614511
-0.54534
-0.480962
-0.421039
-0.3657
-0.314591
-0.267305
-0.223365
-0.182211
-0.143225
-0.105774
-0.0694403
-0.0346935
-11.3738
-11.4458
-11.4845
-11.4925
-11.4725
-11.4268
-11.3577
-11.2672
-11.1572
-11.0296
-10.8859
-10.7277
-10.5566
-10.374
-10.1811
-9.979
-9.7685
-9.55039
-9.32538
-9.09422
-8.85763
-8.61637
-8.3712
-8.12283
-7.872
-7.61936
-7.36553
-7.11107
-6.85654
-6.60247
-6.3494
-6.09784
-5.84825
-5.60112
-5.35688
-5.11598
-4.87882
-4.64577
-4.41719
-4.19336
-3.97455
-3.76096
-3.55278
-3.35021
-3.15346
-2.96275
-2.77831
-2.60032
-2.42894
-2.26422
-2.10613
-1.95462
-1.80961
-1.67102
-1.53884
-1.41306
-1.29367
-1.18067
-1.07405
-0.973767
-0.879707
-0.791694
-0.709475
-0.632947
-0.561449
-0.495146
-0.433654
-0.377234
-0.325431
-0.278077
-0.234819
-0.195164
-0.158549
-0.124357
-0.0919344
-0.0607161
-0.0312513
-11.8073
-11.8649
-11.8878
-11.8791
-11.8419
-11.7789
-11.6925
-11.585
-11.4584
-11.3145
-11.1551
-10.9818
-10.7961
-10.5995
-10.3931
-10.1781
-9.9551
-9.72493
-9.48824
-9.24572
-8.99808
-8.74605
-8.49037
-8.23176
-7.9709
-7.70846
-7.44504
-7.18121
-6.91751
-6.65449
-6.3927
-6.13266
-5.87489
-5.61985
-5.368
-5.1198
-4.87566
-4.63596
-4.40105
-4.17124
-3.94677
-3.72786
-3.51469
-3.30747
-3.10641
-2.91174
-2.7237
-2.54248
-2.36822
-2.20099
-2.04075
-1.88744
-1.74096
-1.60125
-1.46829
-1.34206
-1.22257
-1.10982
-1.00381
-0.904474
-0.81173
-0.72543
-0.645344
-0.570965
-0.50247
-0.43919
-0.381292
-0.32829
-0.280406
-0.23727
-0.198496
-0.16363
-0.132109
-0.103278
-0.0764099
-0.051028
-0.0274164
-12.2851
-12.3251
-12.3291
-12.3007
-12.2436
-12.1608
-12.055
-11.9286
-11.7836
-11.6219
-11.4454
-11.2557
-11.0543
-10.8427
-10.622
-10.3931
-10.1569
-9.91388
-9.66475
-9.41013
-9.1507
-8.88717
-8.62024
-8.35061
-8.07897
-7.80594
-7.53214
-7.25811
-6.98443
-6.71164
-6.44032
-6.17103
-5.90428
-5.64056
-5.38037
-5.12415
-4.87235
-4.62534
-4.38348
-4.14708
-3.91638
-3.69161
-3.47295
-3.26059
-3.05476
-2.85572
-2.66368
-2.47886
-2.3014
-2.13137
-1.96872
-1.81338
-1.66525
-1.52426
-1.39039
-1.26364
-1.14401
-1.03151
-0.926125
-0.827828
-0.736516
-0.652014
-0.57407
-0.50265
-0.436905
-0.377078
-0.322631
-0.273925
-0.23038
-0.191878
-0.158094
-0.128548
-0.102671
-0.0797957
-0.0591927
-0.040163
-0.0231571
-12.8095
-12.8282
-12.8096
-12.7582
-12.6781
-12.5727
-12.4451
-12.2976
-12.1325
-11.9516
-11.7567
-11.5494
-11.3313
-11.1038
-10.8679
-10.6246
-10.3743
-10.1178
-9.85555
-9.58818
-9.31629
-9.04057
-8.76169
-8.48032
-8.19711
-7.91272
-7.62771
-7.34266
-7.05814
-6.77472
-6.49301
-6.2136
-5.93704
-5.66382
-5.39447
-5.12947
-4.86925
-4.61421
-4.3647
-4.12104
-3.88349
-3.65225
-3.4275
-3.20946
-2.99834
-2.79442
-2.59793
-2.40908
-2.22804
-2.05484
-1.88947
-1.73182
-1.58179
-1.43933
-1.3044
-1.177
-1.05716
-0.944876
-0.840159
-0.742955
-0.653194
-0.570738
-0.495354
-0.426443
-0.364304
-0.308067
-0.257982
-0.213391
-0.174649
-0.141348
-0.113107
-0.0894861
-0.0699053
-0.0536566
-0.0399127
-0.0281483
-0.0184371
-13.3835
-13.3767
-13.3312
-13.2528
-13.146
-13.015
-12.8629
-12.6922
-12.5051
-12.3034
-12.0889
-11.8631
-11.6275
-11.3833
-11.1316
-10.873
-10.6082
-10.3375
-10.0616
-9.78081
-9.49581
-9.2072
-8.91563
-8.62175
-8.32619
-8.02956
-7.73247
-7.43548
-7.13919
-6.84421
-6.55117
-6.26072
-5.97341
-5.68981
-5.41045
-5.1358
-4.86636
-4.6025
-4.34461
-4.09298
-3.84788
-3.60952
-3.37807
-3.15375
-2.93678
-2.72745
-2.52601
-2.33268
-2.14762
-1.97089
-1.80245
-1.6422
-1.49003
-1.34587
-1.2097
-1.08154
-0.961409
-0.849326
-0.745284
-0.649272
-0.561195
-0.480868
-0.408025
-0.342692
-0.283789
-0.231702
-0.185731
-0.1464
-0.112967
-0.0853607
-0.0632701
-0.0462069
-0.033576
-0.0246597
-0.0186656
-0.014743
-0.0132512
-14.0099
-13.9721
-13.895
-13.785
-13.6476
-13.4874
-13.3078
-13.1115
-12.9006
-12.6768
-12.4415
-12.1964
-11.9426
-11.6813
-11.4133
-11.1391
-10.8593
-10.5741
-10.2839
-9.98926
-9.69058
-9.38846
-9.08352
-8.77638
-8.46763
-8.15792
-7.84782
-7.53794
-7.22889
-6.92133
-6.61595
-6.31343
-6.0144
-5.71942
-5.42906
-5.14387
-4.86428
-4.59074
-4.32361
-4.06321
-3.80979
-3.56356
-3.32468
-3.09338
-2.8699
-2.65453
-2.44754
-2.24917
-2.05959
-1.87886
-1.70693
-1.5437
-1.38905
-1.24292
-1.1053
-0.976197
-0.855658
-0.74371
-0.640368
-0.545592
-0.459327
-0.381435
-0.311674
-0.249301
-0.194778
-0.147008
-0.106373
-0.0720127
-0.0444581
-0.0232418
-0.00796816
0.00180659
0.00669232
0.00744762
0.00500478
-7.13357e-05
-0.00760002
-14.6907
-14.6165
-14.5023
-14.3556
-14.183
-13.9896
-13.7794
-13.555
-13.3184
-13.0711
-12.8144
-12.5493
-12.2771
-11.9984
-11.714
-11.4241
-11.1291
-10.829
-10.5243
-10.2152
-9.90231
-9.58603
-9.26697
-8.94573
-8.62292
-8.29913
-7.975
-7.65114
-7.32823
-7.00697
-6.68812
-6.37243
-6.06054
-5.7531
-5.45071
-5.15391
-4.86321
-4.57903
-4.30175
-4.03169
-3.76909
-3.51416
-3.26706
-3.02801
-2.79729
-2.57518
-2.362
-2.15798
-1.96332
-1.77808
-1.6022
-1.43558
-1.27809
-1.12968
-0.990348
-0.860119
-0.739044
-0.627177
-0.524523
-0.431093
-0.346795
-0.271434
-0.204714
-0.146726
-0.0961124
-0.0534238
-0.0177705
0.0101044
0.0311445
0.0453662
0.0530796
0.0547955
0.0511385
0.0428716
0.030849
0.0160995
-0.00160026
-15.4283
-15.3112
-15.1535
-14.9641
-14.751
-14.5202
-14.2758
-14.0207
-13.7567
-13.4849
-13.2061
-12.9211
-12.6305
-12.3349
-12.0344
-11.7291
-11.419
-11.1042
-10.7847
-10.461
-10.1334
-9.80232
-9.46843
-9.13226
-8.79441
-8.45554
-8.11625
-7.77726
-7.43928
-7.10309
-6.76953
-6.43939
-6.11343
-5.79231
-5.47668
-5.16714
-4.86419
-4.56828
-4.27978
-3.99903
-3.72625
-3.46165
-3.20539
-2.95768
-2.71882
-2.48914
-2.26895
-2.05854
-1.85809
-1.66769
-1.48728
-1.31673
-1.15594
-1.00485
-0.863463
-0.731838
-0.610039
-0.498131
-0.396162
-0.304114
-0.221941
-0.149513
-0.086557
-0.0321568
0.0130301
0.050398
0.079406
0.101174
0.114963
0.121309
0.120629
0.113379
0.100187
0.0818524
0.0594046
0.0334397
0.00454257
-16.0561
-15.8471
-15.6096
-15.3509
-15.078
-14.7958
-14.5075
-14.2144
-13.9173
-13.6164
-13.3119
-13.0038
-12.6921
-12.3764
-12.0564
-11.7318
-11.4023
-11.0682
-10.7296
-10.3868
-10.0403
-9.69076
-9.33868
-8.98473
-8.62954
-8.27384
-7.91834
-7.5639
-7.21137
-6.86166
-6.51568
-6.17423
-5.83806
-5.50786
-5.18426
-4.8678
-4.55892
-4.25804
-3.96544
-3.68137
-3.406
-3.1395
-2.88211
-2.63413
-2.39591
-2.16782
-1.95015
-1.74313
-1.54683
-1.36122
-1.18615
-1.02151
-0.867264
-0.72344
-0.590111
-0.467367
-0.355295
-0.253948
-0.163387
-0.0835303
-0.0141474
0.0450941
0.0940175
0.134331
0.165315
0.188103
0.201741
0.207418
0.205076
0.195043
0.177842
0.154114
0.124632
0.0902203
0.052085
0.0102585
-16.8497
-16.5834
-16.2897
-15.9792
-15.6594
-15.3358
-15.0117
-14.6883
-14.3657
-14.0432
-13.7205
-13.3965
-13.0705
-12.7414
-12.4082
-12.0701
-11.7268
-11.3783
-11.0248
-10.6665
-10.304
-9.938
-9.56902
-9.19779
-8.82502
-8.45147
-8.07802
-7.70556
-7.3351
-6.96766
-6.6042
-6.24567
-5.89285
-5.54651
-5.20735
-4.87588
-4.5526
-4.2379
-3.93207
-3.63534
-3.34788
-3.06985
-2.80148
-2.54314
-2.29521
-2.05808
-1.83208
-1.61748
-1.41435
-1.22266
-1.04227
-0.873079
-0.715059
-0.568253
-0.432769
-0.30875
-0.196298
-0.0955151
-0.00644862
0.0709248
0.136738
0.191278
0.235647
0.269073
0.29329
0.307638
0.313512
0.31
0.297741
0.277186
0.248812
0.213237
0.171211
0.12369
0.0710902
0.0143158
-17.3562
-17.0001
-16.6313
-16.2601
-15.8918
-15.53
-15.1757
-14.828
-14.4859
-14.1472
-13.8103
-13.4728
-13.1329
-12.7887
-12.4389
-12.0828
-11.7205
-11.352
-10.9778
-10.5986
-10.215
-9.82789
-9.43799
-9.04607
-8.65307
-8.25991
-7.86768
-7.47747
-7.09043
-6.70767
-6.33018
-5.95889
-5.59463
-5.2381
-4.88992
-4.55053
-4.22036
-3.89969
-3.58872
-3.2876
-2.9965
-2.7157
-2.44556
-2.18654
-1.93904
-1.70346
-1.48009
-1.26903
-1.07023
-0.883571
-0.708966
-0.546426
-0.395998
-0.257827
-0.132124
-0.0190458
0.0812934
0.168751
0.243362
0.305365
0.355132
0.392469
0.419435
0.435297
0.441443
0.436776
0.422695
0.399155
0.366573
0.325534
0.27668
0.220681
0.157968
0.0893243
0.0139124
-17.7314
-17.2978
-16.8695
-16.454
-16.0535
-15.6688
-15.2985
-14.9398
-14.5896
-14.2442
-13.9
-13.5536
-13.2019
-12.843
-12.4759
-12.1006
-11.7174
-11.327
-10.9303
-10.5281
-10.1215
-9.71136
-9.29864
-8.88433
-8.46959
-8.0556
-7.64364
-7.23497
-6.83079
-6.43225
-6.04037
-5.65606
-5.28009
-4.91307
-4.55552
-4.2078
-3.87024
-3.543
-3.22621
-2.92009
-2.62493
-2.34115
-2.06924
-1.80967
-1.56292
-1.32925
-1.10882
-0.901625
-0.707517
-0.526429
-0.358464
-0.203674
-0.062266
0.0654752
0.179333
0.279086
0.364582
0.435772
0.492773
0.535924
0.566544
0.583931
0.590155
0.584534
0.568624
0.541597
0.504264
0.457286
0.401311
0.337037
0.265079
0.185842
0.0983352
0.000516856
-17.9676
-17.4786
-17.0129
-16.5731
-16.1596
-15.7698
-15.3999
-15.044
-14.6968
-14.3523
-14.0052
-13.651
-13.287
-12.9117
-12.5249
-12.1274
-11.7204
-11.3052
-10.8832
-10.4554
-10.0232
-9.58767
-9.14999
-8.71146
-8.27349
-7.83749
-7.40485
-6.97696
-6.55502
-6.14018
-5.73346
-5.33561
-4.94733
-4.56913
-4.2014
-3.84444
-3.49842
-3.16352
-2.83996
-2.52811
-2.22848
-1.9416
-1.66803
-1.40837
-1.16285
-0.931675
-0.714923
-0.512439
-0.32424
-0.150456
0.00881605
0.153221
0.282448
0.396183
0.494098
0.575921
0.641673
0.691641
0.726313
0.745698
0.752158
0.745192
0.726324
0.694594
0.651774
0.598128
0.534443
0.461668
0.380731
0.292373
0.196195
0.0906417
-0.0302994
-18.629
-18.0704
-17.5518
-17.0724
-16.6326
-16.2286
-15.8538
-15.5007
-15.1599
-14.8236
-14.4836
-14.1338
-13.7703
-13.391
-12.9958
-12.5855
-12.1624
-11.7285
-11.2856
-10.8354
-10.3794
-9.91909
-9.45583
-8.99115
-8.52665
-8.06398
-7.60469
-7.15025
-6.70206
-6.26132
-5.82913
-5.40636
-4.99371
-4.59168
-4.20081
-3.82138
-3.45358
-3.09774
-2.75413
-2.42318
-2.10567
-1.80203
-1.51305
-1.23935
-0.981215
-0.738949
-0.512512
-0.301892
-0.107174
0.0715544
0.234144
0.380032
0.50889
0.620446
0.713997
0.789526
0.84719
0.887194
0.910081
0.91742
0.909014
0.887166
0.851121
0.803033
0.742607
0.671015
0.589441
0.499195
0.401859
0.298089
0.187864
0.0680453
-0.0633318
-19.2439
-18.617
-18.0425
-17.5249
-17.0628
-16.6499
-16.2777
-15.9349
-15.6095
-15.2898
-14.9653
-14.6279
-14.2721
-13.8952
-13.4971
-13.0783
-12.6416
-12.1904
-11.7272
-11.2542
-10.7735
-10.2868
-9.79615
-9.30323
-8.81009
-8.31845
-7.83029
-7.34714
-6.87048
-6.40178
-5.94204
-5.4922
-5.05309
-4.62518
-4.20916
-3.80529
-3.41391
-3.03557
-2.67044
-2.3194
-1.98305
-1.66216
-1.3577
-1.06993
-0.799477
-0.546731
-0.311374
-0.0936236
0.106278
0.288621
0.452812
0.598187
0.72474
0.831613
0.91824
0.985131
1.0324
1.06047
1.07033
1.06223
1.03854
0.9992
0.946256
0.879234
0.800036
0.710156
0.610858
0.503846
0.39125
0.274708
0.154646
0.0299908
-0.089486
-19.0607
-18.4352
-17.8869
-17.4098
-16.995
-16.6304
-16.3028
-15.9958
-15.6947
-15.387
-15.063
-14.7171
-14.3461
-13.95
-13.5296
-13.0872
-12.6267
-12.1511
-11.663
-11.1647
-10.6588
-10.1474
-9.63278
-9.11709
-8.60235
-8.09056
-7.58309
-7.0817
-6.5876
-6.10199
-5.62594
-5.15998
-4.70524
-4.26223
-3.83171
-3.41447
-3.01084
-2.62187
-2.24845
-1.89116
-1.55153
-1.22997
-0.927161
-0.643997
-0.380055
-0.135964
0.0883192
0.293273
0.478163
0.642599
0.786697
0.909243
1.00959
1.0884
1.14545
1.18145
1.19722
1.19284
1.17049
1.13063
1.07507
1.00434
0.920673
0.824752
0.718199
0.603131
0.482475
0.358269
0.232738
0.108345
-0.0135214
-0.104561
-18.7074
-18.1312
-17.6415
-17.2174
-16.8531
-16.5321
-16.2376
-15.9509
-15.6573
-15.3474
-15.0148
-14.6575
-14.2751
-13.8692
-13.4426
-12.9956
-12.5307
-12.0499
-11.5558
-11.0506
-10.5364
-10.0157
-9.49034
-8.96255
-8.43397
-7.90651
-7.38194
-6.86168
-6.34765
-5.84102
-5.34338
-4.85619
-4.38057
-3.91806
-3.46988
-3.03686
-2.62042
-2.22148
-1.84125
-1.48099
-1.1411
-0.822614
-0.525944
-0.251025
0.00188221
0.232842
0.442024
0.62906
0.793636
0.935471
1.05354
1.14762
1.21872
1.26708
1.29296
1.29732
1.28134
1.24548
1.19203
1.12221
1.03764
0.938718
0.828565
0.708969
0.581855
0.45024
0.317576
0.187421
0.0620283
-0.0514775
-0.107889
-18.3088
-17.8022
-17.3725
-17.0028
-16.6853
-16.3988
-16.1224
-15.8414
-15.5467
-15.2342
-14.9022
-14.5498
-14.1776
-13.7831
-13.367
-12.9298
-12.4723
-11.9964
-11.5037
-10.9956
-10.4744
-9.94306
-9.40317
-8.85657
-8.30639
-7.75443
-7.20349
-6.65555
-6.11314
-5.57927
-5.05505
-4.54325
-4.0457
-3.56382
-3.0998
-2.65437
-2.22912
-1.82579
-1.44416
-1.08611
-0.75227
-0.44207
-0.1566
0.104672
0.342093
0.554889
0.743856
0.908654
1.04789
1.16179
1.25109
1.31582
1.35665
1.37436
1.36949
1.34314
1.29723
1.23246
1.15109
1.05448
0.9448
0.823639
0.693556
0.55749
0.418703
0.280776
0.147729
0.0240475
-0.0782191
-0.0998103
-17.9197
-17.4822
-17.1027
-16.7883
-16.5104
-16.2462
-15.9834
-15.7119
-15.4287
-15.1323
-14.8195
-14.4854
-14.1272
-13.7436
-13.335
-12.9014
-12.4436
-11.9628
-11.4606
-10.9388
-10.4003
-9.84778
-9.28319
-8.70895
-8.12977
-7.54888
-6.96827
-6.39121
-5.8205
-5.26022
-4.71298
-4.18155
-3.66815
-3.1745
-2.70226
-2.25312
-1.82755
-1.4274
-1.053
-0.704817
-0.383289
-0.0884328
0.18038
0.422466
0.638726
0.829091
0.993021
1.1305
1.24175
1.32704
1.38731
1.42271
1.43398
1.42239
1.389
1.33471
1.26184
1.17201
1.06716
0.948845
0.819913
0.68294
0.540985
0.397386
0.25675
0.123346
0.00216313
-0.0890987
-0.0818958
-17.9765
-17.5428
-17.169
-16.8609
-16.5927
-16.3436
-16.099
-15.8507
-15.5925
-15.323
-15.0377
-14.7312
-14.4016
-14.0449
-13.6604
-13.2484
-12.8081
-12.3385
-11.8433
-11.3235
-10.78
-10.2172
-9.6385
-9.0457
-8.44348
-7.837
-7.22939
-6.62261
-6.02168
-5.43099
-4.85372
-4.29376
-3.75356
-3.23547
-2.74101
-2.27164
-1.82859
-1.41304
-1.02508
-0.666083
-0.335536
-0.0332877
0.24064
0.486311
0.704705
0.895183
1.05859
1.19468
1.30383
1.38661
1.44351
1.4747
1.48165
1.46528
1.4263
1.3665
1.28783
1.19214
1.08107
0.957458
0.823618
0.682109
0.536497
0.390719
0.249144
0.116011
-0.00246218
-0.0844923
-0.0565088
-17.6233
-17.2413
-16.9156
-16.6477
-16.4047
-16.1673
-15.93
-15.6856
-15.4326
-15.1644
-14.8761
-14.5643
-14.227
-13.8586
-13.4627
-13.0353
-12.5766
-12.0874
-11.5704
-11.0257
-10.4576
-9.87001
-9.26568
-8.64811
-8.02449
-7.39732
-6.76947
-6.14717
-5.53413
-4.9359
-4.35538
-3.79643
-3.26077
-2.75118
-2.2676
-1.81309
-1.38672
-0.990773
-0.624518
-0.288775
0.0178342
0.293897
0.541623
0.759819
0.950139
1.11229
1.24736
1.35469
1.43549
1.48958
1.51818
1.52193
1.50216
1.45969
1.39616
1.31365
1.21394
1.09937
0.972593
0.835759
0.6922
0.544958
0.398679
0.257062
0.125329
0.00911477
-0.0661365
-0.026368
-17.286
-16.9449
-16.662
-16.4148
-16.1805
-15.9406
-15.701
-15.4526
-15.194
-14.9104
-14.6098
-14.2781
-13.9214
-13.532
-13.1145
-12.6607
-12.1782
-11.6626
-11.1196
-10.5494
-9.95913
-9.34873
-8.72442
-8.09244
-7.45468
-6.81647
-6.18167
-5.55802
-4.94719
-4.35717
-3.7867
-3.24391
-2.72468
-2.23644
-1.77463
-1.34578
-0.944812
-0.577994
-0.239069
0.0664736
0.344341
0.589678
0.808174
0.995905
1.15779
1.29038
1.39687
1.47489
1.52765
1.55374
1.55544
1.53322
1.48852
1.42273
1.33763
1.23581
1.11947
0.990626
0.853589
0.708787
0.562346
0.415642
0.276114
0.145045
0.0314574
-0.0398297
0.00523948
-17.3251
-16.9613
-16.6569
-16.3962
-8.66535
-8.7992
-8.91046
-8.99968
-9.06747
-9.11458
-9.14179
-9.14992
-9.13982
-9.11231
-9.0682
-9.00838
-8.9338
-8.8455
-8.74453
-8.63188
-8.50845
-8.37506
-8.23249
-8.08154
-7.92298
-7.7576
-7.58617
-7.40944
-7.22816
-7.043
-6.8546
-6.66356
-6.4704
-6.27563
-6.07975
-5.88324
-5.68657
-5.49022
-5.29461
-5.10018
-4.90729
-4.71629
-4.52747
-4.34107
-4.15733
-3.97648
-3.79877
-3.6244
-3.45359
-3.28655
-3.12345
-2.96444
-2.80962
-2.65906
-2.5128
-2.37089
-2.23336
-2.10021
-1.97144
-1.84705
-1.727
-1.61127
-1.49985
-1.39266
-1.2896
-1.19048
-1.095
-1.00285
-0.913716
-0.827567
-0.744563
-0.664725
-0.588237
-0.514941
-0.44451
-0.376439
-0.310144
-0.24501
-0.180421
-0.115872
-0.0524219
-8.69002
-8.82348
-8.93425
-9.02287
-9.09001
-9.1364
-9.16285
-9.17019
-9.15927
-9.13092
-9.08597
-9.02531
-8.94989
-8.86075
-8.75894
-8.64545
-8.52119
-8.38699
-8.24365
-8.09195
-7.93267
-7.76656
-7.59442
-7.41699
-7.235
-7.04914
-6.86006
-6.66835
-6.47455
-6.27917
-6.08271
-5.88565
-5.68845
-5.49158
-5.29546
-5.10053
-4.90716
-4.7157
-4.52643
-4.33963
-4.15551
-3.97432
-3.79628
-3.62161
-3.45052
-3.2832
-3.11983
-2.96058
-2.80554
-2.65479
-2.50839
-2.36637
-2.22875
-2.09554
-1.96673
-1.84232
-1.72227
-1.60658
-1.49519
-1.38806
-1.28507
-1.18604
-1.09068
-0.998709
-0.909813
-0.824049
-0.741267
-0.661773
-0.585527
-0.512434
-0.442198
-0.374347
-0.308325
-0.24353
-0.179376
-0.115505
-0.0528016
-8.73876
-8.87152
-8.98136
-9.06886
-9.13472
-9.17971
-9.20466
-9.21042
-9.19787
-9.16784
-9.12119
-9.05882
-8.98168
-8.89084
-8.78733
-8.67216
-8.54625
-8.41044
-8.26554
-8.11231
-7.95154
-7.78398
-7.61041
-7.43157
-7.2482
-7.061
-6.87061
-6.67763
-6.4826
-6.28605
-6.08847
-5.89033
-5.6921
-5.49423
-5.29715
-5.10128
-4.90701
-4.71468
-4.52459
-4.33701
-4.15218
-3.97033
-3.79166
-3.6164
-3.44476
-3.27692
-3.11308
-2.95339
-2.79797
-2.64691
-2.50024
-2.35801
-2.22022
-2.08689
-1.958
-1.83355
-1.71351
-1.59786
-1.48657
-1.37957
-1.27674
-1.17789
-1.08276
-0.991069
-0.902572
-0.817195
-0.734968
-0.655978
-0.580246
-0.507672
-0.437957
-0.370651
-0.305208
-0.241039
-0.177564
-0.114402
-0.0524126
-8.81236
-8.94401
-9.0524
-9.13817
-9.20206
-9.2449
-9.26754
-9.2709
-9.25585
-9.22326
-9.17402
-9.10903
-9.0293
-8.93586
-8.8298
-8.71212
-8.58375
-8.44553
-8.29827
-8.14275
-7.97974
-7.80999
-7.63428
-7.45336
-7.26795
-7.07876
-6.88643
-6.69158
-6.49475
-6.29647
-6.09722
-5.89748
-5.6977
-5.49834
-5.29982
-5.10256
-4.90696
-4.71335
-4.52204
-4.33331
-4.14741
-3.96454
-3.78493
-3.6088
-3.43633
-3.26774
-3.1032
-2.94288
-2.78691
-2.63537
-2.48831
-2.34576
-2.20772
-2.07419
-1.94517
-1.82064
-1.7006
-1.58501
-1.47384
-1.36703
-1.26443
-1.16587
-1.07108
-0.979809
-0.891826
-0.807068
-0.725547
-0.647322
-0.5724
-0.50065
-0.431778
-0.365332
-0.300775
-0.237519
-0.174999
-0.112824
-0.051855
-8.91087
-9.041
-9.14742
-9.23084
-9.29208
-9.33201
-9.35156
-9.35165
-9.33323
-9.29719
-9.24445
-9.17595
-9.09272
-8.99582
-8.88635
-8.76532
-8.63366
-8.49223
-8.34183
-8.18324
-8.01723
-7.84457
-7.66601
-7.4823
-7.29419
-7.10237
-6.90749
-6.71017
-6.51094
-6.31035
-6.10888
-5.907
-5.70516
-5.50381
-5.30338
-5.10428
-4.9069
-4.71159
-4.51867
-4.32842
-4.14107
-3.95687
-3.776
-3.59869
-3.42514
-3.25555
-3.0901
-2.92897
-2.77228
-2.62012
-2.47254
-2.32955
-2.19117
-2.05738
-1.92818
-1.80355
-1.68349
-1.56798
-1.45698
-1.35041
-1.24814
-1.14997
-1.05567
-0.964957
-0.877662
-0.793711
-0.713103
-0.635884
-0.562016
-0.491366
-0.423614
-0.358314
-0.294926
-0.232873
-0.171589
-0.110689
-0.0510131
-9.0352
-9.16331
-9.26716
-9.34755
-9.40538
-9.44159
-9.45716
-9.4531
-9.43038
-9.38995
-9.33278