/*--------------------------------*- C++ -*----------------------------------*\
  =========                 |
  \\      /  F ield         | OpenFOAM: The Open Source CFD Toolbox
   \\    /   O peration     | Website:  https://openfoam.org
    \\  /    A nd           | Version:  13
     \\/     M anipulation  |
\*---------------------------------------------------------------------------*/
FoamFile
{
    format      ascii;
    class       volScalarField;
    location    "100";
    object      k;
}
// * * * * * * * * * * * * * * * * * * * * * * * * * * * * * * * * * * * * * //

dimensions      [0 2 -2 0 0 0 0];

internalField   nonuniform List<scalar> 
172290
(
0.623748
0.617447
0.611261
0.605187
0.599222
0.593364
0.58761
0.581957
0.576402
0.570943
0.565578
0.560304
0.555119
0.550021
0.545007
0.540077
0.535227
0.530456
0.525762
0.521143
0.516597
0.512124
0.50772
0.503385
0.499117
0.494915
0.490777
0.486701
0.482687
0.478733
0.474837
0.470999
0.467218
0.463491
0.459819
0.456199
0.452632
0.449115
0.445648
0.442231
0.438861
0.435538
0.432262
0.429032
0.425846
0.422704
0.419606
0.416551
0.413538
0.410566
0.407636
0.404746
0.401897
0.399087
0.396318
0.393588
0.390898
0.388248
0.385636
0.383065
0.380534
0.378042
0.375591
0.373181
0.370812
0.368485
0.366199
0.363956
0.361754
0.359595
0.357477
0.3554
0.353363
0.351365
0.349404
0.347478
0.345585
0.623748
0.617447
0.611261
0.605187
0.599222
0.593364
0.58761
0.581957
0.576402
0.570943
0.565578
0.560304
0.555119
0.550021
0.545007
0.540077
0.535227
0.530456
0.525762
0.521143
0.516597
0.512124
0.50772
0.503385
0.499117
0.494915
0.490777
0.486701
0.482687
0.478732
0.474837
0.470999
0.467217
0.463491
0.459818
0.456199
0.452631
0.449114
0.445648
0.44223
0.43886
0.435538
0.432261
0.429031
0.425845
0.422703
0.419605
0.416549
0.413536
0.410564
0.407634
0.404744
0.401895
0.399086
0.396316
0.393586
0.390896
0.388245
0.385634
0.383063
0.380532
0.37804
0.37559
0.37318
0.370811
0.368484
0.366199
0.363957
0.361756
0.359598
0.357481
0.355406
0.353371
0.351375
0.349417
0.347493
0.345603
0.623748
0.617447
0.611261
0.605187
0.599222
0.593364
0.58761
0.581957
0.576402
0.570943
0.565578
0.560304
0.555119
0.55002
0.545007
0.540076
0.535227
0.530456
0.525761
0.521143
0.516597
0.512123
0.50772
0.503385
0.499117
0.494914
0.490776
0.4867
0.482686
0.478732
0.474836
0.470998
0.467216
0.46349
0.459817
0.456198
0.45263
0.449113
0.445646
0.442228
0.438858
0.435536
0.43226
0.429029
0.425843
0.422701
0.419603
0.416547
0.413533
0.410562
0.407631
0.404741
0.401892
0.399082
0.396313
0.393583
0.390893
0.388242
0.385631
0.38306
0.380529
0.378038
0.375588
0.373179
0.370811
0.368486
0.366202
0.363961
0.361763
0.359607
0.357494
0.355423
0.353392
0.351401
0.349448
0.34753
0.345646
0.623748
0.617447
0.611261
0.605187
0.599222
0.593364
0.58761
0.581957
0.576402
0.570943
0.565577
0.560303
0.555118
0.55002
0.545007
0.540076
0.535226
0.530455
0.525761
0.521142
0.516597
0.512123
0.507719
0.503384
0.499116
0.494914
0.490775
0.4867
0.482685
0.478731
0.474835
0.470997
0.467215
0.463488
0.459816
0.456196
0.452628
0.449111
0.445644
0.442226
0.438856
0.435533
0.432257
0.429026
0.42584
0.422698
0.419599
0.416543
0.413529
0.410557
0.407627
0.404737
0.401887
0.399077
0.396308
0.393578
0.390888
0.388237
0.385626
0.383055
0.380525
0.378034
0.375585
0.373177
0.370811
0.368487
0.366206
0.363968
0.361773
0.359622
0.357513
0.355447
0.353423
0.351439
0.349494
0.347585
0.345709
0.623748
0.617447
0.611261
0.605187
0.599222
0.593364
0.58761
0.581956
0.576402
0.570943
0.565577
0.560303
0.555118
0.55002
0.545007
0.540076
0.535226
0.530455
0.525761
0.521142
0.516596
0.512123
0.507719
0.503384
0.499116
0.494913
0.490774
0.486699
0.482684
0.47873
0.474834
0.470996
0.467214
0.463487
0.459814
0.456194
0.452626
0.449109
0.445642
0.442223
0.438853
0.43553
0.432253
0.429022
0.425836
0.422693
0.419594
0.416538
0.413524
0.410552
0.407621
0.40473
0.401881
0.399071
0.396301
0.393571
0.390881
0.388231
0.38562
0.38305
0.380519
0.37803
0.375582
0.373176
0.370811
0.36849
0.366212
0.363978
0.361788
0.359642
0.357541
0.355483
0.353468
0.351494
0.34956
0.347663
0.345801
0.623748
0.617447
0.611261
0.605187
0.599222
0.593364
0.58761
0.581956
0.576402
0.570943
0.565577
0.560303
0.555118
0.55002
0.545007
0.540076
0.535226
0.530455
0.52576
0.521141
0.516596
0.512122
0.507718
0.503383
0.499115
0.494912
0.490773
0.486697
0.482683
0.478728
0.474832
0.470994
0.467212
0.463485
0.459811
0.456191
0.452623
0.449106
0.445638
0.44222
0.438849
0.435526
0.432249
0.429017
0.42583
0.422688
0.419589
0.416532
0.413518
0.410545
0.407614
0.404723
0.401873
0.399063
0.396293
0.393563
0.390873
0.388223
0.385612
0.383042
0.380513
0.378025
0.375578
0.373174
0.370813
0.368494
0.366221
0.363992
0.361808
0.35967
0.357577
0.35553
0.353527
0.351567
0.349648
0.347768
0.345923
0.623748
0.617447
0.611261
0.605187
0.599222
0.593364
0.58761
0.581956
0.576402
0.570943
0.565577
0.560303
0.555118
0.55002
0.545006
0.540076
0.535226
0.530454
0.52576
0.521141
0.516595
0.512121
0.507717
0.503382
0.499114
0.494911
0.490772
0.486696
0.482681
0.478726
0.47483
0.470992
0.467209
0.463482
0.459809
0.456188
0.45262
0.449102
0.445634
0.442215
0.438844
0.435521
0.432243
0.429011
0.425824
0.422681
0.419582
0.416525
0.41351
0.410537
0.407605
0.404714
0.401864
0.399054
0.396284
0.393553
0.390863
0.388213
0.385603
0.383034
0.380506
0.378019
0.375574
0.373173
0.370814
0.368501
0.366232
0.36401
0.361834
0.359705
0.357624
0.355591
0.353603
0.351661
0.349763
0.347905
0.346083
0.623748
0.617447
0.611261
0.605187
0.599222
0.593364
0.58761
0.581956
0.576401
0.570943
0.565577
0.560303
0.555118
0.55002
0.545006
0.540075
0.535225
0.530454
0.525759
0.52114
0.516594
0.51212
0.507716
0.503381
0.499113
0.49491
0.490771
0.486694
0.482679
0.478724
0.474828
0.470989
0.467206
0.463479
0.459805
0.456185
0.452616
0.449098
0.44563
0.44221
0.438839
0.435515
0.432237
0.429005
0.425817
0.422674
0.419574
0.416516
0.413501
0.410528
0.407595
0.404704
0.401853
0.399043
0.396272
0.393542
0.390852
0.388202
0.385593
0.383025
0.380498
0.378013
0.37557
0.373172
0.370817
0.368509
0.366247
0.364032
0.361867
0.35975
0.357684
0.355668
0.353701
0.351782
0.349909
0.34808
0.34629
0.623748
0.617447
0.611261
0.605187
0.599222
0.593364
0.58761
0.581956
0.576401
0.570942
0.565577
0.560303
0.555118
0.550019
0.545006
0.540075
0.535225
0.530453
0.525759
0.52114
0.516594
0.512119
0.507715
0.50338
0.499111
0.494908
0.490769
0.486692
0.482677
0.478722
0.474825
0.470986
0.467203
0.463476
0.459802
0.456181
0.452611
0.449093
0.445625
0.442205
0.438833
0.435509
0.43223
0.428997
0.425809
0.422665
0.419565
0.416507
0.413491
0.410517
0.407584
0.404693
0.401841
0.399031
0.39626
0.39353
0.39084
0.38819
0.385582
0.383014
0.380489
0.378006
0.375566
0.373171
0.370822
0.368519
0.366265
0.364061
0.361908
0.359807
0.357759
0.355764
0.353823
0.351934
0.350095
0.348304
0.346556
0.623748
0.617447
0.611261
0.605187
0.599222
0.593364
0.58761
0.581956
0.576401
0.570942
0.565577
0.560303
0.555117
0.550019
0.545005
0.540075
0.535224
0.530453
0.525758
0.521139
0.516593
0.512118
0.507714
0.503378
0.49911
0.494906
0.490767
0.48669
0.482675
0.478719
0.474823
0.470983
0.4672
0.463472
0.459798
0.456176
0.452607
0.449088
0.445619
0.442199
0.438826
0.435501
0.432223
0.428989
0.425801
0.422656
0.419555
0.416496
0.41348
0.410505
0.407572
0.40468
0.401828
0.399017
0.396246
0.393516
0.390826
0.388177
0.385569
0.383003
0.380479
0.377998
0.375562
0.373172
0.370828
0.368533
0.366289
0.364097
0.361959
0.359876
0.357851
0.355884
0.353976
0.352125
0.350331
0.34859
0.346897
0.623748
0.617447
0.611261
0.605187
0.599222
0.593364
0.58761
0.581956
0.576401
0.570942
0.565577
0.560303
0.555117
0.550019
0.545005
0.540074
0.535224
0.530452
0.525757
0.521138
0.516592
0.512117
0.507713
0.503377
0.499108
0.494905
0.490765
0.486688
0.482672
0.478717
0.47482
0.47098
0.467196
0.463468
0.459793
0.456171
0.452601
0.449082
0.445613
0.442192
0.438819
0.435494
0.432214
0.42898
0.425791
0.422646
0.419544
0.416485
0.413468
0.410493
0.407559
0.404666
0.401814
0.399002
0.396231
0.393501
0.390811
0.388163
0.385556
0.382991
0.380469
0.377991
0.375559
0.373174
0.370837
0.368552
0.366319
0.364141
0.362021
0.359962
0.357965
0.356033
0.354166
0.352365
0.350629
0.348954
0.347336
0.623748
0.617447
0.611261
0.605187
0.599222
0.593364
0.58761
0.581956
0.576401
0.570942
0.565577
0.560302
0.555117
0.550019
0.545005
0.540074
0.535223
0.530451
0.525757
0.521137
0.516591
0.512116
0.507712
0.503376
0.499106
0.494903
0.490763
0.486686
0.48267
0.478714
0.474816
0.470976
0.467192
0.463463
0.459788
0.456166
0.452596
0.449076
0.445606
0.442185
0.438811
0.435485
0.432205
0.428971
0.425781
0.422635
0.419532
0.416472
0.413455
0.410479
0.407544
0.404651
0.401798
0.398986
0.396215
0.393485
0.390795
0.388147
0.385541
0.382978
0.380459
0.377985
0.375557
0.373178
0.37085
0.368574
0.366355
0.364195
0.362098
0.360066
0.358105
0.356216
0.354402
0.352665
0.351005
0.349418
0.347901
0.623748
0.617447
0.611261
0.605187
0.599222
0.593364
0.58761
0.581956
0.576401
0.570942
0.565576
0.560302
0.555117
0.550018
0.545004
0.540073
0.535223
0.530451
0.525756
0.521136
0.51659
0.512115
0.50771
0.503374
0.499105
0.494901
0.490761
0.486683
0.482667
0.47871
0.474813
0.470972
0.467188
0.463459
0.459783
0.456161
0.45259
0.449069
0.445599
0.442177
0.438803
0.435476
0.432196
0.42896
0.42577
0.422623
0.41952
0.416459
0.413441
0.410464
0.407529
0.404635
0.401782
0.39897
0.396198
0.393468
0.390779
0.388132
0.385527
0.382966
0.380449
0.377979
0.375556
0.373184
0.370865
0.368603
0.3664
0.36426
0.36219
0.360193
0.358275
0.35644
0.354694
0.35304
0.351479
0.350012
0.348634
0.623748
0.617447
0.611261
0.605187
0.599222
0.593364
0.58761
0.581956
0.576401
0.570942
0.565576
0.560302
0.555116
0.550018
0.545004
0.540073
0.535222
0.53045
0.525755
0.521135
0.516589
0.512114
0.507709
0.503372
0.499103
0.494898
0.490758
0.48668
0.482664
0.478707
0.474809
0.470968
0.467184
0.463454
0.459778
0.456155
0.452583
0.449062
0.445591
0.442169
0.438794
0.435467
0.432185
0.428949
0.425758
0.422611
0.419507
0.416445
0.413426
0.410449
0.407513
0.404618
0.401765
0.398952
0.396181
0.39345
0.390762
0.388115
0.385512
0.382953
0.380439
0.377973
0.375557
0.373193
0.370885
0.368637
0.366453
0.364338
0.3623
0.360344
0.358479
0.356713
0.355053
0.353506
0.352079
0.350774
0.349588
0.623748
0.617447
0.611261
0.605187
0.599222
0.593364
0.587609
0.581956
0.576401
0.570942
0.565576
0.560302
0.555116
0.550017
0.545003
0.540072
0.535221
0.530449
0.525754
0.521134
0.516587
0.512112
0.507707
0.50337
0.499101
0.494896
0.490756
0.486678
0.482661
0.478704
0.474805
0.470964
0.467179
0.463449
0.459772
0.456149
0.452577
0.449055
0.445583
0.44216
0.438785
0.435457
0.432175
0.428938
0.425746
0.422598
0.419493
0.416431
0.413411
0.410433
0.407496
0.404601
0.401747
0.398934
0.396162
0.393432
0.390744
0.388098
0.385497
0.38294
0.38043
0.377969
0.37556
0.373205
0.370909
0.368677
0.366515
0.364429
0.362429
0.360523
0.358724
0.357042
0.355491
0.354085
0.352836
0.351752
0.350837
0.623748
0.617447
0.611261
0.605187
0.599222
0.593364
0.587609
0.581956
0.576401
0.570942
0.565576
0.560301
0.555116
0.550017
0.545003
0.540071
0.535221
0.530448
0.525753
0.521133
0.516586
0.512111
0.507705
0.503369
0.499098
0.494894
0.490753
0.486675
0.482657
0.4787
0.474801
0.47096
0.467174
0.463443
0.459766
0.456142
0.45257
0.449048
0.445575
0.442152
0.438776
0.435447
0.432164
0.428926
0.425733
0.422584
0.419479
0.416416
0.413395
0.410416
0.407479
0.404583
0.401729
0.398915
0.396143
0.393413
0.390726
0.388081
0.385481
0.382928
0.380422
0.377966
0.375564
0.37322
0.370938
0.368724
0.366587
0.364535
0.362579
0.360733
0.359012
0.357435
0.356023
0.354799
0.353787
0.353008
0.352475
0.623748
0.617447
0.611261
0.605187
0.599222
0.593364
0.587609
0.581956
0.576401
0.570941
0.565576
0.560301
0.555116
0.550017
0.545002
0.540071
0.53522
0.530448
0.525752
0.521132
0.516585
0.512109
0.507704
0.503367
0.499096
0.494891
0.49075
0.486672
0.482654
0.478696
0.474797
0.470955
0.467169
0.463438
0.45976
0.456136
0.452563
0.44904
0.445567
0.442143
0.438766
0.435436
0.432153
0.428914
0.42572
0.422571
0.419464
0.4164
0.413379
0.410399
0.407461
0.404565
0.40171
0.398896
0.396124
0.393394
0.390707
0.388064
0.385466
0.382915
0.380414
0.377964
0.37557
0.373237
0.37097
0.368778
0.366668
0.364654
0.362749
0.360973
0.359346
0.357898
0.356661
0.355672
0.354976
0.35461
0.354592
0.623748
0.617447
0.611261
0.605187
0.599222
0.593364
0.587609
0.581956
0.576401
0.570941
0.565575
0.560301
0.555115
0.550016
0.545002
0.54007
0.535219
0.530447
0.525751
0.521131
0.516583
0.512108
0.507702
0.503365
0.499094
0.494889
0.490747
0.486669
0.482651
0.478693
0.474793
0.47095
0.467164
0.463432
0.459754
0.456129
0.452555
0.449032
0.445558
0.442133
0.438756
0.435426
0.432141
0.428902
0.425707
0.422557
0.419449
0.416384
0.413362
0.410382
0.407443
0.404546
0.40169
0.398876
0.396104
0.393375
0.390688
0.388047
0.385451
0.382903
0.380406
0.377963
0.375578
0.373257
0.371007
0.368836
0.366758
0.364785
0.362939
0.361242
0.359727
0.358433
0.357411
0.356723
0.356437
0.356595
0.35713
0.623748
0.617447
0.611261
0.605187
0.599222
0.593364
0.587609
0.581956
0.5764
0.570941
0.565575
0.560301
0.555115
0.550016
0.545001
0.54007
0.535218
0.530446
0.52575
0.52113
0.516582
0.512106
0.5077
0.503363
0.499092
0.494886
0.490745
0.486665
0.482647
0.478689
0.474789
0.470946
0.467159
0.463427
0.459748
0.456122
0.452548
0.449024
0.44555
0.442124
0.438746
0.435415
0.432129
0.428889
0.425694
0.422542
0.419434
0.416368
0.413345
0.410364
0.407425
0.404527
0.401671
0.398856
0.396084
0.393355
0.39067
0.388029
0.385436
0.382892
0.380399
0.377963
0.375587
0.373278
0.371046
0.368899
0.366853
0.364926
0.363143
0.361536
0.360148
0.359035
0.358275
0.357957
0.358162
0.358773
0.35977
0.623748
0.617447
0.611261
0.605187
0.599222
0.593364
0.587609
0.581956
0.5764
0.570941
0.565575
0.5603
0.555115
0.550015
0.545001
0.540069
0.535218
0.530445
0.525749
0.521128
0.516581
0.512105
0.507699
0.503361
0.49909
0.494884
0.490742
0.486662
0.482644
0.478685
0.474784
0.470941
0.467153
0.463421
0.459742
0.456115
0.45254
0.449016
0.445541
0.442114
0.438736
0.435404
0.432117
0.428877
0.42568
0.422528
0.419419
0.416352
0.413328
0.410346
0.407406
0.404508
0.401651
0.398836
0.396064
0.393336
0.390651
0.388012
0.385421
0.38288
0.380393
0.377963
0.375596
0.373301
0.371086
0.368964
0.366952
0.365072
0.363356
0.361845
0.360596
0.359689
0.359231
0.359336
0.359917
0.360952
0.362518
0.623748
0.617447
0.61126
0.605187
0.599222
0.593364
0.587609
0.581955
0.5764
0.570941
0.565575
0.5603
0.555114
0.550015
0.545
0.540068
0.535217
0.530444
0.525748
0.521127
0.516579
0.512103
0.507697
0.503359
0.499087
0.494881
0.490739
0.486659
0.48264
0.478681
0.47478
0.470936
0.467148
0.463415
0.459736
0.456109
0.452533
0.449008
0.445532
0.442105
0.438725
0.435392
0.432106
0.428864
0.425667
0.422513
0.419403
0.416336
0.413311
0.410328
0.407387
0.404488
0.401631
0.398817
0.396044
0.393316
0.390632
0.387995
0.385406
0.382869
0.380386
0.377963
0.375606
0.373323
0.371125
0.369027
0.367048
0.365216
0.363567
0.362153
0.36105
0.360362
0.360232
0.360676
0.3616
0.363116
0.365354
0.623748
0.617447
0.61126
0.605187
0.599222
0.593364
0.587609
0.581955
0.5764
0.570941
0.565575
0.5603
0.555114
0.550015
0.545
0.540068
0.535216
0.530443
0.525747
0.521126
0.516578
0.512102
0.507695
0.503357
0.499085
0.494879
0.490736
0.486656
0.482637
0.478677
0.474776
0.470931
0.467143
0.463409
0.459729
0.456102
0.452526
0.449
0.445523
0.442095
0.438715
0.435381
0.432094
0.428851
0.425653
0.422499
0.419388
0.41632
0.413294
0.410311
0.407369
0.404469
0.401612
0.398797
0.396025
0.393297
0.390614
0.387978
0.385392
0.382857
0.380379
0.377963
0.375615
0.373344
0.371162
0.369086
0.367138
0.365348
0.363761
0.36244
0.361476
0.361002
0.36119
0.361869
0.363141
0.365169
0.36817
0.623748
0.617447
0.61126
0.605187
0.599222
0.593364
0.587609
0.581955
0.5764
0.57094
0.565574
0.5603
0.555114
0.550014
0.544999
0.540067
0.535216
0.530443
0.525746
0.521125
0.516577
0.5121
0.507693
0.503355
0.499083
0.494876
0.490733
0.486653
0.482633
0.478673
0.474771
0.470927
0.467138
0.463404
0.459723
0.456095
0.452518
0.448992
0.445515
0.442086
0.438705
0.435371
0.432082
0.428839
0.42564
0.422485
0.419373
0.416304
0.413277
0.410293
0.407351
0.40445
0.401592
0.398777
0.396005
0.393278
0.390596
0.387961
0.385377
0.382846
0.380372
0.377962
0.375621
0.373361
0.371193
0.369136
0.367214
0.36546
0.363924
0.362677
0.361828
0.361534
0.361886
0.362776
0.364371
0.366912
0.623748
0.617447
0.61126
0.605187
0.599222
0.593364
0.587609
0.581955
0.5764
0.57094
0.565574
0.560299
0.555113
0.550014
0.544999
0.540067
0.535215
0.530442
0.525745
0.521124
0.516575
0.512099
0.507692
0.503353
0.499081
0.494874
0.490731
0.48665
0.48263
0.478669
0.474767
0.470922
0.467133
0.463398
0.459717
0.456088
0.452511
0.448984
0.445506
0.442077
0.438695
0.43536
0.43207
0.428826
0.425627
0.422471
0.419358
0.416288
0.413261
0.410276
0.407333
0.404432
0.401573
0.398758
0.395986
0.393259
0.390578
0.387945
0.385362
0.382834
0.380364
0.377959
0.375625
0.373374
0.371217
0.369174
0.36727
0.36554
0.364036
0.362836
0.362057
0.361874
0.362308
0.363333
0.365163
0.368121
0.623748
0.617447
0.61126
0.605187
0.599222
0.593364
0.587609
0.581955
0.5764
0.57094
0.565574
0.560299
0.555113
0.550013
0.544998
0.540066
0.535214
0.530441
0.525744
0.521123
0.516574
0.512097
0.50769
0.503351
0.499079
0.494871
0.490728
0.486647
0.482626
0.478665
0.474763
0.470917
0.467128
0.463393
0.459711
0.456082
0.452504
0.448976
0.445498
0.442068
0.438685
0.435349
0.432059
0.428814
0.425614
0.422457
0.419343
0.416273
0.413245
0.410259
0.407315
0.404414
0.401555
0.398739
0.395967
0.39324
0.39056
0.387928
0.385348
0.382822
0.380356
0.377954
0.375626
0.373381
0.371231
0.369197
0.367301
0.36558
0.364085
0.362892
0.362119
0.361945
0.362377
0.363418
0.365316
0.36847
0.623748
0.617447
0.61126
0.605187
0.599222
0.593364
0.587609
0.581955
0.5764
0.57094
0.565574
0.560299
0.555113
0.550013
0.544998
0.540066
0.535214
0.53044
0.525743
0.521122
0.516573
0.512096
0.507688
0.503349
0.499076
0.494869
0.490725
0.486644
0.482623
0.478662
0.474759
0.470913
0.467123
0.463387
0.459705
0.456075
0.452497
0.448968
0.445489
0.442059
0.438676
0.435339
0.432048
0.428802
0.425601
0.422443
0.419329
0.416258
0.413229
0.410242
0.407298
0.404396
0.401537
0.398721
0.395949
0.393222
0.390543
0.387912
0.385333
0.382809
0.380346
0.377948
0.375623
0.373381
0.371235
0.369202
0.367305
0.365576
0.364062
0.362832
0.361992
0.361705
0.362035
0.362943
0.364685
0.367697
0.623748
0.617447
0.61126
0.605187
0.599222
0.593364
0.587609
0.581955
0.5764
0.57094
0.565574
0.560299
0.555112
0.550013
0.544998
0.540065
0.535213
0.530439
0.525742
0.521121
0.516572
0.512094
0.507687
0.503347
0.499074
0.494867
0.490723
0.486641
0.48262
0.478658
0.474755
0.470909
0.467118
0.463382
0.459699
0.456069
0.45249
0.448961
0.445482
0.44205
0.438666
0.435329
0.432038
0.428791
0.425589
0.422431
0.419316
0.416243
0.413214
0.410227
0.407282
0.404379
0.40152
0.398703
0.395932
0.393205
0.390526
0.387896
0.385318
0.382796
0.380334
0.377939
0.375616
0.373375
0.371228
0.369191
0.367282
0.365529
0.363971
0.362662
0.361686
0.361175
0.361295
0.361912
0.363259
0.365754
0.623748
0.617446
0.61126
0.605187
0.599222
0.593364
0.587609
0.581955
0.576399
0.57094
0.565573
0.560298
0.555112
0.550012
0.544997
0.540064
0.535212
0.530439
0.525742
0.52112
0.516571
0.512093
0.507685
0.503346
0.499072
0.494865
0.49072
0.486638
0.482617
0.478655
0.474751
0.470905
0.467114
0.463377
0.459694
0.456063
0.452484
0.448954
0.445474
0.442042
0.438658
0.43532
0.432027
0.42878
0.425577
0.422418
0.419303
0.41623
0.413199
0.410211
0.407266
0.404363
0.401503
0.398687
0.395915
0.393189
0.39051
0.387881
0.385304
0.382783
0.380322
0.377928
0.375605
0.373363
0.371212
0.369164
0.367235
0.365446
0.363823
0.362403
0.361244
0.360431
0.360103
0.36033
0.36112
0.362831
0.623748
0.617446
0.61126
0.605187
0.599222
0.593364
0.587609
0.581955
0.576399
0.57094
0.565573
0.560298
0.555112
0.550012
0.544997
0.540064
0.535212
0.530438
0.525741
0.521119
0.516569
0.512092
0.507684
0.503344
0.499071
0.494862
0.490718
0.486636
0.482614
0.478652
0.474748
0.470901
0.467109
0.463373
0.459689
0.456058
0.452478
0.448948
0.445467
0.442034
0.438649
0.435311
0.432018
0.42877
0.425566
0.422407
0.41929
0.416217
0.413186
0.410197
0.407251
0.404348
0.401487
0.398671
0.395899
0.393173
0.390494
0.387866
0.38529
0.38277
0.38031
0.377915
0.375591
0.373346
0.371188
0.369125
0.36717
0.365336
0.363637
0.362093
0.36073
0.359592
0.358756
0.358361
0.358542
0.359383
0.623748
0.617446
0.61126
0.605187
0.599222
0.593364
0.587609
0.581955
0.576399
0.570939
0.565573
0.560298
0.555111
0.550012
0.544996
0.540063
0.535211
0.530437
0.52574
0.521118
0.516568
0.512091
0.507682
0.503342
0.499069
0.494861
0.490716
0.486633
0.482611
0.478649
0.474745
0.470897
0.467105
0.463368
0.459684
0.456052
0.452472
0.448941
0.44546
0.442027
0.438641
0.435302
0.432009
0.42876
0.425556
0.422396
0.419279
0.416204
0.413173
0.410184
0.407237
0.404333
0.401473
0.398656
0.395884
0.393158
0.39048
0.387851
0.385276
0.382756
0.380296
0.377901
0.375576
0.373326
0.371158
0.369079
0.367096
0.365213
0.363436
0.361767
0.360209
0.358769
0.357475
0.3564
0.35573
0.355828
0.623748
0.617446
0.61126
0.605187
0.599222
0.593363
0.587609
0.581955
0.576399
0.570939
0.565573
0.560298
0.555111
0.550011
0.544996
0.540063
0.535211
0.530437
0.525739
0.521117
0.516567
0.512089
0.507681
0.503341
0.499067
0.494859
0.490714
0.486631
0.482609
0.478646
0.474741
0.470894
0.467102
0.463364
0.45968
0.456048
0.452467
0.448936
0.445454
0.44202
0.438634
0.435294
0.432
0.428751
0.425546
0.422385
0.419268
0.416193
0.413161
0.410171
0.407224
0.40432
0.401459
0.398642
0.39587
0.393144
0.390466
0.387838
0.385263
0.382743
0.380283
0.377887
0.375559
0.373304
0.371126
0.36903
0.367018
0.365088
0.363238
0.361456
0.359728
0.358038
0.356384
0.354797
0.353412
0.352552
0.623748
0.617446
0.61126
0.605187
0.599222
0.593363
0.587609
0.581955
0.576399
0.570939
0.565573
0.560298
0.555111
0.550011
0.544996
0.540063
0.53521
0.530436
0.525739
0.521116
0.516567
0.512088
0.50768
0.50334
0.499066
0.494857
0.490712
0.486629
0.482606
0.478643
0.474739
0.470891
0.467098
0.46336
0.459676
0.456043
0.452462
0.44893
0.445448
0.442014
0.438628
0.435287
0.431993
0.428743
0.425538
0.422376
0.419258
0.416183
0.41315
0.41016
0.407212
0.404308
0.401446
0.398629
0.395857
0.393131
0.390453
0.387825
0.38525
0.382731
0.380271
0.377873
0.375542
0.373282
0.371094
0.368982
0.366943
0.364972
0.363058
0.361183
0.35932
0.357443
0.355534
0.353612
0.351789
0.350344
0.623748
0.617446
0.61126
0.605187
0.599222
0.593363
0.587609
0.581955
0.576399
0.570939
0.565573
0.560297
0.555111
0.550011
0.544995
0.540062
0.53521
0.530436
0.525738
0.521115
0.516566
0.512088
0.507679
0.503338
0.499065
0.494856
0.49071
0.486627
0.482604
0.478641
0.474736
0.470888
0.467095
0.463357
0.459672
0.456039
0.452457
0.448926
0.445443
0.442009
0.438621
0.435281
0.431986
0.428736
0.42553
0.422368
0.419249
0.416173
0.41314
0.410149
0.407202
0.404297
0.401435
0.398618
0.395845
0.393119
0.390441
0.387814
0.385239
0.382719
0.380259
0.37786
0.375526
0.373261
0.371065
0.368938
0.366876
0.364871
0.362907
0.36096
0.359
0.356997
0.35493
0.352822
0.350785
0.349083
0.623748
0.617446
0.61126
0.605187
0.599222
0.593363
0.587609
0.581955
0.576399
0.570939
0.565573
0.560297
0.555111
0.550011
0.544995
0.540062
0.535209
0.530435
0.525738
0.521115
0.516565
0.512087
0.507678
0.503337
0.499063
0.494854
0.490709
0.486625
0.482603
0.478639
0.474734
0.470885
0.467092
0.463354
0.459669
0.456035
0.452453
0.448921
0.445438
0.442004
0.438616
0.435275
0.431979
0.428729
0.425523
0.42236
0.419241
0.416165
0.413131
0.41014
0.407192
0.404287
0.401425
0.398607
0.395835
0.393109
0.390431
0.387804
0.385229
0.382709
0.380248
0.377848
0.375512
0.373242
0.371038
0.3689
0.36682
0.364789
0.362787
0.360791
0.35877
0.356695
0.354553
0.35238
0.350303
0.348592
0.623748
0.617446
0.61126
0.605187
0.599222
0.593363
0.587609
0.581955
0.576399
0.570939
0.565573
0.560297
0.55511
0.55001
0.544995
0.540062
0.535209
0.530435
0.525737
0.521114
0.516564
0.512086
0.507677
0.503337
0.499062
0.494853
0.490707
0.486624
0.482601
0.478637
0.474732
0.470883
0.46709
0.463351
0.459666
0.456032
0.45245
0.448918
0.445434
0.441999
0.438611
0.43527
0.431974
0.428723
0.425517
0.422354
0.419234
0.416157
0.413124
0.410132
0.407184
0.404278
0.401416
0.398598
0.395826
0.3931
0.390422
0.387795
0.38522
0.3827
0.380238
0.377837
0.375499
0.373226
0.371017
0.368869
0.366776
0.364727
0.362701
0.360676
0.358624
0.356522
0.354374
0.352235
0.350258
0.348736
0.623748
0.617446
0.61126
0.605187
0.599222
0.593363
0.587609
0.581955
0.576399
0.570939
0.565572
0.560297
0.55511
0.55001
0.544995
0.540061
0.535209
0.530434
0.525737
0.521114
0.516564
0.512085
0.507677
0.503336
0.499061
0.494852
0.490706
0.486623
0.4826
0.478636
0.47473
0.470881
0.467088
0.463349
0.459663
0.45603
0.452447
0.448915
0.445431
0.441996
0.438608
0.435266
0.43197
0.428718
0.425511
0.422348
0.419228
0.416151
0.413117
0.410126
0.407177
0.404271
0.401409
0.398591
0.395818
0.393092
0.390415
0.387787
0.385212
0.382693
0.38023
0.377829
0.375489
0.373213
0.371
0.368846
0.366744
0.364683
0.362645
0.360607
0.358548
0.356458
0.354356
0.352327
0.350562
0.349394
0.623748
0.617446
0.61126
0.605187
0.599222
0.593363
0.587608
0.581955
0.576399
0.570939
0.565572
0.560297
0.55511
0.55001
0.544994
0.540061
0.535208
0.530434
0.525736
0.521113
0.516564
0.512085
0.507676
0.503335
0.499061
0.494851
0.490705
0.486622
0.482598
0.478635
0.474729
0.47088
0.467086
0.463347
0.459661
0.456028
0.452445
0.448912
0.445428
0.441993
0.438604
0.435262
0.431966
0.428714
0.425507
0.422344
0.419224
0.416146
0.413112
0.41012
0.407171
0.404265
0.401403
0.398585
0.395812
0.393086
0.390409
0.387781
0.385206
0.382686
0.380224
0.377822
0.375481
0.373203
0.370987
0.368829
0.366723
0.364655
0.362611
0.360573
0.358525
0.356469
0.354447
0.623748
0.617446
0.61126
0.605187
0.599222
0.593363
0.587608
0.581954
0.576399
0.570939
0.565572
0.560297
0.55511
0.55001
0.544994
0.540061
0.535208
0.530434
0.525736
0.521113
0.516563
0.512085
0.507676
0.503335
0.49906
0.494851
0.490705
0.486621
0.482598
0.478634
0.474728
0.470879
0.467085
0.463346
0.45966
0.456026
0.452443
0.44891
0.445426
0.441991
0.438602
0.43526
0.431963
0.428712
0.425504
0.42234
0.41922
0.416143
0.413108
0.410116
0.407167
0.404261
0.401398
0.39858
0.395808
0.393082
0.390404
0.387777
0.385202
0.382682
0.380219
0.377817
0.375476
0.373197
0.370979
0.368819
0.366709
0.36464
0.362597
0.360564
0.358534
0.623748
0.617446
0.61126
0.605187
0.599222
0.593363
0.587608
0.581954
0.576399
0.570939
0.565572
0.560297
0.55511
0.55001
0.544994
0.540061
0.535208
0.530434
0.525736
0.521113
0.516563
0.512084
0.507675
0.503334
0.49906
0.49485
0.490704
0.48662
0.482597
0.478633
0.474727
0.470878
0.467084
0.463345
0.459659
0.456025
0.452442
0.448909
0.445425
0.441989
0.4386
0.435258
0.431961
0.42871
0.425502
0.422338
0.419218
0.41614
0.413106
0.410113
0.407164
0.404258
0.401395
0.398577
0.395805
0.393079
0.390401
0.387774
0.385199
0.382679
0.380216
0.377813
0.375471
0.373192
0.370973
0.368811
0.3667
0.36463
0.362588
0.360562
0.35855
0.623748
0.617446
0.61126
0.605187
0.599222
0.593363
0.587608
0.581954
0.576399
0.570939
0.565572
0.560297
0.55511
0.55001
0.544994
0.540061
0.535208
0.530434
0.525736
0.521113
0.516563
0.512084
0.507675
0.503334
0.49906
0.49485
0.490704
0.48662
0.482597
0.478633
0.474727
0.470878
0.467084
0.463345
0.459659
0.456025
0.452441
0.448908
0.445424
0.441988
0.4386
0.435257
0.431961
0.428709
0.425501
0.422337
0.419217
0.416139
0.413104
0.410112
0.407163
0.404257
0.401394
0.398576
0.395803
0.393077
0.3904
0.387772
0.385198
0.382678
0.380215
0.377812
0.37547
0.37319
0.370971
0.36881
0.366699
0.36463
0.36259
0.360569
0.35857
0.623748
0.617446
0.61126
0.605187
0.599222
0.593363
0.587608
0.581954
0.576399
0.570939
0.565572
0.560297
0.55511
0.55001
0.544994
0.540061
0.535208
0.530434
0.525736
0.521113
0.516563
0.512084
0.507675
0.503334
0.49906
0.49485
0.490704
0.48662
0.482597
0.478633
0.474727
0.470878
0.467084
0.463345
0.459659
0.456025
0.452442
0.448908
0.445424
0.441989
0.4386
0.435257
0.431961
0.428709
0.425501
0.422337
0.419217
0.416139
0.413104
0.410112
0.407163
0.404257
0.401394
0.398576
0.395803
0.393077
0.3904
0.387772
0.385198
0.382678
0.380215
0.377812
0.375471
0.373191
0.370972
0.36881
0.366699
0.36463
0.36259
0.360569
0.358569
0.623748
0.617446
0.61126
0.605187
0.599222
0.593363
0.587608
0.581954
0.576399
0.570939
0.565572
0.560297
0.55511
0.55001
0.544994
0.540061
0.535208
0.530434
0.525736
0.521113
0.516563
0.512084
0.507675
0.503334
0.49906
0.49485
0.490704
0.48662
0.482597
0.478633
0.474727
0.470878
0.467085
0.463345
0.459659
0.456025
0.452442
0.448909
0.445425
0.441989
0.438601
0.435258
0.431962
0.42871
0.425502
0.422339
0.419218
0.416141
0.413106
0.410114
0.407165
0.404258
0.401396
0.398578
0.395805
0.393079
0.390401
0.387774
0.385199
0.382679
0.380217
0.377814
0.375472
0.373192
0.370974
0.368812
0.366701
0.364631
0.623748
0.617446
0.61126
0.605187
0.599222
0.593363
0.587608
0.581954
0.576399
0.570939
0.565572
0.560297
0.55511
0.55001
0.544994
0.540061
0.535208
0.530434
0.525736
0.521113
0.516563
0.512085
0.507676
0.503335
0.49906
0.494851
0.490705
0.486621
0.482598
0.478634
0.474728
0.470879
0.467085
0.463346
0.45966
0.456026
0.452443
0.448911
0.445427
0.441991
0.438602
0.43526
0.431964
0.428712
0.425505
0.422341
0.419221
0.416143
0.413109
0.410117
0.407168
0.404262
0.401399
0.398581
0.395808
0.393082
0.390405
0.387778
0.385203
0.382683
0.380221
0.377818
0.375477
0.373198
0.37098
0.36882
0.366711
0.623748
0.617446
0.61126
0.605187
0.599222
0.593363
0.587608
0.581955
0.576399
0.570939
0.565572
0.560297
0.55511
0.55001
0.544995
0.540061
0.535208
0.530434
0.525736
0.521113
0.516564
0.512085
0.507676
0.503335
0.499061
0.494851
0.490706
0.486622
0.482599
0.478635
0.474729
0.47088
0.467087
0.463348
0.459662
0.456028
0.452445
0.448912
0.445429
0.441993
0.438605
0.435263
0.431966
0.428715
0.425508
0.422344
0.419224
0.416147
0.413113
0.410121
0.407172