/*--------------------------------*- C++ -*----------------------------------*\
  =========                 |
  \\      /  F ield         | OpenFOAM: The Open Source CFD Toolbox
   \\    /   O peration     | Website:  https://openfoam.org
    \\  /    A nd           | Version:  13
     \\/     M anipulation  |
\*---------------------------------------------------------------------------*/
FoamFile
{
    format      ascii;
    class       volScalarField;
    location    "800";
    object      k;
}
// * * * * * * * * * * * * * * * * * * * * * * * * * * * * * * * * * * * * * //

dimensions      [0 2 -2 0 0 0 0];

internalField   nonuniform List<scalar> 
172836
(
0.20928
0.208486
0.207697
0.206916
0.20614
0.20537
0.204607
0.203849
0.209451
0.208657
0.207869
0.207087
0.206312
0.205542
0.204778
0.204021
0.210596
0.209797
0.209004
0.208216
0.207435
0.20666
0.20589
0.205127
0.204369
0.211174
0.210375
0.209582
0.208795
0.208014
0.207238
0.206469
0.205705
0.204947
0.212027
0.211228
0.210435
0.209647
0.208865
0.208089
0.207319
0.206555
0.205797
0.213167
0.212367
0.211572
0.210783
0.210001
0.209224
0.208453
0.207687
0.206928
0.214567
0.213765
0.212969
0.212179
0.211394
0.210616
0.209844
0.209078
0.208318
0.216159
0.215355
0.214557
0.213765
0.21298
0.212201
0.211428
0.210661
0.2099
0.217044
0.216246
0.215454
0.214669
0.21389
0.213117
0.21235
0.211589
0.211531
0.210724
0.209921
0.209123
0.208331
0.207544
0.206763
0.205989
0.205219
0.204456
0.203699
0.202949
0.202216
0.211697
0.210889
0.210087
0.20929
0.208498
0.207712
0.206932
0.206157
0.205387
0.204624
0.203867
0.203117
0.202383
0.212031
0.211225
0.210423
0.209627
0.208836
0.20805
0.20727
0.206495
0.205726
0.204963
0.204206
0.203456
0.202722
0.212595
0.211789
0.210988
0.210192
0.209401
0.208616
0.207836
0.207061
0.206292
0.205529
0.204772
0.204021
0.203287
0.213432
0.212625
0.211824
0.211027
0.210236
0.20945
0.20867
0.207895
0.207126
0.206362
0.205604
0.204854
0.204119
0.214554
0.213746
0.212943
0.212145
0.211353
0.210566
0.209785
0.209009
0.208239
0.207475
0.206716
0.205965
0.205229
0.215932
0.215122
0.214317
0.213518
0.212724
0.211936
0.211153
0.210376
0.209605
0.20884
0.208081
0.207328
0.206592
0.217493
0.216682
0.215876
0.215075
0.214281
0.213492
0.212708
0.211931
0.211159
0.210393
0.209634
0.208881
0.208144
0.219143
0.218331
0.217526
0.216725
0.21593
0.215141
0.214357
0.21358
0.212808
0.212043
0.211283
0.210531
0.209795
0.211469
0.274534
0.273328
0.272129
0.270937
0.269752
0.268573
0.267402
0.266238
0.265082
0.263933
0.262792
0.261658
0.260531
0.259412
0.2583
0.257195
0.256097
0.255007
0.253923
0.252846
0.251777
0.250716
0.249662
0.248615
0.247576
0.246545
0.245521
0.244505
0.243496
0.242496
0.241503
0.240518
0.239541
0.238571
0.23761
0.236655
0.235708
0.234769
0.233836
0.232909
0.231989
0.231076
0.230168
0.229267
0.228371
0.22748
0.226594
0.225713
0.224837
0.223965
0.223097
0.222233
0.221374
0.220518
0.219666
0.218818
0.217974
0.217133
0.216297
0.215465
0.214636
0.213812
0.212993
0.212178
0.211367
0.210561
0.20976
0.208964
0.208173
0.207388
0.206608
0.205834
0.205065
0.204303
0.203546
0.202797
0.202064
0.274645
0.273441
0.272244
0.271054
0.26987
0.268693
0.267524
0.266362
0.265207
0.26406
0.26292
0.261788
0.260663
0.259545
0.258435
0.257331
0.256234
0.255145
0.254062
0.252986
0.251918
0.250857
0.249804
0.248758
0.247719
0.246688
0.245665
0.244649
0.243641
0.24264
0.241647
0.240662
0.239685
0.238716
0.237754
0.2368
0.235853
0.234913
0.23398
0.233054
0.232134
0.231221
0.230313
0.229412
0.228516
0.227626
0.22674
0.22586
0.224984
0.224112
0.223245
0.222382
0.221523
0.220668
0.219817
0.21897
0.218126
0.217287
0.216451
0.21562
0.214793
0.21397
0.213151
0.212337
0.211527
0.210722
0.209921
0.209126
0.208336
0.207551
0.206771
0.205997
0.205229
0.204466
0.203709
0.20296
0.202227
0.274921
0.273721
0.272528
0.271341
0.270161
0.268987
0.267821
0.266662
0.26551
0.264365
0.263228
0.262097
0.260975
0.259859
0.25875
0.257648
0.256553
0.255465
0.254383
0.253309
0.252241
0.251181
0.250128
0.249082
0.248044
0.247013
0.24599
0.244974
0.243965
0.242965
0.241971
0.240986
0.240008
0.239038
0.238076
0.237121
0.236174
0.235233
0.2343
0.233373
0.232453
0.231539
0.230631
0.229729
0.228832
0.227942
0.227056
0.226175
0.225299
0.224428
0.223561
0.222698
0.221839
0.220985
0.220134
0.219287
0.218444
0.217605
0.216771
0.21594
0.215113
0.214291
0.213473
0.21266
0.211851
0.211047
0.210247
0.209453
0.208663
0.207879
0.2071
0.206326
0.205558
0.204796
0.204039
0.20329
0.202556
0.275435
0.274241
0.273053
0.271871
0.270696
0.269526
0.268364
0.267208
0.26606
0.264918
0.263784
0.262656
0.261536
0.260422
0.259316
0.258216
0.257122
0.256035
0.254955
0.253882
0.252816
0.251756
0.250704
0.249659
0.248621
0.24759
0.246567
0.245551
0.244542
0.243541
0.242547
0.241561
0.240583
0.239612
0.238648
0.237692
0.236744
0.235802
0.234867
0.233939
0.233017
0.232102
0.231193
0.23029
0.229392
0.2285
0.227613
0.226731
0.225854
0.224982
0.224114
0.22325
0.222391
0.221535
0.220684
0.219837
0.218994
0.218155
0.21732
0.216489
0.215662
0.21484
0.214023
0.213209
0.212401
0.211597
0.210798
0.210003
0.209214
0.20843
0.207652
0.206878
0.206111
0.205348
0.204592
0.203842
0.203108
0.276269
0.275082
0.2739
0.272724
0.271553
0.270389
0.269231
0.268079
0.266934
0.265795
0.264663
0.263538
0.26242
0.261308
0.260203
0.259105
0.258013
0.256927
0.255847
0.254775
0.253709
0.25265
0.251597
0.250552
0.249514
0.248483
0.247458
0.246441
0.245431
0.244429
0.243434
0.242446
0.241465
0.240493
0.239527
0.238569
0.237618
0.236674
0.235736
0.234806
0.233881
0.232963
0.232051
0.231145
0.230245
0.22935
0.228461
0.227577
0.226697
0.225823
0.224952
0.224086
0.223225
0.222368
0.221514
0.220666
0.219821
0.21898
0.218144
0.217312
0.216484
0.215661
0.214843
0.214029
0.21322
0.212415
0.211616
0.210821
0.210031
0.209247
0.208468
0.207695
0.206927
0.206164
0.205408
0.204658
0.203924
0.277445
0.276265
0.27509
0.273919
0.272754
0.271594
0.27044
0.269292
0.26815
0.267014
0.265884
0.264761
0.263645
0.262535
0.261432
0.260334
0.259243
0.258157
0.257078
0.256006
0.25494
0.25388
0.252828
0.251782
0.250742
0.24971
0.248684
0.247665
0.246653
0.245648
0.24465
0.24366
0.242676
0.2417
0.240731
0.239769
0.238814
0.237866
0.236925
0.23599
0.235061
0.234139
0.233222
0.232312
0.231407
0.230508
0.229614
0.228725
0.227842
0.226963
0.226088
0.225219
0.224353
0.223492
0.222636
0.221784
0.220936
0.220093
0.219254
0.218419
0.21759
0.216765
0.215944
0.215129
0.214318
0.213513
0.212712
0.211916
0.211126
0.210341
0.209562
0.208788
0.208019
0.207256
0.206499
0.205749
0.205014
0.278892
0.27772
0.276552
0.275388
0.274228
0.273073
0.271924
0.270779
0.26964
0.268508
0.267381
0.26626
0.265146
0.264038
0.262936
0.26184
0.26075
0.259665
0.258587
0.257514
0.256448
0.255389
0.254335
0.253288
0.252248
0.251214
0.250187
0.249166
0.248152
0.247144
0.246144
0.24515
0.244163
0.243183
0.242211
0.241244
0.240285
0.239332
0.238386
0.237446
0.236512
0.235585
0.234663
0.233747
0.232837
0.231932
0.231033
0.23014
0.229251
0.228367
0.227488
0.226613
0.225743
0.224878
0.224017
0.223161
0.222309
0.221463
0.22062
0.219783
0.21895
0.218123
0.2173
0.216482
0.21567
0.214862
0.21406
0.213263
0.212471
0.211685
0.210904
0.210129
0.20936
0.208596
0.207839
0.207088
0.206353
0.280457
0.279295
0.278135
0.276979
0.275826
0.274678
0.273534
0.272396
0.271262
0.270134
0.269011
0.267895
0.266784
0.26568
0.264581
0.263488
0.262401
0.261319
0.260242
0.259172
0.258108
0.25705
0.255998
0.254952
0.253913
0.252879
0.251852
0.250831
0.249816
0.248808
0.247806
0.24681
0.245821
0.244838
0.243862
0.242893
0.24193
0.240973
0.240022
0.239078
0.238139
0.237207
0.23628
0.235358
0.234443
0.233533
0.232629
0.23173
0.230835
0.229946
0.229062
0.228183
0.227308
0.226438
0.225573
0.224713
0.223857
0.223007
0.222161
0.221321
0.220486
0.219656
0.218831
0.218011
0.217197
0.216388
0.215585
0.214787
0.213995
0.213208
0.212427
0.211652
0.210882
0.210118
0.20936
0.20861
0.207875
0.282006
0.280855
0.279706
0.27856
0.277417
0.276277
0.275141
0.274009
0.272882
0.27176
0.270643
0.269533
0.268428
0.267329
0.266235
0.265147
0.264064
0.262986
0.261914
0.260848
0.259787
0.258733
0.257684
0.256641
0.255604
0.254573
0.253547
0.252528
0.251514
0.250506
0.249505
0.248509
0.24752
0.246536
0.245559
0.244588
0.243622
0.242663
0.24171
0.240762
0.239821
0.238884
0.237954
0.237029
0.236109
0.235195
0.234287
0.233383
0.232485
0.231592
0.230704
0.22982
0.228942
0.228069
0.2272
0.226337
0.225478
0.224625
0.223777
0.222935
0.222098
0.221266
0.220439
0.21962
0.218805
0.217996
0.217192
0.216394
0.215602
0.214816
0.214035
0.21326
0.212491
0.211728
0.210971
0.21022
0.209486
0.283498
0.28236
0.281224
0.280089
0.278956
0.277825
0.276698
0.275574
0.274455
0.27334
0.27223
0.271126
0.270027
0.268934
0.267847
0.266764
0.265687
0.264615
0.263548
0.262487
0.261432
0.260383
0.259339
0.2583
0.257268
0.25624
0.255218
0.254201
0.25319
0.252184
0.251184
0.25019
0.2492
0.248217
0.247239
0.246267
0.2453
0.244338
0.243383
0.242432
0.241487
0.240548
0.239613
0.238684
0.237761
0.236843
0.23593
0.235023
0.234121
0.233223
0.232331
0.231444
0.230562
0.229685
0.228814
0.227948
0.227087
0.226232
0.225382
0.224538
0.2237
0.222868
0.222042
0.22122
0.220407
0.219598
0.218797
0.218
0.21721
0.216425
0.215646
0.214873
0.214106
0.213344
0.212588
0.21184
0.211108
0.284985
0.283863
0.28274
0.281617
0.280495
0.279374
0.278255
0.277139
0.276027
0.274919
0.273816
0.272718
0.271626
0.270538
0.269456
0.26838
0.267308
0.266241
0.26518
0.264124
0.263074
0.262029
0.26099
0.259956
0.258927
0.257903
0.256884
0.25587
0.254861
0.253857
0.252858
0.251864
0.250875
0.24989
0.248911
0.247937
0.246968
0.246004
0.245045
0.244091
0.243143
0.242199
0.24126
0.240326
0.239398
0.238475
0.237558
0.236646
0.235739
0.234838
0.233941
0.23305
0.232164
0.231284
0.230409
0.22954
0.228677
0.22782
0.226968
0.226123
0.225284
0.224451
0.223624
0.222805
0.22199
0.221183
0.22038
0.219586
0.218797
0.218014
0.217238
0.216467
0.215702
0.214942
0.214189
0.213442
0.212714
0.286549
0.285444
0.284335
0.283225
0.282114
0.281003
0.279893
0.278785
0.27768
0.276578
0.275481
0.274389
0.273302
0.27222
0.271144
0.270072
0.269006
0.267944
0.266889
0.265838
0.264793
0.263754
0.262719
0.26169
0.260665
0.259645
0.258629
0.257617
0.256609
0.255606
0.254607
0.253612
0.252621
0.251635
0.250652
0.249674
0.248701
0.247731
0.246767
0.245806
0.244851
0.2439
0.242953
0.242012
0.241076
0.240146
0.239221
0.238301
0.237387
0.236478
0.235575
0.234678
0.233787
0.232901
0.232022
0.231148
0.230281
0.229421
0.228567
0.22772
0.22688
0.226046
0.225221
0.224399
0.223587
0.22278
0.221981
0.221188
0.220401
0.21962
0.218846
0.218077
0.217315
0.216559
0.215808
0.215065
0.21434
0.288294
0.287208
0.286116
0.285019
0.28392
0.282819
0.281718
0.280617
0.279517
0.278421
0.277329
0.276241
0.275159
0.274082
0.27301
0.271943
0.270881
0.269824
0.268773
0.267727
0.266687
0.265652
0.264621
0.263596
0.262574
0.261556
0.260542
0.259531
0.258524
0.25752
0.256519
0.255521
0.254527
0.253535
0.252547
0.251563
0.250581
0.249604
0.24863
0.24766
0.246694
0.245733
0.244776
0.243823
0.242876
0.241935
0.240999
0.240069
0.239145
0.238227
0.237315
0.236409
0.235509
0.234616
0.23373
0.232851
0.231979
0.231114
0.230257
0.229408
0.228565
0.227731
0.226903
0.226084
0.225271
0.224466
0.223666
0.222876
0.222092
0.221314
0.220543
0.219778
0.219019
0.218266
0.217519
0.216779
0.216057
0.290321
0.289255
0.288181
0.2871
0.286014
0.284923
0.28383
0.282735
0.281641
0.280549
0.279461
0.278377
0.277299
0.276226
0.275158
0.274095
0.273038
0.271986
0.270941
0.2699
0.268865
0.267835
0.26681
0.265789
0.264771
0.263756
0.262743
0.261733
0.260725
0.259718
0.258714
0.257711
0.25671
0.25571
0.254713
0.253717
0.252723
0.251733
0.250745
0.24976
0.248778
0.2478
0.246826
0.245857
0.244894
0.243936
0.242984
0.242038
0.241099
0.240166
0.239241
0.238322
0.237411
0.236507
0.235612
0.234724
0.233845
0.232975
0.232112
0.231259
0.230414
0.229578
0.228751
0.22793
0.22712
0.226316
0.225522
0.224733
0.223952
0.223178
0.22241
0.221649
0.220895
0.220146
0.219403
0.218668
0.217951
0.292753
0.291713
0.29066
0.289596
0.288523
0.287442
0.286356
0.285267
0.284177
0.283088
0.282002
0.280921
0.279845
0.278775
0.27771
0.276651
0.275597
0.27455
0.273509
0.272474
0.271444
0.270419
0.269399
0.268382
0.267367
0.266354
0.265342
0.264331
0.26332
0.262309
0.261299
0.260288
0.259276
0.258265
0.257253
0.256242
0.255231
0.254222
0.253214
0.252208
0.251205
0.250205
0.249209
0.248217
0.247231
0.24625
0.245277
0.24431
0.243351
0.242399
0.241456
0.24052
0.239594
0.238676
0.237768
0.23687
0.235982
0.235103
0.234234
0.233376
0.232528
0.231689
0.23086
0.230043
0.229232
0.228431
0.227637
0.226854
0.226077
0.225308
0.224546
0.22379
0.223042
0.222298
0.221562
0.220831
0.220119
0.295719
0.294708
0.293678
0.292632
0.291572
0.290501
0.289421
0.288336
0.287247
0.286159
0.285074
0.283994
0.282919
0.28185
0.280788
0.279732
0.278684
0.277642
0.276607
0.275579
0.274557
0.273539
0.272526
0.271514
0.270504
0.269494
0.268483
0.267471
0.266456
0.265439
0.264419
0.263396
0.26237
0.261341
0.260309
0.259275
0.258239
0.257203
0.256166
0.255131
0.254096
0.253064
0.252036
0.251012
0.249994
0.248983
0.247979
0.246983
0.245996
0.245018
0.244049
0.243091
0.242144
0.241208
0.240283
0.23937
0.238469
0.23758
0.236704
0.235839
0.234986
0.234146
0.233318
0.232498
0.231692
0.230895
0.230109
0.22933
0.228559
0.227797
0.227042
0.226294
0.225552
0.224817
0.224087
0.223364
0.222657
0.299386
0.298407
0.297403
0.296376
0.295329
0.294265
0.293188
0.292102
0.291012
0.289919
0.288831
0.287748
0.286671
0.285601
0.284538
0.283484
0.282438
0.281401
0.280372
0.279351
0.278336
0.277327
0.27632
0.275314
0.274309
0.273301
0.27229
0.271275
0.270254
0.269228
0.268194
0.267154
0.266107
0.265054
0.263994
0.262929
0.261859
0.260787
0.259712
0.258636
0.25756
0.256486
0.255415
0.254349
0.253288
0.252236
0.251192
0.250158
0.249135
0.248123
0.247123
0.246136
0.245162
0.244202
0.243256
0.242325
0.241408
0.240507
0.23962
0.238748
0.23789
0.237047
0.236216
0.235402
0.234597
0.233806
0.233022
0.232252
0.23149
0.230736
0.229991
0.229252
0.228521
0.227794
0.227075
0.226359
0.22566
0.303921
0.302973
0.30199
0.300977
0.299937
0.298874
0.297793
0.296699
0.295598
0.294497
0.293397
0.292305
0.29122
0.290144
0.289078
0.288023
0.28698
0.285948
0.284926
0.283914
0.282909
0.28191
0.280914
0.279918
0.278919
0.277915
0.276905
0.275886
0.274856
0.273816
0.272765
0.271701
0.270625
0.269537
0.268438
0.26733
0.266214
0.26509
0.263962
0.262831
0.261699
0.260567
0.259438
0.258315
0.257198
0.256091
0.254994
0.25391
0.252838
0.251782
0.25074
0.249714
0.248706
0.247715
0.246742
0.245787
0.244851
0.243933
0.243034
0.242152
0.241288
0.240442
0.239614
0.238797
0.237999
0.237213
0.236443
0.23568
0.234929
0.234186
0.233452
0.232726
0.232006
0.231292
0.230582
0.229878
0.229187
0.309468
0.308548
0.307583
0.306575
0.305532
0.304459
0.303361
0.302247
0.301123
0.299999
0.298879
0.297765
0.296662
0.295571
0.294494
0.293431
0.292385
0.291353
0.290336
0.289331
0.288336
0.287348
0.286362
0.285375
0.284385
0.283385
0.282375
0.281351
0.280312
0.279256
0.27818
0.277085
0.27597
0.274836
0.273685
0.272519
0.27134
0.27015
0.268954
0.267752
0.266547
0.265342
0.26414
0.262945
0.261758
0.260582
0.259419
0.258272
0.257141
0.256029
0.254936
0.253863
0.252812
0.251783
0.250777
0.249793
0.248833
0.247895
0.24698
0.246087
0.245215
0.244364
0.243531
0.242722
0.241926
0.241149
0.240382
0.239632
0.238894
0.238165
0.237445
0.236733
0.236027
0.235327
0.234633
0.23394
0.23326
0.316062
0.315157
0.314191
0.313173
0.312108
0.311005
0.309872
0.308718
0.307557
0.306393
0.305233
0.304085
0.30295
0.301832
0.300734
0.299657
0.298602
0.297569
0.296554
0.295557
0.294572
0.293596
0.292623
0.291649
0.290667
0.289675
0.288666
0.287637
0.286582
0.285502
0.284394
0.283258
0.282094
0.280904
0.279688
0.278451
0.277195
0.275922
0.274638
0.273346
0.272051
0.270755
0.269463
0.268178
0.266904
0.265645
0.264402
0.263178
0.261976
0.260797
0.259642
0.258513
0.257411
0.256336
0.25529
0.254272
0.253282
0.25232
0.251385
0.250477
0.249595
0.248739
0.247908
0.247095
0.246308
0.245537
0.244788
0.24405
0.243326
0.242614
0.241913
0.241221
0.240537
0.23986
0.239185
0.238517
0.237857
0.32357
0.322668
0.321683
0.320636
0.319534
0.318384
0.317197
0.315989
0.314767
0.313541
0.312321
0.311115
0.309928
0.308765
0.307628
0.30652
0.305442
0.304392
0.303369
0.302368
0.301384
0.300413
0.299445
0.298475
0.297499
0.296505
0.295488
0.294442
0.293366
0.292255
0.291108
0.289924
0.288702
0.287447
0.286158
0.284841
0.283498
0.282136
0.280757
0.279366
0.277971
0.276575
0.275184
0.273803
0.272435
0.271085
0.269756
0.268451
0.267172
0.265921
0.2647
0.263511
0.262354
0.261232
0.260143
0.259088
0.258067
0.25708
0.256126
0.255204
0.254314
0.253454
0.252621
0.251822
0.251043
0.250292
0.249559
0.24885
0.24816
0.247486
0.246828
0.246183
0.245551
0.24493
0.244321
0.243718
0.243125
0.330854
0.329837
0.328733
0.327557
0.326326
0.325055
0.323756
0.322438
0.321117
0.319804
0.31851
0.317242
0.316005
0.314803
0.31364
0.312515
0.311429
0.310376
0.309353
0.308354
0.307369
0.306392
0.305414
0.304424
0.303413
0.302374
0.301301
0.300191
0.299039
0.297843
0.296601
0.295316
0.293988
0.292622
0.291221
0.289791
0.288336
0.286864
0.285379
0.283886
0.282394
0.280908
0.279435
0.277979
0.276545
0.275137
0.273758
0.27241
0.271097
0.269819
0.26858
0.267379
0.266219
0.265099
0.26402
0.262983
0.261987
0.261032
0.260118
0.259244
0.258411
0.257619
0.25686
0.256144
0.255463
0.254822
0.254212
0.253636
0.253094
0.252586
0.252111
0.25167
0.251261
0.250882
0.250537
0.250206
0.339543
0.338415
0.33719
0.335879
0.334512
0.333104
0.331658
0.330191
0.328721
0.327265
0.325833
0.324436
0.32308
0.321771
0.320511
0.319302
0.318141
0.317025
0.315947
0.3149
0.313875
0.312864
0.311851
0.310827
0.309781
0.308707
0.307595
0.30644
0.305239
0.303988
0.302686
0.301334
0.299936
0.298495
0.297017
0.295509
0.293978
0.292429
0.29087
0.289309
0.287749
0.286201
0.284672
0.283166
0.281688
0.280243
0.278833
0.277462
0.276133
0.274848
0.273609
0.272419
0.27128
0.270194
0.269162
0.268186
0.267268
0.26641
0.265614
0.264882
0.264217
0.263619
0.2631
0.26265
0.262282
0.26199
0.261789
0.261676
0.261656
0.261734
0.261913
0.262198
0.262592
0.2631
0.263713
0.264375
0.346907
0.345433
0.343899
0.342305
0.340667
0.339
0.337323
0.335658
0.334021
0.332427
0.330885
0.329405
0.327991
0.326648
0.325377
0.324175
0.32304
0.321963
0.320935
0.319952
0.318997
0.318052
0.317101
0.31613
0.315121
0.31406
0.312936
0.311741
0.310469
0.309119
0.307695
0.306205
0.304657
0.303063
0.301435
0.299787
0.29813
0.296479
0.294841
0.293226
0.291639
0.290096
0.2886
0.287154
0.285762
0.284427
0.283153
0.281945
0.280806
0.279742
0.278758
0.27786
0.277056
0.276352
0.275756
0.275277
0.274925
0.274712
0.274648
0.274748
0.275027
0.275492
0.276172
0.277074
0.278226
0.279634
0.281325
0.283317
0.28563
0.288281
0.291287
0.29466
0.298403
0.302517
0.30677
0.352434
0.350569
0.348708
0.34683
0.34496
0.343123
0.341341
0.339636
0.338024
0.336519
0.335135
0.333885
0.332778
0.331824
0.331028
0.330395
0.32992
0.329616
0.32947
0.329446
0.329495
0.32956
0.329575
0.329477
0.329206
0.328713
0.327964
0.326942
0.32565
0.324106
0.322342
0.3204
0.318328
0.316174
0.313987
0.31181
0.309678
0.307629
0.305691
0.303879
0.302219
0.300737
0.299426
0.298282
0.297309
0.296509
0.295892
0.295467
0.295249
0.295255
0.295507
0.296028
0.296845
0.297986
0.299487
0.301382
0.303713
0.306523
0.30986
0.313769
0.318313
0.323532
0.329492
0.336236
0.343831
0.352317
0.361736
0.372124
0.383504
0.395886
0.409257
0.42359
0.438782
0.45403
0.355234
0.35323
0.351338
0.349584
0.348001
0.346627
0.345498
0.344662
0.344164
0.344058
0.344412
0.345292
0.34676
0.348911
0.351798
0.355455
0.360053
0.365441
0.371412
0.377682
0.383918
0.389767
0.394893
0.399015
0.401925
0.403506
0.403737
0.402678
0.400463
0.397275
0.393328
0.388849
0.38406
0.379167
0.374361
0.369804
0.365617
0.36195
0.358889
0.35645
0.354841
0.354064
0.354072
0.35484
0.356358
0.358631
0.361677
0.365527
0.37022
0.375808
0.382348
0.389906
0.398555
0.408371
0.419433
0.431825
0.44563
0.460926
0.477789
0.496264
0.516425
0.538293
0.561903
0.587222
0.614236
0.642883
0.673078
0.7047
0.737601
0.771599
0.806441
0.841771
0.875202
0.360838
0.359455
0.358506
0.358081
0.358294
0.359282
0.361232
0.364376
0.369002
0.375445
0.384118
0.395432
0.40979
0.427656
0.449179
0.474727
0.504176
0.536386
0.569881
0.603028
0.634208
0.661991
0.685266
0.703302
0.715776
0.72273
0.724521
0.721732
0.715105
0.705477
0.6937
0.680599
0.666963
0.653474
0.64075
0.629355
0.619736
0.612251
0.607329
0.605109
0.605662
0.609716
0.616831
0.626723
0.639148
0.653895
0.670801
0.689729
0.710583
0.733273
0.757725
0.783876
0.811697
0.841078
0.872093
0.904751
0.939017
0.974849
1.01216
1.05094
1.0911
1.13259
1.17528
1.2191
1.26385
1.30938
1.35549
1.40196
1.44856
1.49502
1.54106
1.586
1.62572
0.383033
0.384451
0.387564
0.392671
0.400398
0.411593
0.427334
0.448991
0.47815
0.516454
0.565549
0.626631
0.700198
0.786278
0.883056
0.989405
1.10116
1.2123
1.3172
1.41127
1.49121
1.55514
1.60246
1.63366
1.65004
1.65346
1.64612
1.63026
1.60819
1.58211
1.55406
1.52583
1.49901
1.47489
1.45474
1.43914
1.42943
1.42585
1.4283
1.43647
1.45141
1.47118
1.49464
1.52083
1.54884
1.57782
1.60728
1.63697
1.66713
1.69734
1.72713
1.75659
1.78592
1.81531
1.84494
1.87501
1.90572
1.93723
1.96968
2.00312
2.03767
2.07327
2.10993
2.14747
2.18581
2.22478
2.26415
2.30368
2.34314
2.38228
2.4207
2.45763
2.48773
0.486726
0.507075
0.537165
0.579637
0.638622
0.718723
0.824308
0.958772
1.12345
1.31696
1.53496
1.77034
2.01484
2.25797
2.49276
2.70757
2.89358
3.04595
3.16327
3.24674
3.29935
3.32514
3.32863
3.31451
3.2872
3.25082
3.20896
3.16493
3.12135
3.08069
3.0445
3.01393
2.98979
2.97249
2.96161
2.95725
2.9578
2.96269
2.9718
2.98147
2.98975
2.99646
3.00136
3.00424
3.00502
3.0039
3.00115
2.99725
2.99271
2.98814
2.98404
2.98106
2.97969
2.97986
2.98172
2.98545
2.99119
2.99894
3.00901
3.02137
3.03602
3.05269
3.07116
3.09114
3.1124
3.13463
3.15761
3.18115
3.20479
3.22815
3.25007
3.26534
0.981189
1.1109
1.28639
1.50989
1.78389
2.1054
2.46553
2.85061
3.2444
3.63009
3.99339
4.32069
4.60579
4.84091
5.02159
5.15038
5.23241
5.27419
5.28275
5.26498
5.22733
5.17567
5.11507
5.04981
4.98335
4.9184
4.85696
4.80058
4.74994
4.70539
4.66619
4.63244
4.60264
4.57561
4.54953
4.52457
4.49782
4.46751
4.43489
4.40008
4.36322
4.32481
4.28507
4.24458
4.20389
4.16237
4.12066
4.08002
4.04128
4.00502
3.97171
3.94168
3.91515
3.8922
3.87282
3.857
3.84454
3.83526
3.82933
3.82648
3.82591
3.82718
3.8301
3.83446
3.83986
3.84577
3.85228
3.85916
3.86587
3.87149
3.87183
2.66437
3.02709
3.45107
3.9101
4.38707
4.86175
5.31463
5.72898
6.09262
6.39656
6.63783
6.8164
6.92984
6.98741
6.99847
6.97231
6.91753
6.8419
6.7522
6.65423
6.55271
6.45137
6.35305
6.25957
6.17206
6.09108
6.01653
5.9478
5.88407
5.82408
5.76678
5.71037
5.65501
5.59887
5.54075
5.48145
5.42079
5.35989
5.29683
5.23259
5.16805
5.10391
5.04076
4.97906
4.91918
4.8615
4.80644
4.75433
4.70541
4.65993
4.61807
4.57969
4.54489
4.51356
4.48556
4.46068
4.43866
4.41922
4.40217
4.3871
4.37364
4.36144
4.35028
4.33985
4.32976
4.32009
4.31067
4.30124
4.29107
4.27822
5.10487
5.61337
6.12265
6.61026
7.05577
7.44257
7.7595
8.00052
8.16628
8.26044
8.28614
8.2566
8.1838
8.07888
7.95157
7.81031
7.66214
7.51272
7.36652
7.22662
7.09515
6.97318
6.86097
6.75825
6.66417
6.57767
6.49761
6.42243
6.35056
6.28147
6.21397
6.14671
6.08027
6.01308
5.94567
5.87829
5.81115
5.7442
5.67772
5.61187
5.54699
5.48335
5.4213
5.36097
5.30289
5.24683
5.19287
5.14149
5.09294
5.04702
5.00368
4.96284
4.9244
4.88826
4.85422
4.82201
4.79152
4.76248
4.73474
4.7079
4.68186
4.65641
4.6314
4.60659
4.58211
4.55788
4.53379
4.50979
4.48635
6.79589
7.37194
7.88855
8.31884
8.65896
8.90497
9.05694
9.12278
9.11088
9.03336
8.90539
8.74147
8.5538
8.35347
8.14903
7.94776
7.75459
7.57341
7.40634
7.25452
7.11792
6.99584
6.88688
6.78968
6.70232
6.62302
6.5502
6.48199
6.4177
6.35551
6.29522
6.23621
6.17819
6.12058
6.06329
6.00615
5.94922
5.8924
5.83585
5.77957
5.72375
5.66845
5.61388
5.56008
5.50722
5.45538
5.40466
5.35509
5.30676
5.25962
5.21368
5.16888
5.12517
5.08247
5.04073
4.99985
4.95969
4.92022
4.88132
4.84289
4.80483
4.76709
4.72964
4.69243
4.65556
4.61911
4.58323
4.54831
4.51747
8.78704
9.16259
9.41149
9.54527
9.57629
9.51713
9.38604
9.20148
8.97841
8.73228
8.47489
8.2179
7.96857
7.73399
7.5174
7.3217
7.14725
6.99407
6.86059
6.74517
6.64534
6.5587
6.48316
6.41622
6.35638
6.30151
6.25096
6.20388
6.15941
6.11631
6.07439
6.03273
5.99138
5.94974
5.90803
5.86581
5.82336
5.78031
5.73692
5.69291
5.64855
5.60363
5.55838
5.51265
5.46665
5.42029
5.37373
5.32684
5.27978
5.23249
5.18508
5.1375
5.08985
5.04216
4.99442
4.94677
4.89917
4.85171
4.80434
4.75711
4.71015
4.66347
4.6172
4.57138
4.5263
4.48215
4.44
4.40505
9.64385
9.64987
9.55466
9.37746
9.11729
8.84981
8.55859
8.26208
7.96634
7.68508
7.42106
7.18219
6.96786
6.78094
6.61874
6.48086
6.36404
6.26582
6.18339
6.11369
6.05479
6.00363
5.96003
5.92135
5.88757
5.85669
5.82892
5.802
5.77664
5.75097
5.72594
5.69991
5.67394
5.64666
5.6191
5.59003
5.56033
5.52895
5.49667
5.46262
5.42746
5.39049
5.3523
5.31235
5.27114
5.22825
5.18408
5.13836
5.09147
5.04327
4.99404
4.94377
4.89272
4.84108
4.78882
4.73624
4.68345
4.63062
4.57791
4.52526
4.47315
4.42145
4.37053
4.32038
4.27177
4.22582
4.19043
9.18033
9.00533
8.7645
8.45345
0.274307
0.273103
0.271905
0.270714
0.26953
0.268353
0.267184
0.266022
0.264867
0.26372
0.26258
0.261447
0.260322
0.259204
0.258094
0.25699
0.255893
0.254804
0.253721
0.252646
0.251578
0.250517
0.249464
0.248418
0.24738
0.246349
0.245326
0.24431
0.243302
0.242301
0.241309
0.240324
0.239347
0.238377
0.237415
0.236461
0.235514
0.234574
0.233641
0.232714
0.231794
0.230881
0.229974
0.229072
0.228176
0.227286
0.226401
0.22552
0.224645
0.223774
0.222907
0.222045
0.221186
0.220332
0.219482
0.218635
0.217792
0.216954
0.216119
0.215288
0.214461
0.213639
0.212821
0.212007
0.211198
0.210394
0.209595
0.2088
0.208011
0.207227
0.206449
0.205676
0.204909
0.204147
0.203392
0.202643
0.201911
0.274411
0.273209
0.272013
0.270824
0.269642
0.268466
0.267299
0.266138
0.264985
0.263839
0.262701
0.26157
0.260447
0.259331
0.258221
0.257119
0.256024
0.254936
0.253854
0.25278
0.251713
0.250653
0.249601
0.248556
0.247518
0.246488
0.245465
0.244449
0.243441
0.242441
0.241449
0.240464
0.239487
0.238517
0.237555
0.236601
0.235653
0.234713
0.23378
0.232854
0.231934
0.231021
0.230113
0.229212
0.228316
0.227426
0.226541
0.225661
0.224786
0.223916
0.223049
0.222188
0.22133
0.220476
0.219627
0.218781
0.217939
0.217101
0.216267
0.215438
0.214612
0.21379
0.212973
0.21216
0.211353
0.210549
0.209751
0.208957
0.208168
0.207385
0.206607
0.205834
0.205067
0.204305
0.203549
0.202801
0.202069
0.274675
0.273476
0.272284
0.271098
0.269919
0.268747
0.267583
0.266425
0.265275
0.264131
0.262996
0.261867
0.260746
0.259632
0.258524
0.257424
0.25633
0.255244
0.254164
0.25309
0.252024
0.250966
0.249914
0.248869
0.247832
0.246802
0.245779
0.244764
0.243756
0.242755
0.241762
0.240777
0.2398
0.23883
0.237867
0.236912
0.235964
0.235024
0.23409
0.233163
0.232242
0.231328
0.23042
0.229519
0.228622
0.227732
0.226847
0.225967
0.225091
0.224221
0.223355
0.222493
0.221635
0.220782
0.219933
0.219088
0.218246
0.217409
0.216576
0.215747
0.214922
0.214101
0.213285
0.212473
0.211666
0.210864
0.210066
0.209273
0.208486
0.207703
0.206925
0.206153
0.205387
0.204625
0.20387
0.203122
0.20239
0.275169
0.273976
0.272789
0.271608
0.270434
0.269266
0.268105
0.266951
0.265804
0.264664
0.263531
0.262405
0.261287
0.260175
0.25907
0.257972
0.25688
0.255795
0.254716
0.253645
0.25258
0.251522
0.250471
0.249427
0.24839
0.247361
0.246338
0.245323
0.244314
0.243314
0.242321
0.241335
0.240356
0.239386
0.238422
0.237466
0.236517
0.235575
0.23464
0.233712
0.232791
0.231875
0.230966
0.230063
0.229166
0.228274
0.227388
0.226507
0.225631
0.224759
0.223892
0.22303
0.222172
0.221318
0.220468
0.219622
0.218781
0.217944
0.21711
0.216281
0.215457
0.214636
0.21382
0.213009
0.212202
0.2114
0.210603
0.20981
0.209023
0.208241
0.207464
0.206692
0.205925
0.205165
0.204409
0.203661
0.202929
0.275975
0.274789
0.273607
0.272432
0.271263
0.2701
0.268943
0.267793
0.266649
0.265512
0.264382
0.263259
0.262143
0.261033
0.25993
0.258833
0.257743
0.25666
0.255582
0.254512
0.253447
0.25239
0.251339
0.250296
0.249259
0.248229
0.247205
0.246189
0.24518
0.244179
0.243184
0.242197
0.241217
0.240244
0.239279
0.23832
0.237369
0.236425
0.235488
0.234557
0.233633
0.232715
0.231803
0.230897
0.229998
0.229103
0.228215
0.227331
0.226452
0.225579
0.22471
0.223845
0.222985
0.222129
0.221278
0.22043
0.219587
0.218749
0.217914
0.217084
0.216259
0.215437
0.214621
0.213809
0.213001
0.212199
0.211402
0.210609
0.209822
0.209039
0.208262
0.20749
0.206724
0.205963
0.205208
0.20446
0.203728
0.277117
0.275937
0.274762
0.273592
0.272428
0.271269
0.270117
0.26897
0.26783
0.266696
0.265568
0.264447
0.263333
0.262225
0.261124
0.260029
0.25894
0.257857
0.25678
0.25571
0.254646
0.253589
0.252538
0.251493
0.250456
0.249425
0.2484
0.247383
0.246372
0.245368
0.244371
0.243381
0.242398
0.241423
0.240454
0.239492
0.238537
0.237589
0.236648
0.235713
0.234785
0.233863
0.232947
0.232037
0.231133
0.230234
0.229341
0.228454
0.227571
0.226693
0.225821
0.224952
0.224089
0.22323
0.222375
0.221525
0.220679
0.219838
0.219001
0.218169
0.217341
0.216518
0.2157
0.214887
0.214078
0.213275
0.212476
0.211683
0.210895
0.210112
0.209334
0.208562
0.207796
0.207034
0.206279
0.205531
0.204798
0.278523
0.277351
0.276183
0.275019
0.27386
0.272706
0.271558
0.270415
0.269279
0.268148
0.267023
0.265905
0.264793
0.263687
0.262588
0.261494
0.260407
0.259325
0.258249
0.25718
0.256116
0.255059
0.254008
0.252964
0.251925
0.250893
0.249868
0.248849
0.247836
0.24683
0.245831
0.244838
0.243852
0.242873
0.2419
0.240935
0.239975
0.239023
0.238077
0.237137
0.236204
0.235277
0.234356
0.233441
0.232531
0.231628
0.230729
0.229837
0.228949
0.228066
0.227189
0.226316
0.225448
0.224585
0.223726
0.222872
0.222023
0.221178
0.220338
0.219503
0.218673
0.217848
0.217027
0.216212
0.215402
0.214596
0.213797
0.213002
0.212213
0.21143
0.210651
0.209879
0.209112
0.20835
0.207594
0.206846
0.206113
0.280042
0.278879
0.27772