/*--------------------------------*- C++ -*----------------------------------*\
  =========                 |
  \\      /  F ield         | OpenFOAM: The Open Source CFD Toolbox
   \\    /   O peration     | Website:  https://openfoam.org
    \\  /    A nd           | Version:  13
     \\/     M anipulation  |
\*---------------------------------------------------------------------------*/
FoamFile
{
    format      ascii;
    class       volScalarField;
    location    "800";
    object      nut;
}
// * * * * * * * * * * * * * * * * * * * * * * * * * * * * * * * * * * * * * //

dimensions      [0 2 -1 0 0 0 0];

internalField   nonuniform List<scalar> 
172836
(
0.0176224
0.0176112
0.0176002
0.0175892
0.0175783
0.0175675
0.0175568
0.0175461
0.0176385
0.0176274
0.0176165
0.0176056
0.0175948
0.0175841
0.0175734
0.0175629
0.0176864
0.0176754
0.0176645
0.0176537
0.017643
0.0176324
0.0176218
0.0176113
0.0176008
0.0177533
0.0177425
0.0177318
0.0177212
0.0177106
0.0177001
0.0176897
0.0176794
0.0176691
0.0178604
0.0178498
0.0178392
0.0178287
0.0178182
0.0178079
0.0177975
0.0177873
0.0177771
0.0180143
0.0180037
0.0179932
0.0179827
0.0179723
0.017962
0.0179518
0.0179416
0.0179315
0.0182164
0.0182058
0.0181953
0.0181849
0.0181745
0.0181642
0.018154
0.0181439
0.0181339
0.0184626
0.0184521
0.0184416
0.0184313
0.018421
0.0184109
0.0184008
0.0183907
0.0183808
0.018724
0.0187139
0.0187039
0.018694
0.0186842
0.0186744
0.0186647
0.0186552
0.0176495
0.0176383
0.0176271
0.017616
0.0176049
0.0175938
0.0175829
0.017572
0.0175612
0.0175504
0.0175397
0.0175292
0.0175192
0.017665
0.0176538
0.0176428
0.0176317
0.0176207
0.0176098
0.0175989
0.0175881
0.0175774
0.0175667
0.0175562
0.0175457
0.0175358
0.0177008
0.0176898
0.0176789
0.017668
0.0176572
0.0176464
0.0176357
0.0176251
0.0176145
0.017604
0.0175935
0.0175832
0.0175734
0.0177665
0.0177557
0.0177449
0.0177342
0.0177236
0.017713
0.0177025
0.017692
0.0176815
0.0176712
0.0176609
0.0176507
0.0176411
0.0178722
0.0178615
0.0178509
0.0178404
0.0178299
0.0178194
0.017809
0.0177986
0.0177883
0.0177781
0.017768
0.0177579
0.0177484
0.0180249
0.0180143
0.0180037
0.0179932
0.0179827
0.0179724
0.017962
0.0179518
0.0179416
0.0179314
0.0179214
0.0179114
0.017902
0.018226
0.0182153
0.0182048
0.0181943
0.0181838
0.0181735
0.0181632
0.018153
0.0181429
0.0181328
0.0181228
0.018113
0.0181036
0.0184708
0.0184602
0.0184497
0.0184393
0.018429
0.0184188
0.0184086
0.0183985
0.0183885
0.0183786
0.0183687
0.018359
0.0183497
0.0187398
0.0187296
0.0187195
0.0187094
0.0186994
0.0186896
0.0186798
0.0186701
0.0186605
0.0186509
0.0186414
0.0186321
0.0186231
0.0188934
0.0184019
0.0183892
0.0183765
0.0183638
0.018351
0.0183382
0.0183254
0.0183126
0.0182997
0.0182869
0.0182741
0.0182613
0.0182485
0.0182357
0.018223
0.0182102
0.0181975
0.0181848
0.0181721
0.0181595
0.0181469
0.0181343
0.0181218
0.0181094
0.018097
0.0180846
0.0180724
0.0180602
0.0180481
0.0180361
0.0180241
0.0180123
0.0180005
0.0179888
0.0179772
0.0179657
0.0179543
0.017943
0.0179317
0.0179205
0.0179093
0.0178982
0.0178871
0.0178761
0.0178651
0.0178541
0.0178431
0.0178321
0.0178212
0.0178102
0.0177992
0.0177881
0.0177771
0.017766
0.0177549
0.0177438
0.0177326
0.0177214
0.0177103
0.017699
0.0176878
0.0176766
0.0176654
0.0176542
0.017643
0.0176318
0.0176207
0.0176096
0.0175985
0.0175875
0.0175765
0.0175656
0.0175548
0.017544
0.0175333
0.0175228
0.0175128
0.0184105
0.018398
0.0183855
0.0183729
0.0183603
0.0183476
0.018335
0.0183223
0.0183096
0.018297
0.0182843
0.0182716
0.018259
0.0182464
0.0182337
0.0182211
0.0182085
0.0181959
0.0181834
0.0181708
0.0181583
0.0181459
0.0181335
0.0181211
0.0181088
0.0180966
0.0180844
0.0180723
0.0180602
0.0180483
0.0180364
0.0180246
0.0180129
0.0180013
0.0179898
0.0179784
0.017967
0.0179558
0.0179445
0.0179334
0.0179223
0.0179113
0.0179003
0.0178893
0.0178784
0.0178674
0.0178565
0.0178456
0.0178347
0.0178238
0.0178129
0.017802
0.017791
0.01778
0.017769
0.017758
0.0177469
0.0177358
0.0177247
0.0177136
0.0177025
0.0176914
0.0176803
0.0176692
0.0176581
0.017647
0.017636
0.017625
0.017614
0.0176031
0.0175922
0.0175814
0.0175707
0.01756
0.0175494
0.017539
0.0175291
0.0184346
0.0184225
0.0184103
0.0183981
0.0183858
0.0183735
0.0183612
0.0183488
0.0183364
0.018324
0.0183116
0.0182992
0.0182868
0.0182745
0.0182621
0.0182497
0.0182373
0.0182249
0.0182126
0.0182002
0.0181879
0.0181756
0.0181634
0.0181512
0.0181391
0.018127
0.0181149
0.0181029
0.018091
0.0180792
0.0180674
0.0180558
0.0180442
0.0180327
0.0180212
0.0180099
0.0179986
0.0179875
0.0179763
0.0179653
0.0179543
0.0179433
0.0179324
0.0179215
0.0179107
0.0178999
0.0178891
0.0178783
0.0178675
0.0178567
0.0178459
0.0178351
0.0178242
0.0178134
0.0178025
0.0177916
0.0177807
0.0177698
0.0177588
0.0177479
0.0177369
0.017726
0.017715
0.0177041
0.0176932
0.0176823
0.0176714
0.0176606
0.0176498
0.017639
0.0176283
0.0176177
0.0176071
0.0175966
0.0175861
0.0175758
0.017566
0.0184879
0.0184765
0.0184648
0.0184532
0.0184414
0.0184295
0.0184176
0.0184057
0.0183937
0.0183817
0.0183697
0.0183576
0.0183455
0.0183334
0.0183213
0.0183092
0.0182971
0.018285
0.0182729
0.0182607
0.0182486
0.0182365
0.0182245
0.0182124
0.0182004
0.0181885
0.0181766
0.0181647
0.0181529
0.0181411
0.0181295
0.0181178
0.0181063
0.0180949
0.0180835
0.0180722
0.0180609
0.0180498
0.0180387
0.0180276
0.0180167
0.0180057
0.0179949
0.017984
0.0179732
0.0179624
0.0179517
0.0179409
0.0179302
0.0179195
0.0179087
0.017898
0.0178872
0.0178765
0.0178657
0.0178549
0.0178441
0.0178333
0.0178225
0.0178117
0.0178009
0.0177901
0.0177793
0.0177686
0.0177578
0.0177471
0.0177364
0.0177258
0.0177152
0.0177046
0.0176941
0.0176836
0.0176732
0.0176628
0.0176526
0.0176424
0.0176328
0.0185885
0.0185777
0.0185667
0.0185556
0.0185443
0.018533
0.0185215
0.01851
0.0184984
0.0184867
0.0184749
0.0184632
0.0184513
0.0184395
0.0184276
0.0184157
0.0184037
0.0183917
0.0183797
0.0183677
0.0183557
0.0183437
0.0183317
0.0183197
0.0183077
0.0182957
0.0182838
0.0182719
0.01826
0.0182482
0.0182364
0.0182247
0.018213
0.0182015
0.0181899
0.0181785
0.0181671
0.0181558
0.0181445
0.0181333
0.0181221
0.018111
0.0181
0.018089
0.018078
0.0180671
0.0180562
0.0180453
0.0180345
0.0180236
0.0180128
0.018002
0.0179912
0.0179804
0.0179696
0.0179588
0.017948
0.0179372
0.0179265
0.0179157
0.017905
0.0178943
0.0178836
0.017873
0.0178623
0.0178518
0.0178412
0.0178307
0.0178202
0.0178098
0.0177995
0.0177891
0.0177789
0.0177687
0.0177586
0.0177486
0.0177391
0.0187488
0.0187386
0.0187281
0.0187175
0.0187066
0.0186956
0.0186844
0.0186731
0.0186617
0.0186502
0.0186385
0.0186269
0.0186151
0.0186033
0.0185914
0.0185795
0.0185675
0.0185555
0.0185435
0.0185314
0.0185192
0.0185071
0.0184949
0.0184827
0.0184706
0.0184584
0.0184462
0.018434
0.0184219
0.0184097
0.0183976
0.0183855
0.0183735
0.0183615
0.0183496
0.0183377
0.0183259
0.0183142
0.0183025
0.0182908
0.0182792
0.0182677
0.0182562
0.0182447
0.0182333
0.018222
0.0182107
0.0181995
0.0181882
0.0181771
0.0181659
0.0181548
0.0181437
0.0181327
0.0181217
0.0181107
0.0180998
0.0180888
0.018078
0.0180671
0.0180564
0.0180456
0.0180349
0.0180243
0.0180137
0.0180032
0.0179927
0.0179823
0.0179719
0.0179616
0.0179513
0.0179411
0.017931
0.0179209
0.0179109
0.0179011
0.0178917
0.0189658
0.018956
0.0189459
0.0189355
0.0189249
0.0189141
0.0189031
0.0188919
0.0188806
0.0188691
0.0188575
0.0188458
0.0188341
0.0188222
0.0188103
0.0187983
0.0187862
0.018774
0.0187618
0.0187495
0.0187372
0.0187248
0.0187124
0.0186999
0.0186875
0.018675
0.0186624
0.0186499
0.0186373
0.0186247
0.0186122
0.0185996
0.0185871
0.0185746
0.0185621
0.0185496
0.0185372
0.0185249
0.0185125
0.0185003
0.018488
0.0184759
0.0184637
0.0184517
0.0184397
0.0184278
0.0184159
0.0184041
0.0183924
0.0183807
0.0183691
0.0183575
0.018346
0.0183346
0.0183232
0.0183119
0.0183007
0.0182895
0.0182784
0.0182674
0.0182565
0.0182456
0.0182348
0.0182242
0.0182135
0.018203
0.0181925
0.0181821
0.0181718
0.0181616
0.0181514
0.0181413
0.0181313
0.0181213
0.0181114
0.0181016
0.0180923
0.0192132
0.019204
0.0191945
0.0191848
0.0191747
0.0191644
0.0191538
0.0191431
0.0191321
0.019121
0.0191098
0.0190985
0.019087
0.0190754
0.0190638
0.019052
0.0190401
0.0190281
0.0190161
0.019004
0.0189918
0.0189795
0.0189672
0.0189547
0.0189423
0.0189298
0.0189172
0.0189045
0.0188918
0.0188791
0.0188664
0.0188536
0.0188408
0.018828
0.0188152
0.0188023
0.0187896
0.0187768
0.018764
0.0187513
0.0187386
0.018726
0.0187134
0.0187008
0.0186883
0.0186759
0.0186636
0.0186513
0.0186391
0.018627
0.018615
0.0186031
0.0185912
0.0185794
0.0185678
0.0185562
0.0185448
0.0185334
0.0185222
0.018511
0.0185
0.0184891
0.0184783
0.0184676
0.018457
0.0184465
0.0184362
0.0184259
0.0184157
0.0184055
0.0183955
0.0183856
0.0183757
0.0183659
0.0183561
0.0183465
0.0183374
0.0194482
0.0194402
0.0194319
0.0194232
0.0194142
0.019405
0.0193954
0.0193857
0.0193757
0.0193656
0.0193553
0.0193449
0.0193344
0.0193238
0.019313
0.0193021
0.0192911
0.01928
0.0192687
0.0192574
0.019246
0.0192345
0.0192229
0.0192112
0.0191994
0.0191875
0.0191756
0.0191635
0.0191514
0.0191392
0.0191269
0.0191145
0.0191021
0.0190897
0.0190772
0.0190647
0.0190522
0.0190396
0.0190271
0.0190145
0.019002
0.0189895
0.018977
0.0189645
0.0189521
0.0189398
0.0189275
0.0189153
0.0189032
0.0188912
0.0188792
0.0188674
0.0188556
0.018844
0.0188325
0.018821
0.0188098
0.0187986
0.0187875
0.0187766
0.0187659
0.0187552
0.0187447
0.0187344
0.0187241
0.018714
0.0187039
0.018694
0.0186842
0.0186745
0.0186649
0.0186553
0.0186459
0.0186365
0.0186271
0.0186179
0.0186091
0.0196455
0.019639
0.0196321
0.0196248
0.0196172
0.0196093
0.0196011
0.0195927
0.0195841
0.0195753
0.0195663
0.0195572
0.019548
0.0195387
0.0195292
0.0195196
0.0195098
0.0195
0.01949
0.0194799
0.0194697
0.0194595
0.0194491
0.0194386
0.019428
0.0194172
0.0194064
0.0193955
0.0193844
0.0193732
0.019362
0.0193506
0.0193392
0.0193276
0.0193161
0.0193044
0.0192927
0.0192809
0.0192692
0.0192574
0.0192455
0.0192337
0.0192219
0.0192101
0.0191983
0.0191866
0.019175
0.0191634
0.0191519
0.0191405
0.0191291
0.0191179
0.0191067
0.0190957
0.0190847
0.0190739
0.0190633
0.0190527
0.0190423
0.0190321
0.0190219
0.019012
0.0190022
0.0189924
0.0189829
0.0189734
0.0189642
0.018955
0.0189459
0.0189369
0.018928
0.0189192
0.0189104
0.0189017
0.018893
0.0188845
0.0188763
0.0198052
0.0198002
0.0197948
0.019789
0.0197828
0.0197762
0.0197694
0.0197624
0.0197551
0.0197476
0.01974
0.0197322
0.0197243
0.0197163
0.0197082
0.0196999
0.0196915
0.019683
0.0196744
0.0196656
0.0196568
0.0196478
0.0196388
0.0196296
0.0196203
0.0196108
0.0196013
0.0195916
0.0195817
0.0195718
0.0195617
0.0195515
0.0195412
0.0195308
0.0195203
0.0195097
0.019499
0.0194883
0.0194775
0.0194666
0.0194558
0.0194449
0.019434
0.0194231
0.0194122
0.0194014
0.0193906
0.0193799
0.0193692
0.0193586
0.0193481
0.0193377
0.0193274
0.0193172
0.0193071
0.0192971
0.0192873
0.0192776
0.0192681
0.0192587
0.0192494
0.0192403
0.0192313
0.0192225
0.0192138
0.0192053
0.0191968
0.0191885
0.0191803
0.0191722
0.0191641
0.0191562
0.0191483
0.0191404
0.0191326
0.0191248
0.0191174
0.0199381
0.0199346
0.0199306
0.0199261
0.0199212
0.019916
0.0199105
0.0199047
0.0198986
0.0198924
0.0198859
0.0198794
0.0198728
0.019866
0.0198591
0.0198521
0.0198449
0.0198377
0.0198303
0.0198229
0.0198153
0.0198076
0.0197998
0.0197919
0.0197838
0.0197756
0.0197673
0.0197587
0.0197501
0.0197412
0.0197323
0.0197231
0.0197139
0.0197045
0.0196949
0.0196853
0.0196756
0.0196657
0.0196558
0.0196459
0.0196359
0.0196258
0.0196157
0.0196056
0.0195956
0.0195855
0.0195756
0.0195656
0.0195558
0.019546
0.0195363
0.0195267
0.0195172
0.0195078
0.0194986
0.0194894
0.0194805
0.0194716
0.019463
0.0194544
0.0194461
0.0194379
0.0194299
0.0194219
0.0194141
0.0194065
0.019399
0.0193916
0.0193843
0.0193771
0.01937
0.0193629
0.0193559
0.0193489
0.019342
0.0193351
0.0193285
0.0200568
0.0200548
0.0200521
0.020049
0.0200454
0.0200413
0.0200369
0.0200322
0.0200273
0.0200221
0.0200168
0.0200113
0.0200057
0.0200001
0.0199943
0.0199884
0.0199823
0.0199762
0.01997
0.0199637
0.0199572
0.0199507
0.019944
0.0199372
0.0199303
0.0199231
0.0199158
0.0199083
0.0199006
0.0198927
0.0198847
0.0198765
0.019868
0.0198594
0.0198507
0.0198418
0.0198328
0.0198236
0.0198144
0.0198051
0.0197956
0.0197862
0.0197767
0.0197672
0.0197577
0.0197483
0.0197389
0.0197296
0.0197203
0.0197112
0.0197021
0.0196932
0.0196843
0.0196756
0.0196671
0.0196587
0.0196505
0.0196424
0.0196345
0.0196268
0.0196193
0.0196119
0.0196047
0.0195977
0.0195908
0.0195841
0.0195774
0.0195709
0.0195646
0.0195583
0.0195521
0.0195459
0.0195398
0.0195337
0.0195277
0.0195217
0.0195159
0.0201722
0.0201716
0.0201703
0.0201685
0.0201661
0.0201632
0.0201598
0.0201562
0.0201522
0.020148
0.0201436
0.0201391
0.0201345
0.0201298
0.020125
0.0201201
0.0201151
0.0201101
0.0201049
0.0200997
0.0200943
0.0200889
0.0200833
0.0200775
0.0200715
0.0200654
0.020059
0.0200524
0.0200455
0.0200385
0.0200311
0.0200236
0.0200157
0.0200077
0.0199995
0.019991
0.0199824
0.0199736
0.0199647
0.0199556
0.0199465
0.0199373
0.019928
0.0199188
0.0199095
0.0199003
0.0198912
0.0198822
0.0198732
0.0198644
0.0198557
0.0198471
0.0198387
0.0198305
0.0198225
0.0198147
0.019807
0.0197996
0.0197924
0.0197854
0.0197786
0.019772
0.0197657
0.0197594
0.0197535
0.0197476
0.019742
0.0197363
0.0197309
0.0197255
0.0197201
0.0197149
0.0197097
0.0197045
0.0196994
0.0196943
0.0196893
0.0202935
0.0202945
0.0202947
0.0202941
0.0202929
0.0202911
0.0202887
0.020286
0.0202829
0.0202795
0.020276
0.0202723
0.0202686
0.0202648
0.0202609
0.020257
0.020253
0.0202489
0.0202447
0.0202405
0.0202362
0.0202317
0.0202271
0.0202223
0.0202173
0.0202121
0.0202065
0.0202007
0.0201945
0.0201881
0.0201813
0.0201742
0.0201668
0.020159
0.020151
0.0201427
0.0201342
0.0201255
0.0201166
0.0201075
0.0200983
0.0200889
0.0200796
0.0200702
0.0200609
0.0200516
0.0200424
0.0200333
0.0200244
0.0200156
0.020007
0.0199986
0.0199904
0.0199825
0.0199748
0.0199673
0.0199601
0.0199532
0.0199465
0.0199401
0.019934
0.0199282
0.0199225
0.0199172
0.019912
0.019907
0.0199021
0.0198975
0.0198929
0.0198885
0.0198841
0.0198798
0.0198755
0.0198713
0.019867
0.0198628
0.0198586
0.0204277
0.0204304
0.0204321
0.0204328
0.0204328
0.020432
0.0204306
0.0204286
0.0204263
0.0204237
0.0204209
0.0204181
0.0204151
0.0204122
0.0204092
0.0204061
0.020403
0.0204
0.0203968
0.0203937
0.0203905
0.0203871
0.0203835
0.0203798
0.0203757
0.0203714
0.0203667
0.0203615
0.020356
0.0203501
0.0203437
0.0203369
0.0203296
0.0203219
0.0203139
0.0203054
0.0202967
0.0202876
0.0202783
0.0202687
0.020259
0.0202492
0.0202393
0.0202294
0.0202195
0.0202097
0.0202
0.0201905
0.0201812
0.0201722
0.0201633
0.0201548
0.0201465
0.0201386
0.020131
0.0201237
0.0201168
0.0201102
0.020104
0.0200981
0.0200926
0.0200874
0.0200826
0.0200779
0.0200736
0.0200695
0.0200657
0.0200619
0.0200583
0.0200548
0.0200514
0.020048
0.0200447
0.0200414
0.020038
0.0200347
0.0200313
0.0205807
0.0205851
0.0205883
0.0205903
0.0205913
0.0205915
0.0205908
0.0205895
0.0205878
0.0205857
0.0205835
0.0205813
0.020579
0.0205767
0.0205744
0.0205721
0.0205699
0.0205678
0.0205656
0.0205635
0.0205613
0.020559
0.0205565
0.0205538
0.0205507
0.0205472
0.0205433
0.0205389
0.0205339
0.0205284
0.0205223
0.0205156
0.0205083
0.0205004
0.020492
0.0204832
0.0204738
0.0204641
0.020454
0.0204436
0.020433
0.0204223
0.0204114
0.0204006
0.0203898
0.0203791
0.0203686
0.0203584
0.0203484
0.0203387
0.0203293
0.0203203
0.0203117
0.0203035
0.0202958
0.0202885
0.0202817
0.0202753
0.0202694
0.0202639
0.0202588
0.0202542
0.0202499
0.0202461
0.0202425
0.0202393
0.0202361
0.0202333
0.0202307
0.0202281
0.0202256
0.0202232
0.0202207
0.0202183
0.0202158
0.0202133
0.0202106
0.0207549
0.0207608
0.0207651
0.0207681
0.0207699
0.0207705
0.0207702
0.0207692
0.0207676
0.0207658
0.0207638
0.0207617
0.0207597
0.0207578
0.0207559
0.0207542
0.0207527
0.0207513
0.02075
0.0207488
0.0207476
0.0207464
0.020745
0.0207432
0.0207411
0.0207386
0.0207354
0.0207316
0.0207272
0.020722
0.0207161
0.0207093
0.0207019
0.0206936
0.0206847
0.020675
0.0206648
0.0206541
0.0206428
0.0206313
0.0206194
0.0206073
0.020595
0.0205828
0.0205707
0.0205587
0.0205469
0.0205354
0.0205243
0.0205136
0.0205033
0.0204935
0.0204842
0.0204754
0.0204672
0.0204596
0.0204526
0.0204461
0.0204402
0.0204348
0.02043
0.0204257
0.0204219
0.0204184
0.0204154
0.0204127
0.0204105
0.0204083
0.0204062
0.0204043
0.0204025
0.0204007
0.0203989
0.0203971
0.0203952
0.0203932
0.020391
0.0209471
0.0209538
0.0209586
0.0209617
0.0209634
0.0209637
0.0209629
0.0209612
0.0209589
0.0209564
0.0209536
0.0209509
0.0209482
0.0209457
0.0209434
0.0209414
0.0209397
0.0209384
0.0209373
0.0209364
0.0209357
0.020935
0.0209342
0.0209332
0.0209318
0.02093
0.0209275
0.0209243
0.0209203
0.0209155
0.0209097
0.020903
0.0208953
0.0208867
0.0208772
0.0208669
0.0208557
0.0208439
0.0208316
0.0208187
0.0208054
0.0207919
0.0207782
0.0207644
0.0207507
0.0207372
0.020724
0.0207111
0.0206985
0.0206865
0.0206749
0.020664
0.0206536
0.0206439
0.0206348
0.0206263
0.0206186
0.0206115
0.020605
0.0205992
0.020594
0.0205893
0.0205852
0.0205817
0.0205784
0.0205756
0.020573
0.0205708
0.0205687
0.0205667
0.0205648
0.0205629
0.020561
0.020559
0.020557
0.0205548
0.0205524
0.0211377
0.0211431
0.0211463
0.0211477
0.0211475
0.0211457
0.0211428
0.0211389
0.0211343
0.0211293
0.021124
0.0211187
0.0211136
0.0211088
0.0211043
0.0211003
0.0210968
0.0210938
0.0210913
0.0210893
0.0210877
0.0210864
0.0210851
0.0210839
0.0210825
0.0210807
0.0210785
0.0210757
0.0210721
0.0210678
0.0210626
0.0210564
0.0210493
0.0210411
0.021032
0.0210219
0.0210108
0.0209989
0.0209863
0.020973
0.0209591
0.0209448
0.0209302
0.0209154
0.0209006
0.0208859
0.0208714
0.0208571
0.0208432
0.0208298
0.0208168
0.0208043
0.0207924
0.0207811
0.0207704
0.0207604
0.0207511
0.0207423
0.0207342
0.0207267
0.0207198
0.0207134
0.0207076
0.020702
0.0206971
0.0206924
0.0206882
0.020684
0.02068
0.020676
0.0206722
0.0206684
0.0206646
0.0206608
0.0206569
0.0206531
0.020649
0.0212759
0.0212768
0.0212752
0.021272
0.0212671
0.0212608
0.0212531
0.0212442
0.0212343
0.0212236
0.0212126
0.0212013
0.0211902
0.0211792
0.0211687
0.0211587
0.0211494
0.0211409
0.0211332
0.0211263
0.0211202
0.0211149
0.0211103
0.0211062
0.0211025
0.0210991
0.0210961
0.0210931
0.0210903
0.0210873
0.0210841
0.0210806
0.0210764
0.0210716
0.021066
0.0210596
0.0210522
0.0210439
0.0210346
0.0210244
0.0210132
0.0210012
0.0209886
0.0209754
0.0209617
0.0209478
0.0209337
0.0209195
0.0209053
0.0208912
0.0208771
0.0208633
0.0208496
0.0208363
0.0208232
0.0208104
0.020798
0.0207859
0.020774
0.0207625
0.0207513
0.0207403
0.0207296
0.0207193
0.020709
0.020699
0.0206889
0.0206791
0.0206694
0.0206597
0.0206502
0.0206406
0.0206313
0.020622
0.020613
0.0206041
0.0205954
0.0212559
0.0212445
0.0212315
0.0212171
0.0212015
0.0211842
0.021165
0.0211441
0.021122
0.021099
0.0210754
0.0210513
0.0210272
0.0210032
0.0209796
0.0209567
0.0209348
0.0209142
0.0208949
0.0208772
0.0208612
0.020847
0.0208344
0.020824
0.0208159
0.0208102
0.0208069
0.0208059
0.020807
0.0208098
0.020814
0.0208192
0.020825
0.020831
0.0208366
0.0208417
0.0208459
0.0208488
0.0208503
0.0208503
0.0208486
0.0208452
0.0208402
0.0208338
0.020826
0.0208169
0.0208067
0.0207954
0.0207831
0.0207699
0.0207557
0.0207408
0.020725
0.0207085
0.0206913
0.0206735
0.020655
0.0206359
0.0206162
0.0205959
0.0205752
0.020554
0.0205322
0.0205102
0.0204878
0.0204652
0.0204422
0.020419
0.0203958
0.0203725
0.0203495
0.0203267
0.0203044
0.0202827
0.0202621
0.0202424
0.0209087
0.0208776
0.0208464
0.0208151
0.0207831
0.0207478
0.0207097
0.0206692
0.0206262
0.0205814
0.0205347
0.0204865
0.0204373
0.0203874
0.0203374
0.0202877
0.020239
0.0201919
0.020147
0.0201049
0.0200662
0.0200308
0.0200003
0.0199758
0.019958
0.0199473
0.019944
0.019948
0.019959
0.0199764
0.0199994
0.020027
0.0200583
0.0200921
0.0201273
0.0201629
0.020198
0.0202317
0.020263
0.0202915
0.0203171
0.0203387
0.0203563
0.0203701
0.0203801
0.0203864
0.020389
0.020388
0.0203835
0.0203756
0.0203643
0.0203496
0.0203317
0.0203107
0.0202866
0.0202595
0.0202295
0.0201966
0.0201611
0.020123
0.0200824
0.0200396
0.019995
0.0199483
0.0199002
0.0198505
0.0198001
0.019749
0.0196975
0.0196462
0.0195955
0.0195459
0.0194979
0.0194524
0.0194097
0.0193707
0.0198769
0.0198202
0.0197661
0.0197076
0.0196463
0.0195816
0.0195131
0.0194407
0.0193643
0.0192843
0.0192006
0.0191139
0.0190247
0.0189338
0.0188423
0.0187514
0.0186618
0.0185753
0.0184937
0.0184159
0.0183461
0.0182867
0.0182399
0.0182074
0.0181903
0.0181892
0.0182042
0.0182347
0.0182798
0.018338
0.0184077
0.0184868
0.0185731
0.0186645
0.0187587
0.0188536
0.0189472
0.0190379
0.0191237
0.0192035
0.0192768
0.0193417
0.0193981
0.0194461
0.0194854
0.0195161
0.0195383
0.0195519
0.0195569
0.0195535
0.0195417
0.0195217
0.0194937
0.0194579
0.0194144
0.0193636
0.0193058
0.0192415
0.019171
0.0190952
0.0190147
0.01893
0.0188425
0.018753
0.0186629
0.0185731
0.0184853
0.0184011
0.018322
0.0182499
0.0181865
0.0181337
0.0180927
0.0180652
0.01805
0.0178008
0.0177245
0.0176458
0.0175642
0.0174782
0.0173867
0.0172888
0.0171842
0.0170723
0.0169534
0.016828
0.0166971
0.0165619
0.0164244
0.016286
0.0161492
0.0160171
0.01589
0.0157728
0.0156705
0.015587
0.0155256
0.0154882
0.015476
0.0154895
0.0155281
0.0155909
0.0156763
0.0157825
0.0159072
0.016048
0.016202
0.0163664
0.0165382
0.0167141
0.0168908
0.0170657
0.0172353
0.017397
0.0175487
0.0176885
0.0178138
0.017924
0.0180184
0.0180966
0.0181583
0.0182035
0.0182321
0.0182445
0.0182411
0.0182224
0.0181895
0.0181433
0.0180853
0.0180172
0.0179409
0.0178588
0.0177735
0.0176877
0.0176045
0.0175276
0.01746
0.0174057
0.0173678
0.0173502
0.0173559
0.0173878
0.0174485
0.0175401
0.0176641
0.0178215
0.0180125
0.0182357
0.018476
0.0146243
0.0145522
0.0144782
0.0143996
0.0143141
0.0142201
0.0141163
0.0140025
0.013879
0.0137473
0.0136092
0.013468
0.0133275
0.0131912
0.0130648
0.0129537
0.0128617
0.012797
0.0127626
0.012759
0.0127846
0.0128362
0.0129102
0.0130026
0.0131102
0.0132304
0.0133616
0.0135029
0.0136539
0.0138146
0.013985
0.014165
0.0143541
0.0145513
0.014755
0.0149629
0.0151728
0.0153818
0.0155867
0.0157852
0.0159751
0.0161538
0.0163193
0.0164703
0.0166062
0.0167274
0.0168349
0.0169306
0.0170169
0.0170969
0.0171743
0.0172528
0.0173369
0.017431
0.0175394
0.0176666
0.0178169
0.0179943
0.0182023
0.0184436
0.0187215
0.0190377
0.0193942
0.0197912
0.0202297
0.0207092
0.021229
0.0217878
0.0223835
0.0230137
0.0236747
0.0243604
0.0250253
0.011053
0.0110303
0.0110083
0.0109842
0.0109565
0.0109243
0.0108886
0.0108517
0.010818
0.0107937
0.0107869
0.0108068
0.0108627
0.0109651
0.01112
0.011334
0.0116111
0.0119372
0.0122937
0.012661
0.0130211
0.013359
0.013664
0.0139299
0.0141545
0.014339
0.0144874
0.0146054
0.0147001
0.0147787
0.0148489
0.0149177
0.0149918
0.0150766
0.0151773
0.0152985
0.015444
0.0156172
0.0158229
0.0160615
0.0163366
0.0166579
0.0170173
0.0174093
0.0178295
0.0182741
0.0187404
0.0192266
0.0197318
0.0202553
0.0207968
0.0213562
0.0219344
0.0225309
0.0231482
0.0237879
0.0244509
0.0251382
0.0258502
0.0265885
0.0273533
0.0281456
0.0289652
0.0298124
0.0306861
0.031585
0.0325077
0.0334517
0.0344147
0.0353931
0.0363831
0.0373734
0.0382833
0.00810237
0.00816484
0.00824335
0.0083385
0.00845559
0.00860369
0.00879587
0.00904962
0.0093849
0.00982094
0.0103751
0.011056
0.0118617
0.012786
0.0138008
0.0148935
0.016021
0.0171214
0.0181445
0.019054
0.0198279
0.0204572
0.0209434
0.0212961
0.0215304
0.021665
0.0217205
0.0217172
0.0216757
0.0216158
0.0215558
0.0215127
0.0215026
0.0215393
0.0216369
0.0218055
0.02206
0.0224082
0.0228541
0.0233957
0.0240502
0.0247988
0.0256216
0.0265014
0.0274218
0.0283669
0.0293255
0.0302889
0.0312546
0.0322141
0.0331595
0.0340901
0.035007
0.0359121
0.0368082
0.0376987
0.0385875
0.0394788
0.0403765
0.0412838
0.0422048
0.0431413
0.0440955
0.0450675
0.0460582
0.0470669
0.0480919
0.0491312
0.0501821
0.0512414
0.0523034
0.0533537
0.0542791
0.00692745
0.00722899
0.00763398
0.00816884
0.00887624
0.00980076
0.0109792
0.0124325
0.0141565
0.0161202
0.0182679
0.0205257
0.0228202
0.0250622
0.0272065
0.0291612
0.0308564
0.0322585
0.0333626
0.034185
0.0347556
0.035112
0.035295
0.0353461
0.0353047
0.0352079
0.0350884
0.034977
0.0348999
0.0348818
0.0349415
0.0350945
0.0353539
0.035729
0.0362209
0.0368375
0.0375663
0.0384055
0.0393532
0.0403642
0.0414101
0.0424756
0.0435453
0.0446046
0.0456414
0.0466475
0.0476177
0.0485507
0.0494479
0.0503139
0.0511539
0.0519759
0.0527876
0.053589
0.0543842
0.0551786
0.0559775
0.0567849
0.0576083
0.0584513
0.0593172
0.0602057
0.0611167
0.062049
0.0630014
0.0639714
0.0649568
0.0659562
0.0669633
0.0679715
0.0689595
0.0697973
0.00957529
0.0108797
0.0126055
0.0147683
0.0173864
0.0204281
0.0238103
0.0274098
0.0310844
0.034689
0.0381036
0.0412165
0.0439768
0.0463276
0.0482272
0.0496927
0.0507665
0.0515038
0.0519656
0.0522122
0.052301
0.0522842
0.0522085
0.0521142
0.0520356
0.0520008
0.0520325
0.0521496
0.052364
0.052684
0.0531095
0.0536417
0.0542752
0.0549985
0.0557943
0.0566647
0.0575649
0.0584619
0.0593601
0.0602497
0.0611205
0.0619686
0.062786
0.0635727
0.0643286
0.0650353
0.0656956
0.0663239
0.0669304
0.0675236
0.0681119
0.0687028
0.0693029
0.0699172
0.0705504
0.0712064
0.0718872
0.0725942
0.0733325
0.0741019
0.0748957
0.0757106
0.0765459
0.0774003
0.0782688
0.0791437
0.0800283
0.080919
0.0818065
0.082669
0.0833743
0.020765
0.0241672
0.0281618
0.0325424
0.0371601
0.041831
0.0463745
0.0506319
0.054488
0.0578589
0.0607142
0.0630541
0.0648499
0.0661735
0.0671015
0.0677114
0.0680762
0.068263
0.0683314
0.0683328
0.0683107
0.0683005
0.0683303
0.0684207
0.0685856
0.0688341
0.0691688
0.0695882
0.070086
0.0706546
0.0712828
0.071948
0.072659
0.0733749
0.0740675
0.0747464
0.0754031
0.0760557
0.076659
0.077222
0.077752
0.0782541
0.0787323
0.0791899
0.0796295
0.080056
0.0804752
0.0808932
0.0813156
0.0817486
0.0821978
0.0826659
0.0831574
0.0836744
0.084219
0.0847916
0.0853914
0.0860173
0.0866691
0.0873431
0.0880349
0.0887414
0.0894606
0.0901879
0.0909159
0.0916476
0.0923795
0.093105
0.0938029
0.0943579
0.0392075
0.0443897
0.0496966
0.0549236
0.0598777
0.0643975
0.0683784
0.0717578
0.0745372
0.0767419
0.0783769
0.0795456
0.0803428
0.0808561
0.0811631
0.0813311
0.0814177
0.0814698
0.0815257
0.0816131
0.0817524
0.0819555
0.0822277
0.082569
0.0829753
0.0834384
0.0839499
0.0844962
0.0850561
0.0856401
0.0862153
0.0867499
0.0872703
0.0877469
0.0881928
0.0886139
0.0890141
0.0893909
0.0897458
0.0900803
0.0903976
0.0907012
0.0909953
0.0912831
0.0915717
0.0918617
0.0921567
0.0924643
0.0927894
0.0931333
0.093498
0.0938848
0.0942948
0.0947285
0.0951852
0.0956625
0.0961598
0.0966747
0.097205
0.097745
0.0982936
0.0988479
0.0994041
0.0999564
0.100508
0.101056
0.101596
0.102112
0.102515
0.0536697
0.0597453
0.0655101
0.0707145
0.0752905
0.0791917
0.0823953
0.084956
0.0869139
0.0883305
0.0893174
0.089978
0.0903997
0.0906617
0.0908263
0.0909469
0.0910614
0.0912009
0.0913847
0.0916246
0.0919246
0.0922828
0.0926916
0.0931455
0.0936277
0.0941306
0.0946396
0.0951394
0.0956445
0.096092
0.0965045
0.0968911
0.0972578
0.0976005
0.0979213
0.0982213
0.0985023
0.0987646
0.0990108
0.0992422
0.0994621
0.0996729
0.0998788
0.100082
0.100287
0.100496
0.100713
0.10094
0.10118
0.101433
0.101702
0.101986
0.102285
0.1026
0.102929
0.10327
0.103622
0.103984
0.104353
0.104726
0.105101
0.105476
0.105848
0.106214
0.106577
0.106934
0.107285
0.107619
0.107884
0.0739818
0.0791307
0.0834633
0.0869996
0.0898105
0.091993
0.0936123
0.0947699
0.0955674
0.0961047
0.0964565
0.0966987
0.0968801
0.0970491
0.097231
0.0974494
0.0977126
0.0980271
0.0983885
0.0987942
0.0992302
0.0996879
0.100158
0.100626
0.10109
0.101523
0.101938
0.102325
0.102693
0.10304
0.103371
0.103681
0.103974
0.104247
0.104504
0.104743
0.104967
0.105176
0.105373
0.105558
0.105735
0.105905
0.106072
0.106235
0.106398
0.106562
0.10673
0.106901
0.107077
0.107257
0.107444
0.107635
0.107831
0.108032
0.108235
0.108442
0.10865
0.108859
0.109065
0.109268
0.109467
0.109661
0.109849
0.110031
0.110208
0.110382
0.110551
0.110699
0.0886036
0.0917069
0.0940516
0.0958115
0.0970566
0.0979973
0.0986402
0.0991046
0.0994236
0.0996808
0.0998912
0.10011
0.100337
0.100602
0.100895
0.10123
0.101593
0.101983
0.102393
0.102807
0.103226
0.103632
0.10403
0.104416
0.104801
0.105169
0.105535
0.105884
0.106229
0.106554
0.106871
0.107166
0.107452
0.107718
0.107974
0.108211
0.108439
0.108649
0.10885
0.109036
0.109214
0.109379
0.109537
0.109684
0.109826
0.109958
0.110086
0.110205
0.110319
0.110425
0.110526
0.110621
0.11071
0.110793
0.11087
0.11094
0.111004
0.111061
0.111112
0.111153
0.11119
0.111216
0.11124
0.111257
0.111276
0.111302
0.111366
0.0930151
0.0951709
0.0966852
0.0977295
0.0183951
0.0183824
0.0183698
0.018357
0.0183443
0.0183315
0.0183187
0.0183059
0.0182931
0.0182803
0.0182675
0.0182547
0.018242
0.0182292
0.0182165
0.0182037
0.018191
0.0181783
0.0181657
0.018153
0.0181404
0.0181278
0.0181153
0.0181029
0.0180905
0.0180781
0.0180658
0.0180536
0.0180415
0.0180294
0.0180174
0.0180056
0.0179938
0.017982
0.0179704
0.0179589
0.0179474
0.017936
0.0179247
0.0179135
0.0179023
0.0178911
0.01788
0.017869
0.0178579
0.0178469
0.017836
0.017825
0.017814
0.017803
0.017792
0.017781
0.01777
0.017759
0.0177479
0.0177368
0.0177257
0.0177145
0.0177034
0.0176922
0.017681
0.0176698
0.0176586
0.0176475
0.0176363
0.0176252
0.0176141
0.017603
0.0175919
0.0175809
0.01757
0.0175591
0.0175483
0.0175376
0.0175269
0.0175164
0.0175064
0.0184033
0.0183909
0.0183784
0.0183658
0.0183532
0.0183406
0.0183279
0.0183153
0.0183027
0.01829
0.0182774
0.0182647
0.0182521
0.0182395
0.0182269
0.0182143
0.0182017
0.0181891
0.0181765
0.018164
0.0181515
0.0181391
0.0181266
0.0181143
0.018102
0.0180897
0.0180775
0.0180654
0.0180533
0.0180413
0.0180294
0.0180176
0.0180059
0.0179942
0.0179827
0.0179712
0.0179598
0.0179485
0.0179372
0.017926
0.0179149
0.0179038
0.0178928
0.0178818
0.0178709
0.0178599
0.017849
0.0178381
0.0178272
0.0178163
0.0178054
0.0177945
0.0177835
0.0177726
0.0177616
0.0177506
0.0177396
0.0177285
0.0177174
0.0177064
0.0176953
0.0176842
0.0176731
0.0176621
0.017651
0.01764
0.017629
0.017618
0.0176071
0.0175962
0.0175853
0.0175746
0.0175638
0.0175532
0.0175426
0.0175322
0.0175223
0.0184266
0.0184145
0.0184024
0.0183902
0.0183779
0.0183656