/*--------------------------------*- C++ -*----------------------------------*\
  =========                 |
  \\      /  F ield         | OpenFOAM: The Open Source CFD Toolbox
   \\    /   O peration     | Website:  https://openfoam.org
    \\  /    A nd           | Version:  13
     \\/     M anipulation  |
\*---------------------------------------------------------------------------*/
FoamFile
{
    format      ascii;
    class       volScalarField;
    location    "800";
    object      omega;
}
// * * * * * * * * * * * * * * * * * * * * * * * * * * * * * * * * * * * * * //

dimensions      [0 0 -1 0 0 0 0];

internalField   nonuniform List<scalar> 
172836
(
11.8758
11.8382
11.8009
11.7638
11.7269
11.6903
11.654
11.6179
11.8747
11.8371
11.7997
11.7626
11.7257
11.6891
11.6527
11.6166
11.9072
11.8694
11.8318
11.7945
11.7573
11.7205
11.6838
11.6475
11.6113
11.8949
11.8571
11.8195
11.7822
11.7451
11.7083
11.6717
11.6353
11.5992
11.8714
11.8337
11.7962
11.759
11.722
11.6853
11.6488
11.6125
11.5765
11.8332
11.7957
11.7585
11.7215
11.6847
11.6481
11.6118
11.5757
11.5399
11.7788
11.7416
11.7046
11.6679
11.6314
11.5951
11.5591
11.5233
11.4878
11.7079
11.671
11.6344
11.598
11.5618
11.5259
11.4902
11.4547
11.4195
11.5918
11.5554
11.5192
11.4833
11.4477
11.4122
11.3771
11.3421
11.9851
11.9469
11.909
11.8712
11.8337
11.7964
11.7594
11.7226
11.686
11.6497
11.6136
11.5778
11.5425
11.984
11.9458
11.9078
11.8701
11.8326
11.7953
11.7582
11.7214
11.6847
11.6484
11.6123
11.5764
11.5411
11.9786
11.9404
11.9025
11.8647
11.8272
11.7899
11.7528
11.716
11.6794
11.643
11.6069
11.571
11.5357
11.9661
11.9279
11.89
11.8523
11.8148
11.7775
11.7405
11.7037
11.6671
11.6308
11.5946
11.5588
11.5235
11.9421
11.9041
11.8662
11.8286
11.7912
11.7541
11.7171
11.6804
11.6439
11.6076
11.5716
11.5359
11.5007
11.9032
11.8654
11.8277
11.7903
11.7531
11.7161
11.6793
11.6428
11.6065
11.5704
11.5346
11.4991
11.464
11.8475
11.8099
11.7726
11.7354
11.6985
11.6618
11.6253
11.5891
11.553
11.5172
11.4817
11.4464
11.4117
11.775
11.7378
11.7008
11.6639
11.6274
11.591
11.5548
11.5189
11.4832
11.4477
11.4125
11.3776
11.3432
11.694
11.657
11.6203
11.5837
11.5474
11.5113
11.4754
11.4397
11.4042
11.369
11.3341
11.2994
11.2653
11.1928
14.9188
14.8635
14.8085
14.7539
14.6996
14.6456
14.5919
14.5386
14.4856
14.4329
14.3806
14.3286
14.2769
14.2255
14.1744
14.1237
14.0732
14.0231
13.9732
13.9237
13.8744
13.8255
13.7769
13.7285
13.6805
13.6328
13.5854
13.5383
13.4915
13.4451
13.3989
13.353
13.3075
13.2622
13.2172
13.1726
13.1282
13.0842
13.0404
12.9968
12.9536
12.9106
12.8678
12.8253
12.7831
12.741
12.6992
12.6577
12.6163
12.5751
12.5341
12.4933
12.4528
12.4123
12.3721
12.3321
12.2922
12.2526
12.2131
12.1738
12.1347
12.0958
12.0571
12.0185
11.9802
11.9421
11.9042
11.8665
11.829
11.7918
11.7548
11.718
11.6815
11.6452
11.6091
11.5733
11.5381
14.9178
14.8625
14.8076
14.7529
14.6986
14.6446
14.5909
14.5376
14.4846
14.4319
14.3796
14.3275
14.2759
14.2245
14.1734
14.1227
14.0722
14.0221
13.9722
13.9227
13.8734
13.8245
13.7758
13.7275
13.6795
13.6318
13.5844
13.5372
13.4904
13.4439
13.3977
13.3519
13.3063
13.261
13.216
13.1714
13.127
13.0829
13.0391
12.9955
12.9523
12.9092
12.8665
12.824
12.7817
12.7397
12.6979
12.6563
12.6149
12.5737
12.5328
12.492
12.4514
12.411
12.3708
12.3308
12.291
12.2513
12.2118
12.1726
12.1335
12.0946
12.0559
12.0174
11.979
11.9409
11.903
11.8653
11.8278
11.7906
11.7536
11.7168
11.6802
11.6439
11.6078
11.5719
11.5367
14.9133
14.858
14.803
14.7483
14.694
14.64
14.5863
14.5329
14.4799
14.4272
14.3749
14.3229
14.2712
14.2198
14.1687
14.118
14.0675
14.0173
13.9674
13.9179
13.8686
13.8197
13.771
13.7226
13.6746
13.6268
13.5794
13.5323
13.4854
13.4389
13.3927
13.3468
13.3012
13.2559
13.2109
13.1662
13.1218
13.0776
13.0338
12.9902
12.9469
12.9039
12.8611
12.8186
12.7763
12.7342
12.6924
12.6508
12.6094
12.5683
12.5273
12.4865
12.4459
12.4055
12.3653
12.3253
12.2855
12.2458
12.2064
12.1671
12.128
12.0891
12.0504
12.0119
11.9736
11.9355
11.8976
11.8599
11.8224
11.7852
11.7481
11.7113
11.6748
11.6384
11.6023
11.5665
11.5311
14.8981
14.8427
14.7877
14.733
14.6787
14.6247
14.571
14.5177
14.4647
14.4121
14.3597
14.3078
14.2561
14.2048
14.1538
14.103
14.0526
14.0025
13.9527
13.9032
13.8539
13.805
13.7564
13.7082
13.6602
13.6125
13.5651
13.518
13.4712
13.4248
13.3786
13.3328
13.2872
13.242
13.197
13.1524
13.108
13.064
13.0202
12.9767
12.9334
12.8905
12.8477
12.8052
12.763
12.721
12.6792
12.6377
12.5963
12.5552
12.5142
12.4735
12.4329
12.3926
12.3524
12.3124
12.2726
12.233
12.1935
12.1543
12.1152
12.0764
12.0377
11.9992
11.961
11.9229
11.885
11.8473
11.8099
11.7727
11.7357
11.6989
11.6623
11.626
11.5899
11.5541
11.5188
14.8624
14.8071
14.7522
14.6977
14.6435
14.5896
14.5361
14.4829
14.4301
14.3776
14.3255
14.2737
14.2223
14.1711
14.1203
14.0698
14.0196
13.9697
13.9201
13.8708
13.8218
13.7731
13.7247
13.6767
13.6289
13.5815
13.5343
13.4875
13.4409
13.3947
13.3488
13.3031
13.2578
13.2128
13.1681
13.1237
13.0796
13.0357
12.9922
12.9489
12.9058
12.8631
12.8205
12.7782
12.7362
12.6944
12.6528
12.6114
12.5702
12.5292
12.4885
12.4479
12.4075
12.3672
12.3272
12.2873
12.2476
12.2081
12.1688
12.1297
12.0907
12.052
12.0134
11.975
11.9368
11.8988
11.8611
11.8235
11.7861
11.749
11.7121
11.6754
11.6389
11.6027
11.5667
11.531
11.4957
14.798
14.7431
14.6886
14.6344
14.5806
14.5272
14.4741
14.4214
14.369
14.317
14.2653
14.214
14.163
14.1123
14.0619
14.0119
13.9621
13.9127
13.8636
13.8147
13.7662
13.718
13.6701
13.6225
13.5752
13.5283
13.4816
13.4352
13.3891
13.3434
13.2979
13.2528
13.2079
13.1634
13.1191
13.0752
13.0315
12.9881
12.945
12.9021
12.8595
12.8171
12.775
12.7331
12.6914
12.65
12.6087
12.5677
12.5269
12.4862
12.4457
12.4055
12.3653
12.3254
12.2856
12.246
12.2066
12.1673
12.1282
12.0893
12.0506
12.012
11.9737
11.9355
11.8975
11.8597
11.8221
11.7847
11.7476
11.7106
11.6739
11.6374
11.6011
11.565
11.5292
11.4937
11.4586
14.705
14.6508
14.5969
14.5435
14.4903
14.4375
14.3851
14.3331
14.2814
14.23
14.179
14.1283
14.078
14.028
13.9783
13.929
13.8799
13.8311
13.7826
13.7345
13.6866
13.639
13.5918
13.5449
13.4983
13.4519
13.4059
13.3602
13.3148
13.2697
13.2249
13.1804
13.1362
13.0923
13.0487
13.0053
12.9623
12.9195
12.877
12.8347
12.7927
12.7509
12.7094
12.6681
12.6269
12.586
12.5453
12.5048
12.4645
12.4243
12.3843
12.3445
12.3048
12.2653
12.2259
12.1867
12.1476
12.1087
12.07
12.0314
11.993
11.9548
11.9167
11.8789
11.8412
11.8037
11.7664
11.7293
11.6923
11.6557
11.6192
11.5829
11.5469
11.5111
11.4756
11.4403
11.4056
14.5971
14.5435
14.4903
14.4374
14.3849
14.3327
14.2809
14.2295
14.1783
14.1276
14.0771
14.027
13.9773
13.9279
13.8788
13.83
13.7815
13.7333
13.6854
13.6378
13.5905
13.5436
13.4969
13.4506
13.4046
13.3588
13.3134
13.2683
13.2235
13.179
13.1348
13.0909
13.0473
13.004
12.961
12.9182
12.8758
12.8336
12.7916
12.7499
12.7085
12.6673
12.6263
12.5855
12.5449
12.5045
12.4643
12.4243
12.3845
12.3448
12.3052
12.2659
12.2266
12.1876
12.1486
12.1098
12.0712
12.0327
11.9943
11.9562
11.9181
11.8803
11.8426
11.8051
11.7677
11.7306
11.6936
11.6568
11.6203
11.5839
11.5478
11.5118
11.4762
11.4407
11.4055
11.3705
11.3361
14.5003
14.4471
14.3942
14.3416
14.2894
14.2374
14.1858
14.1346
14.0837
14.0331
13.9829
13.933
13.8834
13.8342
13.7853
13.7367
13.6884
13.6404
13.5927
13.5453
13.4982
13.4515
13.4051
13.3589
13.3131
13.2676
13.2224
13.1775
13.133
13.0887
13.0447
13.0011
12.9577
12.9146
12.8718
12.8293
12.7871
12.7452
12.7035
12.662
12.6208
12.5798
12.5391
12.4985
12.4582
12.418
12.3781
12.3383
12.2987
12.2593
12.22
12.1808
12.1418
12.103
12.0643
12.0257
11.9873
11.949
11.9109
11.873
11.8352
11.7976
11.7601
11.7229
11.6857
11.6488
11.6121
11.5756
11.5393
11.5032
11.4673
11.4316
11.3962
11.361
11.326
11.2913
11.2572
14.4307
14.3775
14.3247
14.2722
14.22
14.168
14.1164
14.0651
14.0142
13.9635
13.9132
13.8632
13.8136
13.7642
13.7152
13.6665
13.6181
13.57
13.5222
13.4748
13.4276
13.3808
13.3342
13.288
13.2421
13.1965
13.1512
13.1062
13.0615
13.0172
12.9731
12.9293
12.8858
12.8426
12.7997
12.757
12.7146
12.6725
12.6307
12.5891
12.5477
12.5066
12.4656
12.4249
12.3844
12.3441
12.304
12.2641
12.2244
12.1848
12.1454
12.1062
12.0671
12.0281
11.9894
11.9507
11.9123
11.874
11.8359
11.7979
11.7601
11.7225
11.6851
11.6478
11.6108
11.574
11.5374
11.5009
11.4647
11.4287
11.393
11.3574
11.3221
11.2871
11.2522
11.2177
11.1838
14.3894
14.3363
14.2835
14.231
14.1787
14.1267
14.075
14.0236
13.9725
13.9216
13.8711
13.8209
13.7711
13.7215
13.6723
13.6234
13.5748
13.5264
13.4784
13.4307
13.3834
13.3363
13.2895
13.2431
13.1969
13.151
13.1055
13.0602
13.0152
12.9706
12.9262
12.8821
12.8382
12.7947
12.7514
12.7084
12.6657
12.6232
12.581
12.539
12.4972
12.4557
12.4144
12.3733
12.3324
12.2917
12.2512
12.2109
12.1708
12.1309
12.0912
12.0516
12.0122
11.973
11.9339
11.895
11.8563
11.8178
11.7795
11.7414
11.7034
11.6657
11.6281
11.5908
11.5537
11.5168
11.4801
11.4436
11.4074
11.3714
11.3356
11.3001
11.2648
11.2298
11.195
11.1605
11.1267
14.3719
14.319
14.2663
14.2138
14.1615
14.1094
14.0576
14.006
13.9547
13.9037
13.853
13.8027
13.7526
13.7028
13.6534
13.6042
13.5554
13.5068
13.4586
13.4107
13.3631
13.3158
13.2688
13.2221
13.1757
13.1295
13.0837
13.0381
12.9928
12.9478
12.9031
12.8586
12.8144
12.7704
12.7267
12.6833
12.6401
12.5971
12.5544
12.5119
12.4696
12.4275
12.3857
12.344
12.3026
12.2614
12.2204
12.1796
12.139
12.0986
12.0583
12.0183
11.9785
11.9389
11.8994
11.8602
11.8211
11.7823
11.7437
11.7053
11.6671
11.6292
11.5915
11.5539
11.5167
11.4797
11.4429
11.4064
11.3701
11.334
11.2982
11.2626
11.2273
11.1923
11.1575
11.123
11.0893
14.3739
14.3212
14.2686
14.2162
14.1639
14.1118
14.0599
14.0083
13.9568
13.9057
13.8548
13.8042
13.754
13.704
13.6544
13.605
13.556
13.5073
13.4588
13.4107
13.3629
13.3154
13.2682
13.2213
13.1746
13.1283
13.0822
13.0363
12.9907
12.9454
12.9003
12.8555
12.8109
12.7665
12.7223
12.6784
12.6347
12.5912
12.548
12.5049
12.462
12.4194
12.377
12.3347
12.2927
12.2509
12.2094
12.168
12.1268
12.0859
12.0451
12.0046
11.9643
11.9242
11.8843
11.8447
11.8053
11.7661
11.7272
11.6885
11.65
11.6118
11.5739
11.5362
11.4988
11.4617
11.4247
11.3881
11.3517
11.3156
11.2798
11.2442
11.2089
11.1738
11.139
11.1045
11.0708
14.3921
14.3397
14.2874
14.2351
14.1829
14.1309
14.079
14.0272
13.9757
13.9244
13.8734
13.8227
13.7723
13.7222
13.6724
13.6229
13.5738
13.5249
13.4763
13.4281
13.3802
13.3325
13.2852
13.2381
13.1914
13.1448
13.0985
13.0525
13.0066
12.961
12.9156
12.8704
12.8254
12.7806
12.736
12.6915
12.6473
12.6033
12.5594
12.5157
12.4723
12.429
12.3859
12.343
12.3003
12.2579
12.2156
12.1736
12.1318
12.0903
12.049
12.0079
11.967
11.9264
11.8861
11.846
11.8062
11.7666
11.7274
11.6884
11.6497
11.6112
11.5731
11.5352
11.4977
11.4604
11.4235
11.3868
11.3503
11.3142
11.2783
11.2427
11.2074
11.1724
11.1376
11.1031
11.0695
14.426
14.374
14.322
14.2699
14.2179
14.1659
14.1141
14.0623
14.0107
13.9593
13.9082
13.8573
13.8068
13.7566
13.7067
13.657
13.6078
13.5588
13.5101
13.4618
13.4138
13.3661
13.3187
13.2715
13.2246
13.178
13.1315
13.0852
13.0392
12.9933
12.9476
12.902
12.8566
12.8114
12.7663
12.7213
12.6765
12.6318
12.5873
12.543
12.4988
12.4548
12.411
12.3674
12.324
12.2808
12.2379
12.1952
12.1527
12.1105
12.0685
12.0268
11.9854
11.9443
11.9034
11.8629
11.8227
11.7827
11.7431
11.7038
11.6649
11.6262
11.5879
11.5499
11.5123
11.4749
11.4378
11.4011
11.3647
11.3286
11.2927
11.2572
11.2219
11.1869
11.1522
11.1178
11.0843
14.4764
14.425
14.3734
14.3216
14.2698
14.218
14.1661
14.1143
14.0626
14.0111
13.9599
13.9089
13.8583
13.808
13.7579
13.7083
13.6589
13.6099
13.5613
13.513
13.465
13.4173
13.3699
13.3227
13.2758
13.2291
13.1825
13.1361
13.0898
13.0436
12.9976
12.9517
12.9058
12.86
12.8143
12.7687
12.7232
12.6778
12.6326
12.5874
12.5424
12.4975
12.4528
12.4083
12.364
12.32
12.2761
12.2326
12.1893
12.1463
12.1036
12.0612
12.0191
11.9774
11.936
11.8949
11.8543
11.8139
11.774
11.7344
11.6952
11.6564
11.6179
11.5798
11.5421
11.5048
11.4678
11.4311
11.3947
11.3587
11.323
11.2876
11.2525
11.2176
11.1831
11.1489
11.1154
14.5469
14.4963
14.4452
14.3939
14.3424
14.2906
14.2388
14.187
14.1352
14.0835
14.0321
13.981
13.9303
13.8798
13.8297
13.78
13.7306
13.6816
13.633
13.5848
13.5369
13.4893
13.4419
13.3948
13.3479
13.3011
13.2545
13.2079
13.1614
13.1149
13.0685
13.022
12.9756
12.9292
12.8827
12.8363
12.79
12.7436
12.6973
12.6512
12.6051
12.5591
12.5133
12.4677
12.4223
12.3772
12.3323
12.2877
12.2435
12.1996
12.156
12.1128
12.07
12.0276
11.9855
11.944
11.9028
11.8621
11.8218
11.7819
11.7425
11.7036
11.665
11.627
11.5893
11.5521
11.5151
11.4787
11.4425
11.4067
11.3713
11.3361
11.3013
11.2668
11.2325
11.1985
11.1654
14.6433
14.5935
14.5431
14.4923
14.441
14.3894
14.3375
14.2855
14.2336
14.1818
14.1303
14.079
14.0281
13.9776
13.9275
13.8778
13.8286
13.7798
13.7314
13.6834
13.6357
13.5884
13.5413
13.4944
13.4476
13.4009
13.3542
13.3075
13.2607
13.2138
13.1668
13.1197
13.0725
13.0251
12.9777
12.9301
12.8825
12.8348
12.7871
12.7395
12.6919
12.6444
12.5971
12.55
12.5032
12.4566
12.4104
12.3645
12.319
12.2739
12.2293
12.1851
12.1414
12.0982
12.0555
12.0133
11.9717
11.9306
11.89
11.85
11.8105
11.7716
11.7332
11.6952
11.6578
11.6208
11.5844
11.5483
11.5126
11.4773
11.4423
11.4077
11.3734
11.3394
11.3057
11.2723
11.2396
14.7738
14.7252
14.6757
14.6255
14.5746
14.5232
14.4714
14.4194
14.3673
14.3154
14.2638
14.2125
14.1617
14.1113
14.0614
14.012
13.9631
13.9148
13.8669
13.8195
13.7725
13.7257
13.6791
13.6327
13.5862
13.5397
13.493
13.4462
13.399
13.3516
13.3039
13.2557
13.2072
13.1584
13.1093
13.0599
13.0103
12.9606
12.9109
12.8611
12.8114
12.7618
12.7124
12.6632
12.6144
12.5659
12.5178
12.4702
12.4232
12.3766
12.3307
12.2853
12.2406
12.1965
12.1531
12.1104
12.0684
12.027
11.9864
11.9464
11.9071
11.8685
11.8304
11.7931
11.7563
11.7201
11.6844
11.6492
11.6144
11.5801
11.5462
11.5126
11.4794
11.4464
11.4137
11.3813
11.3495
14.9525
14.9059
14.8579
14.8088
14.7586
14.7077
14.6562
14.6043
14.5525
14.5009
14.4496
14.3988
14.3485
14.2989
14.2499
14.2016
14.1539
14.1069
14.0605
14.0145
13.9689
13.9235
13.8782
13.8328
13.7871
13.7412
13.6948
13.6478
13.6001
13.5516
13.5024
13.4523
13.4016
13.3502
13.2982
13.2458
13.1929
13.1398
13.0865
13.0333
12.9801
12.9271
12.8744
12.822
12.7702
12.7189
12.6682
12.6182
12.5689
12.5204
12.4727
12.4259
12.38
12.3351
12.291
12.2479
12.2057
12.1645
12.1242
12.0848
12.0462
12.0086
11.9718
11.9358
11.9006
11.866
11.8322
11.799
11.7663
11.7341
11.7023
11.671
11.64
11.6094
11.5789
11.5487
11.5191
15.2083
15.1653
15.1201
15.0732
15.0248
14.9752
14.9247
14.8741
14.8235
14.7732
14.7234
14.6743
14.626
14.5787
14.5322
14.4867
14.4421
14.3983
14.3551
14.3124
14.2699
14.2275
14.1848
14.1416
14.0978
14.0529
14.0068
13.9592
13.91
13.8593
13.807
13.7531
13.6979
13.6414
13.5839
13.5255
13.4664
13.407
13.3474
13.2877
13.2284
13.1695
13.1112
13.0536
12.9968
12.941
12.8862
12.8325
12.7801
12.7289
12.679
12.6304
12.5832
12.5373
12.4929
12.4499
12.4083
12.368
12.3291
12.2916
12.2553
12.2203
12.1865
12.154
12.1224
12.092
12.0625
12.0339
12.0062
11.9791
11.9528
11.9271
11.9019
11.8771
11.8528
11.8286
11.8048
15.5652
15.5258
15.4833
15.4384
15.3917
15.3442
15.2967
15.2495
15.203
15.1573
15.1129
15.0699
15.0284
14.9884
14.9497
14.9124
14.8761
14.8405
14.8052
14.7699
14.734
14.6972
14.6591
14.6189
14.576
14.5301
14.4808
14.4282
14.372
14.3126
14.2501
14.1848
14.1171
14.0475
13.9764
13.9044
13.8318
13.7593
13.6871
13.6154
13.545
13.4759
13.4085
13.3427
13.2789
13.217
13.1572
13.0995
13.0441
12.9909
12.94
12.8915
12.8453
12.8014
12.7599
12.7208
12.684
12.6494
12.6172
12.5872
12.5593
12.5337
12.5101
12.4886
12.469
12.4515
12.4356
12.4215
12.4091
12.3983
12.3891
12.3812
12.3747
12.3693
12.3648
12.3605
16.2393
16.2095
16.175
16.1363
16.0954
16.0549
16.0146
15.9751
15.937
15.901
15.8675
15.8366
15.8084
15.7828
15.7597
15.7387
15.7192
15.7006
15.6821
15.6629
15.642
15.6191
15.5923
15.5601
15.5217
15.4761
15.4229
15.3619
15.2933
15.2173
15.1348
15.0464
14.9532
14.8563
14.7569
14.6561
14.5548
14.454
14.3547
14.2576
14.1629
14.0718
13.9845
13.9011
13.8217
13.7466
13.6757
13.6091
13.5469
13.4891
13.4358
13.387
13.3427
13.303
13.268
13.2376
13.2118
13.1908
13.1746
13.1632
13.1566
13.1549
13.1583
13.1666
13.1799
13.1981
13.2216
13.2501
13.2837
13.3223
13.366
13.4145
13.4677
13.5253
13.5867
13.6482
17.4528
17.4283
17.3985
17.3692
17.34
17.3121
17.287
17.2657
17.2493
17.2383
17.2331
17.2338
17.2403
17.2521
17.2684
17.2881
17.3102
17.3328
17.3538
17.3737
17.3877
17.3925
17.385
17.3627
17.3235
17.2663
17.1903
17.096
16.9843
16.8567
16.7156
16.5635
16.4031
16.2374
16.069
15.9008
15.7348
15.5731
15.4176
15.2694
15.129
14.9985
14.8777
14.7667
14.6654
14.5739
14.4922
14.4204
14.3584
14.3065
14.2648
14.2334
14.2126
14.2026
14.2037
14.2162
14.2405
14.2771
14.3262
14.3883
14.4639
14.5532
14.6568
14.7749
14.9079
15.0558
15.2188
15.3968
15.5895
15.7963
16.0166
16.2493
16.493
16.7458
16.9956
19.7988
19.7788
19.7615
19.7464
19.7366
19.7348
19.7434
19.7645
19.7996
19.8497
19.9153
19.9966
20.093
20.2031
20.3259
20.4589
20.598
20.7436
20.8885
21.0234
21.1391
21.2269
21.2791
21.2895
21.2535
21.1689
21.0357
20.8558
20.6337
20.3748
20.0862
19.7753
19.45
19.1178
18.7858
18.4603
18.1463
17.8488
17.5715
17.3163
17.0856
16.8822
16.7053
16.5544
16.429
16.3291
16.2547
16.2058
16.1829
16.1863
16.2167
16.2747
16.3611
16.4767
16.6223
16.7986
17.0063
17.2461
17.5184
17.8232
18.1607
18.5299
18.9301
19.3598
19.8171
20.2996
20.8041
21.327
21.8645
22.4119
22.9642
23.5164
24.0617
24.5741
24.2907
24.2734
24.2667
24.2774
24.3118
24.3759
24.4751
24.6144
24.7974
25.0274
25.3072
25.6379
26.0184
26.4503
26.9271
27.4405
27.9941
28.5569
29.1017
29.6013
30.0298
30.3646
30.5878
30.6874
30.6575
30.4984
30.2161
29.8215
29.3295
28.7576
28.125
27.4513
26.7561
26.0572
25.3718
24.7147
24.0968
23.5311
23.0253
22.5813
22.2121
21.9182
21.6965
21.5443
21.4594
21.4398
21.4838
21.5898
21.7561
21.981
22.2628
22.5995
22.9888
23.4279
23.9138
24.443
25.0116
25.6151
26.2488
26.9071
27.5846
28.2751
28.9728
29.6708
30.3631
31.0434
31.7056
32.3439
32.9529
33.5278
34.0634
34.5549
34.9727
32.6463
32.5879
32.5668
32.5995
32.7017
32.8884
33.1754
33.5778
34.11
34.7839
35.6098
36.591
37.7245
39.0014
40.3938
41.8852
43.4217
44.934
46.3557
47.6287
48.7062
49.554
50.1511
50.4886
50.5689
50.4032
50.0104
49.4152
48.6464
47.736
46.7172
45.6235
44.4886
43.3436
42.2176
41.1382
40.128
39.2036
38.383
37.6744
37.0739
36.6022
36.2473
35.9993
35.8478
35.7827
35.7944
35.8737
36.0121
36.2016
36.4347
36.7048
37.0057
37.33
37.6744
38.0342
38.4043
38.7796
39.1549
39.5263
39.8892
40.2404
40.5757
40.8922
41.1865
41.4558
41.6976
41.9099
42.0913
42.2403
42.3564
42.4366
42.4656
47.2742
47.0862
47.0153
47.0913
47.3531
47.8391
48.5835
49.6144
50.9489
52.587
54.51
56.6778
59.0299
61.4954
63.9857
66.4318
68.7326
70.806
72.5952
74.0669
75.2076
76.0191
76.5137
76.7116
76.6378
76.3195
75.7863
75.0674
74.193
73.1927
72.0949
70.9267
69.7128
68.4746
67.2343
65.999
64.7974
63.6308
62.4966
61.3988
60.3491
59.3247
58.3352
57.3866
56.4823
55.6219
54.8084
54.0452
53.3404
52.6895
52.0855
51.5279
51.0162
50.5486
50.123
49.7367
49.3869
49.0702
48.7829
48.5207
48.2805
48.0578
47.8492
47.6501
47.4577
47.2685
47.0796
46.8884
46.6927
46.4912
46.2818
46.0629
45.8322
70.2606
70.1447
70.3649
70.9571
71.9473
73.3334
75.0792
77.118
79.3591
81.6966
84.025
86.2502
88.2919
90.0945
91.6235
92.8483
93.7757
94.4234
94.8149
94.9756
94.93
94.7008
94.309
93.773
93.1092
92.3321
91.4535
90.486
89.4374
88.3182
87.1314
85.8802
84.5675
83.1955
81.7652
80.2782
78.7353
77.1423
75.5161
73.8641
72.1986
70.5455
68.925
67.3527
65.8399
64.3956
63.0258
61.7343
60.5225
59.3898
58.3346
57.3546
56.4467
55.6058
54.8269
54.1052
53.4355
52.8123
52.2323
51.6904
51.1828
50.7043
50.2507
49.8177
49.402
49.0006
48.6109
48.2312
47.8589
47.4926
47.13
46.7832
102.471
102.108
102.05
102.239
102.603
103.064
103.549
104
104.374
104.647
104.804
104.829
104.732
104.493
104.124
103.644
103.068
102.404
101.659
100.838
99.9471
98.991
97.9739
96.8988
95.7681
94.5832
93.3447
92.054
90.7099
89.3136
87.8599
86.3589
84.8018
83.1951
81.5412
79.848
78.1348
76.4175
74.7116
73.0308
71.3873
69.7903
68.2489
66.7673
65.3503
64.0018
62.7235
61.5166
60.3804
59.313
58.3116
57.3729
56.4933
55.6686
54.8944
54.1664
53.4801
52.8314
52.2187
51.6381
51.0832
50.5501
50.0367
49.5407
49.0599
48.5922
48.1365
47.6916
47.2562
46.8312
46.4391
128.311
125.256
122.545
120.154
118.059
116.224
114.602
113.15
111.816
110.554
109.329
108.104
106.86
105.592
104.297
102.971
101.615
100.229
98.8156
97.3797
95.9251
94.4558
92.9756
91.4865
89.9907
88.4893
86.9834
85.4715
83.955
82.4303
80.9001
79.3681
77.8295
76.305
74.8068
73.334
71.8907
70.4733
69.0959
67.7603
66.4684
65.2223
64.0241
62.875
61.7758
60.7262
59.7257
58.7729
57.866
57.0032
56.1824
55.4
54.6541
53.9419
53.2607
52.6076
51.9802
51.376
50.7929
50.2284
49.6808
49.1477
48.6278
48.1201
47.6238
47.1381
46.6626
46.1977
45.7456
45.3404
130.201
126.457
123.201
120.354
117.836
115.572
113.479
111.493
109.56
107.639
105.722
103.797
101.861
99.9167
97.9703
96.031
94.109
92.2147
90.3582
88.5474
86.7883
85.085
83.4388
81.8496
80.3151
78.8326
77.3986
76.0085
74.6632
73.3474
72.0751
70.8556
69.6717
68.5276
67.4168
66.336
65.2835
64.2594
63.2644
62.2985
61.3621
60.4552
59.5778
58.7291
57.9098
57.1166
56.3482
55.6052
54.8871
54.1913
53.5164
52.8609
52.2235
51.6028
50.9976
50.4065
49.8287
49.263
48.7088
48.1651
47.6313
47.1068
46.5916
46.086
45.5894
45.1023
44.6258
44.1652
43.7627
126.624
123.39
120.417
117.64
115.007
112.448
109.921
107.382
104.827
102.268
99.7049
97.1513
94.622
92.1389
89.721
87.389
85.1578
83.0409
81.0457
79.1766
77.4321
75.8087
74.2988
72.8933
71.5848
70.36
69.212
68.1314
67.0995
66.1399
65.2324
64.3631
63.5238
62.7105
61.92
61.1492
60.3968
59.6611
58.9416
58.2371
57.5471
56.8705
56.207
55.5551
54.9146
54.2843
53.6638
53.0521
52.4488
51.853
51.2643
50.6823
50.1067
49.5369
48.973
48.4153
47.8631
47.3169
46.7768
46.2434
45.7164
45.1961
44.6833
44.1789
43.6826
43.1958
42.7203
42.263
41.8733
118.773
115.791
112.762
109.716
106.628
103.455
100.265
97.0929
93.9484
90.8622
87.8622
84.9846
82.252
79.6915
77.3148
75.1334
73.1456
71.3484
69.7296
68.275
66.9689
65.7923
64.7291
63.7629
62.8781
62.0698
61.3213
60.6291
59.979
59.3587
58.7631
58.1854
57.6237
57.0733
56.534
56.0022
55.4781
54.9587
54.4441
53.9316
53.4216
52.9117
52.4021
51.8912
51.3792
50.865
50.3488
49.8298
49.3084
48.7844
48.2586
47.7309
47.2021
46.6729
46.1441
45.6167
45.0912
44.5688
44.0503
43.5363
43.028
42.5261
42.0324
41.5464
41.0704
40.606
40.1624
39.7931
108.843
105.225
101.59
97.8741
93.9378
90.3067
86.7658
83.3673
80.1252
77.0969
74.2915
71.7431
69.4448
67.4038
65.6001
64.0215
62.6424
61.4401
60.3886
59.4677
58.6558
57.9319
57.2912
56.7091
56.1785
55.6882
55.2322
54.7956
54.3793
53.9724
53.5782
53.1875
52.8042
52.4208
52.0411
51.6585
51.2761
50.8883
50.4976
50.0993
49.6957
49.2829
48.8631
48.4332
47.9954
47.5475
47.0913
46.6257
46.1524
45.6714
45.1841
44.6911
44.194
43.6946
43.1932
42.6918
42.1915
41.6943
41.201
40.712
40.2299
39.7553
39.2893
38.8324
38.3888
37.9671
37.6274
98.6972
94.6227
90.6499
86.4985
14.912
14.8567
14.8018
14.7472
14.6929
14.6389
14.5853
14.532
14.4791
14.4264
14.3741
14.3222
14.2705
14.2192
14.1681
14.1174
14.067
14.0169
13.9671
13.9176
13.8684
13.8195
13.7709
13.7226
13.6746
13.6269
13.5795
13.5325
13.4857
13.4392
13.3931
13.3472
13.3017
13.2564
13.2115
13.1668
13.1224
13.0784
13.0346
12.991
12.9478
12.9048
12.862
12.8195
12.7773
12.7353
12.6935
12.6519
12.6106
12.5694
12.5285
12.4877
12.4472
12.4068
12.3666
12.3266
12.2868
12.2472
12.2078
12.1685
12.1295
12.0906
12.0519
12.0135
11.9752
11.9371
11.8993
11.8617
11.8242
11.787
11.7501
11.7133
11.6768
11.6406
11.6045
11.5688
11.5336
14.911
14.8557
14.8007
14.7461
14.6918
14.6378
14.5842
14.5309
14.478
14.4253
14.373
14.3211
14.2694
14.2181
14.1671
14.1164
14.066
14.0159
13.966
13.9165
13.8673
13.8184
13.7698
13.7215
13.6735
13.6259
13.5785
13.5314
13.4846
13.4381
13.3919
13.346
13.3005
13.2552
13.2102
13.1656
13.1212
13.0771
13.0333
12.9897
12.9464
12.9034
12.8607
12.8182
12.7759
12.7339
12.6921
12.6505
12.6092
12.568
12.5271
12.4863
12.4458
12.4054
12.3653
12.3253
12.2855
12.2459
12.2065
12.1672
12.1282
12.0893
12.0507
12.0122
11.974
11.9359
11.898
11.8604
11.823
11.7858
11.7488
11.712
11.6755
11.6392
11.6032
11.5674
11.5321
14.9064
14.8511
14.7961
14.7415
14.6872
14.6332
14.5795
14.5262
14.4733
14.4206
14.3683
14.3163
14.2647
14.2133
14.1623
14.1116
14.0612
14.011
13.9612
13.9117
13.8625
13.8135
13.7649
13.7166
13.6686
13.6209
13.5735
13.5264
13.4796
13.433
13.3868
13.3409
13.2953
13.25
13.205
13.1603
13.1159
13.0718
13.028
12.9844
12.9411
12.8981
12.8553
12.8127
12.7705
12.7284
12.6866
12.645
12.6036
12.5625
12.5215
12.4808
12.4402
12.3999
12.3597
12.3197
12.2799
12.2403
12.2009
12.1617
12.1226
12.0838
12.0451
12.0067
11.9684
11.9304
11.8925
11.8549
11.8175
11.7803
11.7433
11.7065
11.67
11.6337
11.5976
11.5618
11.5265
14.8913
14.8359
14.7809
14.7263
14.672
14.618
14.5643
14.511
14.4581
14.4055
14.3532
14.3012
14.2496
14.1983
14.1473
14.0966
14.0463
13.9962
13.9464
13.8969
13.8478
13.7989
13.7504
13.7021
13.6541
13.6065
13.5591
13.5121
13.4653
13.4189
13.3727
13.3269
13.2814
13.2361
13.1912
13.1465
13.1022
13.0581
13.0143
12.9708
12.9276
12.8846
12.8418
12.7994
12.7571
12.7151
12.6733
12.6318
12.5905
12.5493
12.5084
12.4677
12.4272
12.3869
12.3467
12.3068
12.267
12.2274
12.188
12.1488
12.1098
12.071
12.0324
11.9939
11.9557
11.9177
11.8799
11.8423
11.8049
11.7677
11.7307
11.694
11.6574
11.6212
11.5851
11.5493
11.5141
14.8558
14.8005
14.7456
14.6911
14.6369
14.583
14.5295
14.4764
14.4236
14.3711
14.319
14.2672
14.2158
14.1647
14.1139
14.0634
14.0132
13.9634
13.9138
13.8645
13.8156
13.7669
13.7186
13.6706
13.6228
13.5754
13.5283
13.4815
13.435
13.3887
13.3428
13.2972
13.2519
13.2069
13.1622
13.1178
13.0736
13.0298
12.9862
12.9429
12.8999
12.8571
12.8145
12.7723
12.7302
12.6884
12.6468
12.6054
12.5642
12.5233
12.4825
12.4419
12.4016
12.3614
12.3213
12.2815
12.2419
12.2024
12.1631
12.124
12.0851
12.0464
12.0078
11.9695
11.9314
11.8934
11.8557
11.8182
11.7809
11.7438
11.7069
11.6702
11.6338
11.5976
11.5616
11.526
11.4908
14.7916
14.7367
14.6822
14.628
14.5741
14.5207
14.4676
14.4148
14.3625
14.3104
14.2587
14.2074
14.1564
14.1057
14.0554
14.0054
13.9556
13.9062
13.8571
13.8083
13.7598
13.7116
13.6637
13.6162
13.5689
13.522
13.4753
13.4289
13.3829
13.3372
13.2917
13.2466
13.2017
13.1572
13.1129
13.0689
13.0253
12.9818
12.9387
12.8958
12.8532
12.8108
12.7687
12.7268
12.6851
12.6437
12.6024
12.5614
12.5206
12.4799
12.4395
12.3992
12.3591
12.3192
12.2795
12.2399
12.2005
12.1613
12.1222
12.0834
12.0447
12.0061
11.9678
11.9297
11.8917
11.854
11.8164
11.7791
11.7419
11.705
11.6683
11.6318
11.5956
11.5596
11.5238
11.4883
11.4533
14.6984
14.6441
14.5902
14.5366
14.4835
14.4306
14.3782
14.3261
14.2744
14.223
14.172
14.1213
14.0709
14.0209
13.9713
13.9219
13.8728
13.8241
13.7756
13.7274
13.6796
13.6321
13.5849
13.5379
13.4913
13.445
13.399
13.3533
13.3079
13.2628
13.218
13.1735
13.1293
13.0854
13.0418
12.9985
12.9554
12.9126
12.8701
12.8278
12.7858
12.744
12.7024
12.6611
12.62
12.5791
12.5383
12.4978
12.4575
12.4173
12.3774
12.3375
12.2979
12.2584
12.2191
12.1799
12.1409
12.102
12.0633
12.0248
11.9864
11.9482
11.9102
11.8724
11.8347
11.7973
11.76
11.7229
11.6861
11.6494
11.613
11.5768
11.5408
11.505
11.4695
11.4342
11.3995
14.5896
14.536
14.4827
14.4298
14.3772
14.325
14.2731
14.2216
14.1704
14.1196
14.0692
14.0191
13.9693
13.9199
13.8707
13.8219
13.7734
13.7253
13.6774
13.6298
13.5825
13.5356
13.489
13.4426
13.3966
13.3509
13.3055
13.2604
13.2156
13.1711
13.1269
13.0829
13.0393
12.996
12.953
12.9102
12.8678
12.8256
12.7836
12.7419
12.7005
12.6592
12.6182
12.5775
12.5369
12.4965
12.4563
12.4163
12.3765
12.3369
12.2974
12.258
12.2188
12.1798
12.1409
12.1022
12.0636
12.0251
11.9868
11.9487
11.9107
11.8729
11.8352
11.7977
11.7604
11.7233
11.6864
11.6496
11.6131
11.5768
11.5407
11.5048
11.4691
11.4336
11.3984
11.3635
11.3291
14.4916
14.4382
14.3852
14.3326
14.2803
14.2283
14.1767
14.1254
14.0744
14.0238
13.9736
13.9237
13.8741
13.8249
13.7759
13.7273
13.6791
13.6311
13.5834
13.5361
13.489
13.4423
13.3959
13.3498
13.304
13.2585
13.2133
13.1684
13.1238
13.0796
13.0356
12.9919
12.9486
12.9055
12.8627
12.8202
12.778
12.736
12.6943
12.6528
12.6116
12.5706
12.5299
12.4894
12.449
12.4089
12.369
12.3292
12.2896
12.2502
12.211
12.1719
12.1329
12.0941
12.0554
12.0169
11.9786
11.9404
11.9023
11.8644
11.8267
11.7891
11.7517
11.7144
11.6774
11.6405
11.6038
11.5674
11.5311
11.495
11.4591
11.4235
11.3881
11.3529
11.318
11.2833
11.2492
14.4202
14.367
14.3141
14.2615
14.2092
14.1573
14.1056
14.0543
14.0033
13.9526
13.9023
13.8523
13.8027
13.7534
13.7044
13.6557
13.6073
13.5592
13.5115
13.4641
13.4169
13.3701
13.3236
13.2774
13.2315
13.186
13.1407
13.0957
13.051
13.0067
12.9626
12.9188
12.8753
12.8321
12.7892
12.7465
12.7042
12.6621
12.6202
12.5786
12.5373
12.4961
12.4552
12.4146
12.3741
12.3338
12.2938
12.2539
12.2142
12.1747
12.1353
12.0961
12.0571
12.0182
11.9795
11.941
11.9026
11.8643
11.8263
11.7884
11.7506
11.7131
11.6757
11.6385
11.6015
11.5647
11.5281
11.4917
11.4556
11.4196
11.3839
11.3483
11.3131
11.278
11.2432
11.2087
11.1748
14.3769
14.3238
14.2709
14.2183
14.166
14.1139
14.0622
14.0107
13.9596
13.9088
13.8583
13.8081
13.7583
13.7087
13.6596
13.6107
13.5621
13.5139
13.4659
13.4183
13.371
13.3239
13.2772
13.2308
13.1847
13.1389
13.0934
13.0482
13.0032
12.9586
12.9142
12.8701
12.8263
12.7828
12.7396
12.6966
12.6539
12.6114
12.5692
12.5272
12.4854
12.4439
12.4026
12.3616
12.3207
12.2801
12.2397
12.1994
12.1594
12.1195
12.0798
12.0403
12.001
11.9618
11.9228
11.884
11.8454
11.807
11.7687
11.7307
11.6928
11.6551
11.6176
11.5804
11.5433
11.5064
11.4698
11.4334
11.3972
11.3613
11.3255
11.29
11.2548
11.2198
11.185
11.1506
11.1168
14.3571
14.3041
14.2513
14.1987
14.1463
14.0942
14.0423
13.9907
13.9395
13.8885
13.8378
13.7875
13.7374
13.6877
13.6383
13.5893
13.5405
13.492
13.4439
13.3961
13.3485
13.3013
13.2544
13.2078
13.1614
13.1154
13.0696
13.0241
12.9789
12.9339
12.8892
12.8448
12.8006
12.7567
12.7131
12.6696
12.6265
12.5835
12.5408
12.4984
12.4561
12.4141
12.3723
12.3308
12.2894
12.2483
12.2073
12.1666