/*--------------------------------*- C++ -*----------------------------------*\
  =========                 |
  \\      /  F ield         | OpenFOAM: The Open Source CFD Toolbox
   \\    /   O peration     | Website:  https://openfoam.org
    \\  /    A nd           | Version:  13
     \\/     M anipulation  |
\*---------------------------------------------------------------------------*/
FoamFile
{
    format      ascii;
    class       volScalarField;
    location    "800";
    object      p;
}
// * * * * * * * * * * * * * * * * * * * * * * * * * * * * * * * * * * * * * //

dimensions      [0 2 -2 0 0 0 0];

internalField   nonuniform List<scalar> 
172836
(
-1.21605
-1.08917
-0.963144
-0.837311
-0.711399
-0.585483
-0.459688
-0.334147
-1.21519
-1.08828
-0.962255
-0.836449
-0.710642
-0.584858
-0.45921
-0.333754
-1.34263
-1.21422
-1.08739
-0.961317
-0.835536
-0.709804
-0.584137
-0.458594
-0.333234
-1.34148
-1.21311
-1.08628
-0.960196
-0.834443
-0.708792
-0.583238
-0.457803
-0.332558
-1.33999
-1.21164
-1.08479
-0.9587
-0.832991
-0.707447
-0.582025
-0.456732
-0.331661
-1.33805
-1.20972
-1.08288
-0.956815
-0.831199
-0.705807
-0.58058
-0.455499
-0.330646
-1.33571
-1.2074
-1.08055
-0.954529
-0.829024
-0.703837
-0.578857
-0.454058
-0.329518
-1.33306
-1.20469
-1.07773
-0.95171
-0.82633
-0.70135
-0.576676
-0.452232
-0.328061
-1.20184
-1.07471
-0.948695
-0.82334
-0.698526
-0.574115
-0.450016
-0.32634
-1.6235
-1.49042
-1.35922
-1.22973
-1.10157
-0.974084
-0.846797
-0.719441
-0.592106
-0.464898
-0.337965
-0.21154
-0.0872016
-1.62311
-1.48989
-1.35859
-1.22901
-1.10076
-0.973265
-0.846011
-0.718765
-0.591538
-0.464445
-0.337584
-0.211239
-0.0868844
-1.62241
-1.48917
-1.35788
-1.22826
-1.09998
-0.972467
-0.845236
-0.718059
-0.590926
-0.46391
-0.337117
-0.210872
-0.0867524
-1.62157
-1.48841
-1.35717
-1.22752
-1.0992
-0.971628
-0.844396
-0.717258
-0.590192
-0.463237
-0.336533
-0.210437
-0.0865487
-1.62061
-1.48746
-1.35624
-1.22657
-1.09816
-0.970543
-0.84329
-0.716201
-0.589199
-0.462337
-0.335754
-0.209836
-0.0861884
-1.61938
-1.48627
-1.35507
-1.22534
-1.09688
-0.969185
-0.841954
-0.714923
-0.588043
-0.461314
-0.334902
-0.209192
-0.0857945
-1.61812
-1.48493
-1.35366
-1.22387
-1.09527
-0.967542
-0.840306
-0.713394
-0.586657
-0.460138
-0.333948
-0.208497
-0.085365
-1.61664
-1.48343
-1.35214
-1.22215
-1.09341
-0.965535
-0.838326
-0.711486
-0.584951
-0.458657
-0.332763
-0.207615
-0.0848344
-1.61541
-1.48205
-1.35059
-1.22039
-1.09137
-0.963408
-0.836116
-0.709369
-0.582966
-0.456929
-0.331317
-0.206592
-0.0842222
-0.0836363
-9.58963
-9.70274
-9.79195
-9.85793
-9.9015
-9.92363
-9.92537
-9.90781
-9.87208
-9.81936
-9.75089
-9.66793
-9.57177
-9.46363
-9.3447
-9.21611
-9.07897
-8.93437
-8.78343
-8.62721
-8.46669
-8.30273
-8.13607
-7.96735
-7.79712
-7.62588
-7.45407
-7.28208
-7.11028
-6.939
-6.76849
-6.59894
-6.43048
-6.26316
-6.09704
-5.93212
-5.76842
-5.60592
-5.44466
-5.28468
-5.12601
-4.96867
-4.81262
-4.65782
-4.50421
-4.35175
-4.20037
-4.05001
-3.90063
-3.75225
-3.60487
-3.45852
-3.31315
-3.16872
-3.02523
-2.88271
-2.74119
-2.60068
-2.46116
-2.32256
-2.18476
-2.04767
-1.91114
-1.77517
-1.63995
-1.50602
-1.37379
-1.24314
-1.11368
-0.984845
-0.85617
-0.727432
-0.59869
-0.470088
-0.341788
-0.214022
-0.0883915
-9.61584
-9.72836
-9.8169
-9.88209
-9.92477
-9.9459
-9.94654
-9.9278
-9.89083
-9.83684
-9.76707
-9.68282
-9.58538
-9.476
-9.35588
-9.22618
-9.08798
-8.9424
-8.79052
-8.63342
-8.47206
-8.30733
-8.13997
-7.97062
-7.79986
-7.62818
-7.456
-7.28373
-7.1117
-6.94023
-6.76957
-6.5999
-6.43133
-6.26394
-6.09777
-5.93284
-5.76915
-5.6067
-5.44548
-5.28554
-5.1269
-4.96956
-4.8135
-4.65868
-4.50505
-4.35256
-4.20117
-4.0508
-3.90142
-3.75302
-3.60561
-3.4592
-3.31375
-3.16925
-3.02568
-2.88308
-2.74147
-2.60087
-2.46126
-2.32257
-2.18471
-2.04758
-1.91103
-1.77502
-1.63973
-1.5057
-1.37334
-1.24257
-1.11302
-0.984153
-0.855512
-0.726862
-0.598221
-0.469703
-0.341452
-0.213733
-0.0880329
-9.66808
-9.77957
-9.86681
-9.93048
-9.97139
-9.99055
-9.98904
-9.96799
-9.92859
-9.8721
-9.79979
-9.71299
-9.61304
-9.5012
-9.37871
-9.24672
-9.10634
-8.95869
-8.80487
-8.64594
-8.4829
-8.31662
-8.14786
-7.97727
-7.80543
-7.63282
-7.45986
-7.28694
-7.11439
-6.9425
-6.77148
-6.60152
-6.43272
-6.26516
-6.09887
-5.93388
-5.77017
-5.60773
-5.44656
-5.28667
-5.12807
-4.97075
-4.8147
-4.65987
-4.50624
-4.35375
-4.20234
-4.05197
-3.90257
-3.75414
-3.60668
-3.46017
-3.31462
-3.16999
-3.02631
-2.88359
-2.74188
-2.60117
-2.46144
-2.32264
-2.18465
-2.0474
-1.91075
-1.77469
-1.63936
-1.5053
-1.37291
-1.24208
-1.11245
-0.983539
-0.854895
-0.726289
-0.597707
-0.469237
-0.341037
-0.2134
-0.0879223
-9.74738
-9.85731
-9.94257
-10.0039
-10.042
-10.0582
-10.0533
-10.0287
-9.98565
-9.92534
-9.84917
-9.75852
-9.65475
-9.53917
-9.41305
-9.27757
-9.13385
-8.98303
-8.82624
-8.66456
-8.49898
-8.33038
-8.15952
-7.98708
-7.81361
-7.6396
-7.46546
-7.29155
-7.11818
-6.94562
-6.77407
-6.60368
-6.43454
-6.26673
-6.10028
-5.93519
-5.77146
-5.60904
-5.44794
-5.28812
-5.12959
-4.97234
-4.81634
-4.66155
-4.50794
-4.35547
-4.20407
-4.05369
-3.90427
-3.75579
-3.60824
-3.46163
-3.31592
-3.17114
-3.0273
-2.88444
-2.74259
-2.60174
-2.46187
-2.3229
-2.18475
-2.04733
-1.91057
-1.77439
-1.63905
-1.50501
-1.37262
-1.24172
-1.112
-0.982996
-0.854301
-0.725688
-0.597122
-0.468679
-0.340541
-0.213028
-0.0877512
-9.85401
-9.96184
-10.0444
-10.1025
-10.1369
-10.1489
-10.1396
-10.1102
-10.0621
-9.99662
-9.91524
-9.81938
-9.71046
-9.58986
-9.45884
-9.31864
-9.17041
-9.01533
-8.85454
-8.68915
-8.52016
-8.34846
-8.17482
-7.99991
-7.82428
-7.6484
-7.47267
-7.29742
-7.12296
-6.94951
-6.77724
-6.60628
-6.43672
-6.26861
-6.10196
-5.93677
-5.77301
-5.61064
-5.44962
-5.28991
-5.1315
-4.97435
-4.81844
-4.66373
-4.51017
-4.35774
-4.20636
-4.05597
-3.90652
-3.75797
-3.6103
-3.46353
-3.31764
-3.17266
-3.02862
-2.88558
-2.74354
-2.60252
-2.46246
-2.3233
-2.18495
-2.04734
-1.91039
-1.77414
-1.63872
-1.50465
-1.37224
-1.24128
-1.11143
-0.982311
-0.853541
-0.724905
-0.596349
-0.467948
-0.339894
-0.212519
-0.0874343
-9.98904
-10.0942
-10.1733
-10.2271
-10.2568
-10.2634
-10.2483
-10.2127
-10.1582
-10.0862
-9.99823
-9.89574
-9.78027
-9.65326
-9.51602
-9.36983
-9.21589
-9.05541
-8.88958
-8.71951
-8.54624
-8.37066
-8.19354
-8.01555
-7.83722
-7.65901
-7.4813
-7.30441
-7.12858
-6.95403
-6.78089
-6.60927
-6.43921
-6.27075
-6.1039
-5.93862
-5.77486
-5.61257
-5.45166
-5.2921
-5.13385
-4.97685
-4.82107
-4.66648
-4.51302
-4.36064
-4.20929
-4.05889
-3.90938
-3.76073
-3.61292
-3.46595
-3.31984
-3.17462
-3.03033
-2.88705
-2.74478
-2.60353
-2.46326
-2.32387
-2.18529
-2.04746
-1.91033
-1.77384
-1.63834
-1.50424
-1.37178
-1.24071
-1.11073
-0.98148
-0.852641
-0.723992
-0.595473
-0.467146
-0.339207
-0.211989
-0.0870885
-10.1534
-10.2552
-10.3299
-10.3786
-10.4022
-10.4022
-10.3799
-10.3368
-10.2744
-10.1944
-10.0982
-9.98761
-9.86411
-9.72925
-9.58442
-9.43092
-9.27002
-9.10297
-8.93101
-8.75528
-8.57684
-8.39659
-8.2153
-8.03362
-7.85208
-7.6711
-7.49104
-7.31219
-7.13478
-6.95895
-6.78482
-6.61245
-6.44187
-6.27307
-6.10604
-5.94071
-5.777
-5.61484
-5.45412
-5.29477
-5.13674
-4.97995
-4.82437
-4.66994
-4.51661
-4.36433
-4.21302
-4.06261
-3.91303
-3.76425
-3.61626
-3.46906
-3.32268
-3.17717
-3.03259
-2.88901
-2.74646
-2.60493
-2.46437
-2.32472
-2.18587
-2.04778
-1.91036
-1.77374
-1.63804
-1.50382
-1.37125
-1.24001
-1.10985
-0.980462
-0.851553
-0.722912
-0.594461
-0.46625
-0.338463
-0.211422
-0.0867147
-10.3485
-10.4461
-10.5155
-10.5578
-10.5743
-10.5662
-10.5353
-10.483
-10.4112
-10.3214
-10.2155
-10.0951
-9.96204
-9.8178
-9.6639
-9.50171
-9.33255
-9.15773
-8.97853
-8.79615
-8.61164
-8.42592
-8.23976
-8.0538
-7.86854
-7.68438
-7.50164
-7.32057
-7.14135
-6.9641
-6.78889
-6.61573
-6.44462
-6.27551
-6.10834
-5.94303
-5.77945
-5.6175
-5.45704
-5.29798
-5.14024
-4.98373
-4.82841
-4.67419
-4.52104
-4.36887
-4.21761
-4.06718
-3.91753
-3.76859
-3.62038
-3.4729
-3.3262
-3.18034
-3.0354
-2.89146
-2.74855
-2.60668
-2.46579
-2.32581
-2.18665
-2.04826
-1.91061
-1.77366
-1.63783
-1.50348
-1.37068
-1.23921
-1.10881
-0.979248
-0.850258
-0.721626
-0.593257
-0.465182
-0.33757
-0.210748
-0.086265
-10.5759
-10.6684
-10.7314
-10.7661
-10.7739
-10.7563
-10.715
-10.6519
-10.5688
-10.4676
-10.3502
-10.2183
-10.074
-9.91871
-9.75419
-9.58184
-9.40305
-9.2192
-9.03162
-8.84154
-8.65005
-8.45807
-8.26636
-8.07554
-7.88608
-7.69834
-7.5126
-7.32908
-7.1479
-6.96914
-6.79281
-6.61887
-6.44727
-6.27793
-6.11073
-5.94555
-5.78222
-5.6206
-5.46052
-5.30187
-5.14452
-4.98839
-4.83341
-4.67948
-4.52655
-4.37454
-4.22335
-4.07292
-3.92316
-3.77404
-3.62557
-3.47776
-3.33068
-3.1844
-3.03903
-2.89464
-2.7513
-2.609
-2.4677
-2.32732
-2.18779
-2.04905
-1.91104
-1.77396
-1.63783
-1.50321
-1.37015
-1.23841
-1.10775
-0.978004
-0.848914
-0.720264
-0.591949
-0.463992
-0.336568
-0.209941
-0.0857115
-10.8373
-10.9237
-10.9792
-11.0049
-11.0024
-10.9735
-10.9201
-10.8443
-10.7481
-10.6334
-10.5025
-10.3573
-10.1998
-10.0318
-9.85502
-9.67095
-9.4811
-9.28691
-9.08977
-8.89095
-8.69156
-8.49252
-8.29459
-8.09835
-7.90423
-7.71257
-7.52357
-7.33741
-7.15416
-6.97383
-6.79639
-6.62172
-6.44973
-6.28027
-6.11318
-5.94827
-5.78535
-5.62421
-5.46467
-5.30654
-5.14971
-4.99407
-4.8395
-4.68594
-4.53328
-4.38145
-4.23036
-4.0799
-3.93002
-3.78068
-3.63189
-3.48369
-3.33616
-3.18938
-3.04348
-2.89857
-2.75469
-2.61187
-2.47006
-2.3292
-2.18922
-2.05005
-1.91173
-1.7741
-1.6379
-1.50298
-1.3697
-1.23759
-1.1067
-0.976809
-0.847619
-0.718968
-0.590705
-0.462886
-0.335597
-0.209227
-0.0851601
-11.135
-11.2142
-11.2606
-11.2757
-11.2612
-11.2191
-11.1517
-11.061
-10.9494
-10.8193
-10.6728
-10.5121
-10.3395
-10.1568
-9.96594
-9.76849
-9.56606
-9.36013
-9.15219
-8.94355
-8.73532
-8.52843
-8.32361
-8.12142
-7.92224
-7.72632
-7.53386
-7.34493
-7.15957
-6.9777
-6.79922
-6.62396
-6.45174
-6.28236
-6.1156
-5.95119
-5.7889
-5.62846
-5.46964
-5.31223
-5.15608
-5.00106
-4.84704
-4.69393
-4.54162
-4.39003
-4.23904
-4.08857
-3.93854
-3.78893
-3.63976
-3.4911
-3.34302
-3.19565
-3.04912
-2.90356
-2.75904
-2.61557
-2.47313
-2.33168
-2.19113
-2.05142
-1.91248
-1.77465
-1.63776
-1.50256
-1.36875
-1.23654
-1.10543
-0.975356
-0.846099
-0.717443
-0.589258
-0.461582
-0.334611
-0.208424
-0.0846254
-11.4715
-11.5421
-11.5779
-11.5806
-11.552
-11.4946
-11.4108
-11.3029
-11.1737
-11.0256
-10.8611
-10.6827
-10.4928
-10.2934
-10.0865
-9.87387
-9.65722
-9.43814
-9.21812
-8.99855
-8.78055
-8.56503
-8.3527
-8.14406
-7.93944
-7.73905
-7.54296
-7.35122
-7.16376
-6.98045
-6.80108
-6.62542
-6.45321
-6.28416
-6.11799
-5.95436
-5.79295
-5.63346
-5.47559
-5.31911
-5.16382
-5.00957
-4.85622
-4.70366
-4.55177
-4.40044
-4.24958
-4.09907
-3.94886
-3.79891
-3.64929
-3.50006
-3.35133
-3.20324
-3.05596
-2.90961
-2.7643
-2.62005
-2.47685
-2.33466
-2.19341
-2.05307
-1.91365
-1.77495
-1.63777
-1.50194
-1.36788
-1.23505
-1.10366
-0.973429
-0.844137
-0.715552
-0.587551
-0.460168
-0.33344
-0.207645
-0.0840038
-11.8498
-11.9102
-11.9335
-11.9217
-11.8769
-11.8017
-11.6988
-11.5712
-11.4215
-11.2528
-11.0677
-10.8691
-10.6593
-10.4409
-10.2159
-9.98619
-9.75362
-9.51982
-9.28641
-9.05477
-8.82605
-8.60113
-8.38067
-8.16514
-7.95478
-7.74971
-7.54996
-7.35544
-7.16601
-6.98145
-6.80146
-6.62571
-6.45384
-6.2855
-6.12028
-5.95779
-5.79763
-5.63942
-5.48281
-5.32752
-5.17333
-5.02006
-4.86755
-4.71566
-4.56427
-4.41328
-4.26255
-4.11199
-3.96154
-3.8112
-3.66102
-3.5111
-3.36159
-3.21264
-3.06444
-2.91715
-2.77088
-2.62568
-2.48154
-2.33845
-2.19635
-2.0552
-1.91492
-1.77587
-1.63774
-1.50135
-1.36643
-1.23333
-1.10159
-0.971176
-0.841884
-0.71345
-0.585715
-0.458636
-0.332322
-0.206688
-0.0832894
-12.2728
-12.3213
-12.3301
-12.3015
-12.2378
-12.1421
-12.0174
-11.8669
-11.6938
-11.5014
-11.2928
-11.0709
-10.8387
-10.5988
-10.3533
-10.1045
-9.85419
-9.60412
-9.35594
-9.11109
-8.87071
-8.63565
-8.40653
-8.18372
-7.9674
-7.75758
-7.55417
-7.35702
-7.16586
-6.98035
-6.8001
-6.62465
-6.45356
-6.28635
-6.12254
-5.96162
-5.80312
-5.64658
-5.49158
-5.33779
-5.18495
-5.03287
-4.88136
-4.73027
-4.57946
-4.42882
-4.27823
-4.12758
-3.97682
-3.82597
-3.6751
-3.52436
-3.37389
-3.2239
-3.07459
-2.92616
-2.77873
-2.63238
-2.48712
-2.34294
-2.19982
-2.05774
-1.91674
-1.77651
-1.63786
-1.50055
-1.36516
-1.23123
-1.09909
-0.968515
-0.839253
-0.711043
-0.583649
-0.456973
-0.330886
-0.205625
-0.0824314
-12.7449
-12.7791
-12.7711
-12.7229
-12.6375
-12.5181
-12.3682
-12.1914
-11.9914
-11.7718
-11.5362
-11.288
-11.0303
-10.766
-10.4977
-10.2275
-9.95745
-9.68939
-9.42502
-9.16579
-8.91283
-8.66693
-8.42864
-8.19826
-7.97584
-7.76129
-7.5544
-7.35489
-7.16237
-6.97638
-6.79637
-6.6218
-6.45207
-6.28659
-6.12477
-5.966
-5.8097
-5.65531
-5.50236
-5.35046
-5.19932
-5.04869
-4.89839
-4.74825
-4.59812
-4.4479
-4.29743
-4.14664
-3.99549
-3.844
-3.6923
-3.54054
-3.38892
-3.23766
-3.08701
-2.9372
-2.78837
-2.64062
-2.494
-2.34851
-2.20415
-2.06091
-1.91869
-1.77784
-1.63788
-1.49978
-1.36329
-1.22897
-1.09639
-0.965582
-0.836356
-0.708379
-0.581352
-0.455029
-0.329367
-0.204281
-0.0814426
-13.2697
-13.2874
-13.2597
-13.189
-13.0785
-12.9319
-12.753
-12.5459
-12.315
-12.0643
-11.7979
-11.5197
-11.2332
-10.9416
-10.6476
-10.3536
-10.0618
-9.77403
-9.49203
-9.21729
-8.95086
-8.6935
-8.44565
-8.2075
-7.97898
-7.75987
-7.5498
-7.34836
-7.15501
-6.96913
-6.79004
-6.61702
-6.44936
-6.28633
-6.1272
-5.97123
-5.81773
-5.66606
-5.51566
-5.36606
-5.21695
-5.06807
-4.91918
-4.77013
-4.62077
-4.47094
-4.32058
-4.16956
-4.01788
-3.86559
-3.71284
-3.55984
-3.4068
-3.25402
-3.10175
-2.95027
-2.79976
-2.65035
-2.5021
-2.35503
-2.20919
-2.0646
-1.92127
-1.77879
-1.63803
-1.49874
-1.36165
-1.22632
-1.09325
-0.962235
-0.833027
-0.705296
-0.578653
-0.452781
-0.327409
-0.202817
-0.0803168
-13.8526
-13.8507
-13.8002
-13.7035
-13.5641
-13.3861
-13.1738
-12.932
-12.6655
-12.3793
-12.0778
-11.7654
-11.4463
-11.1239
-10.8012
-10.4809
-10.165
-9.85567
-9.55457
-9.26314
-8.98241
-8.71304
-8.45532
-8.20935
-7.9749
-7.75155
-7.53882
-7.33608
-7.14264
-6.9577
-6.7804
-6.60987
-6.4452
-6.28554
-6.12998
-5.97766
-5.82775
-5.6795
-5.53225
-5.3855
-5.23886
-5.09204
-4.94484
-4.79705
-4.64852
-4.49915
-4.3488
-4.19745
-4.04507
-3.89177
-3.73773
-3.58319
-3.42845
-3.2738
-3.11959
-2.9661
-2.81357
-2.66216
-2.51193
-2.36299
-2.21537
-2.06909
-1.92401
-1.78051
-1.63806
-1.49773
-1.35931
-1.2235
-1.08988
-0.958564
-0.829346
-0.701829
-0.575569
-0.450123
-0.325322
-0.201039
-0.0790671
-14.499
-14.4741
-14.3969
-14.27
-14.0972
-13.883
-13.6324
-13.3507
-13.0435
-12.7166
-12.3751
-12.024
-11.6681
-11.3111
-10.9565
-10.607
-10.2648
-9.932
-9.61031
-9.30113
-9.00537
-8.72354
-8.45586
-8.20219
-7.96215
-7.73515
-7.52045
-7.31728
-7.1247
-6.94174
-6.76732
-6.60037
-6.43982
-6.28459
-6.13364
-5.98592
-5.84048
-5.69642
-5.55301
-5.40965
-5.26592
-5.12154
-4.97623
-4.82983
-4.68219
-4.5332
-4.3828
-4.23091
-4.0776
-3.923
-3.76734
-3.61093
-3.45408
-3.2972
-3.14064
-2.98475
-2.82981
-2.676
-2.52346
-2.37227
-2.22253
-2.07428
-1.92755
-1.78188
-1.63827
-1.49643
-1.35722
-1.22019
-1.08596
-0.954335
-0.825069
-0.697774
-0.571931
-0.44705
-0.322689
-0.199124
-0.0776701
-15.2158
-15.164
-15.0554
-14.8932
-14.6816
-14.4256
-14.1307
-13.8032
-13.4494
-13.076
-12.6889
-12.294
-11.8965
-11.5008
-11.1106
-10.7288
-10.3578
-9.99955
-9.6558
-9.32782
-9.01638
-8.72188
-8.44426
-8.18326
-7.93826
-7.7084
-7.49279
-7.29034
-7.09993
-6.9203
-6.75016
-6.58823
-6.43319
-6.28377
-6.13872
-5.99681
-5.85692
-5.71803
-5.57927
-5.43999
-5.29972
-5.15814
-5.01502
-4.87016
-4.72344
-4.57479
-4.42414
-4.27151
-4.11697
-3.96071
-3.80304
-3.64429
-3.48491
-3.32529
-3.16591
-3.00715
-2.84932
-2.69267
-2.53734
-2.38349
-2.23122
-2.08058
-1.93144
-1.78424
-1.63842
-1.49519
-1.35431
-1.21661
-1.08166
-0.9496
-0.820242
-0.69314
-0.567738
-0.443418
-0.319879
-0.196859
-0.0761687
-16.0111
-15.927
-15.7813
-15.5777
-15.3208
-15.0162
-14.6703
-14.2901
-13.8831
-13.4566
-13.0178
-12.5733
-12.129
-11.69
-11.2603
-10.8431
-10.4406
-10.055
-9.68774
-9.34007
-9.01255
-8.70532
-8.41816
-8.1505
-7.90145
-7.66995
-7.45474
-7.25454
-7.06788
-6.89326
-6.72911
-6.57387
-6.42601
-6.28398
-6.14631
-6.01157
-5.87844
-5.74575
-5.61254
-5.47804
-5.34176
-5.20338
-5.06264
-4.9194
-4.77356
-4.62507
-4.47394
-4.3202
-4.16402
-4.00565
-3.84544
-3.68385
-3.52133
-3.35844
-3.19566
-3.03347
-2.87222
-2.7122
-2.5536
-2.39659
-2.24134
-2.08794
-1.93644
-1.78638
-1.63889
-1.49367
-1.35166
-1.2124
-1.07659
-0.944041
-0.814531
-0.687633
-0.562738
-0.439205
-0.316409
-0.194498
-0.0745995
-16.8931
-16.7709
-16.5813
-16.3289
-16.019
-15.6579
-15.2529
-14.8121
-14.344
-13.8571
-13.3596
-12.8591
-12.3622
-11.8749
-11.4014
-10.945
-10.5084
-10.0932
-9.70116
-9.33303
-8.98919
-8.66953
-8.37348
-8.10021
-7.84851
-7.61694
-7.40401
-7.20802
-7.02723
-6.85977
-6.70379
-6.55742
-6.4188
-6.28615
-6.1577
-6.03181
-5.90692
-5.78171
-5.65508
-5.5262
-5.39454
-5.25976
-5.12165
-4.98008
-4.835
-4.68646
-4.53447
-4.37921
-4.22085
-4.05976
-3.8964
-3.73126
-3.56496
-3.39808
-3.23123
-3.06494
-2.89963
-2.73562
-2.57314
-2.41243
-2.25366
-2.09694
-1.94217
-1.78989
-1.63951
-1.49233
-1.34812
-1.20779
-1.07092
-0.937699
-0.807952
-0.681223
-0.556896
-0.434232
-0.312769
-0.191898
-0.073176
-17.7041
-17.4632
-17.1528
-16.7801
-16.3527
-15.8789
-15.3682
-14.8302
-14.2747
-13.7108
-13.1473
-12.5918
-12.0506
-11.5288
-11.0298
-10.5561
-10.1095
-9.69135
-9.30226
-8.94225
-8.61079
-8.30704
-8.0297
-7.7772
-7.54776
-7.3394
-7.15015
-6.9778
-6.82013
-6.67493
-6.53997
-6.41308
-6.2921
-6.17499
-6.05981
-5.94482
-5.82846
-5.70952
-5.5871
-5.46063
-5.32979
-5.19441
-5.05443
-4.90988
-4.76085
-4.60751
-4.45005
-4.28883
-4.12427
-3.95694
-3.78746
-3.61652
-3.44486
-3.27314
-3.10199
-2.93187
-2.76316
-2.59616
-2.4311
-2.26823
-2.1077
-1.94964
-1.79358
-1.64076
-1.49085
-1.3449
-1.20245
-1.06427
-0.930214
-0.80009
-0.673503
-0.54984
-0.428414
-0.308373
-0.189522
-0.0722967
-18.7394
-18.4352
-18.0556
-17.6085
-17.1029
-16.5489
-15.9572
-15.3392
-14.7056
-14.0668
-13.4327
-12.8116
-12.2108
-11.6356
-11.0899
-10.5763
-10.0963
-9.65107
-9.24079
-8.86508
-8.52302
-8.21321
-7.93398
-7.68324
-7.45871
-7.25807
-7.07874
-6.91817
-6.77366
-6.64257
-6.52229
-6.41022
-6.30383
-6.2007
-6.09859
-5.99547
-5.88965
-5.77971
-5.66471
-5.54407
-5.41748
-5.28489
-5.1463
-5.00186
-4.8518
-4.69634
-4.53589
-4.37088
-4.20189
-4.02959
-3.85474
-3.67818
-3.50072
-3.32319
-3.14626
-2.97047
-2.79625
-2.62392
-2.4538
-2.28613
-2.12111
-1.95865
-1.79936
-1.64265
-1.48994
-1.341
-1.19683
-1.057
-0.921758
-0.791019
-0.66442
-0.541441
-0.421397
-0.303797
-0.187493
-0.0732072
-19.5061
-19.043
-18.5082
-17.9101
-17.262
-16.5767
-15.8669
-15.1447
-14.4218
-13.7085
-13.0147
-12.3479
-11.7142
-11.1179
-10.5614
-10.0462
-9.57308
-9.14183
-8.75154
-8.40067
-8.08732
-7.80911
-7.56345
-7.34757
-7.15845
-6.99313
-6.84842
-6.72116
-6.60821
-6.50647
-6.41289
-6.32447
-6.2384
-6.15203
-6.06307
-5.96958
-5.87005
-5.76342
-5.64914
-5.52701
-5.39703
-5.2594
-5.11441
-4.9624
-4.80386
-4.63926
-4.46928
-4.29462
-4.1161
-3.93465
-3.75122
-3.56682
-3.38235
-3.1986
-3.01615
-2.83548
-2.65696
-2.48094
-2.30773
-2.13753
-1.97048
-1.80615
-1.64586
-1.4894
-1.33784
-1.19069
-1.04872
-0.911865
-0.780061
-0.653105
-0.530644
-0.412346
-0.297569
-0.186196
-0.0780972
-20.123
-19.4807
-18.7742
-18.0161
-17.2226
-16.408
-15.5856
-14.7679
-13.9666
-13.1916
-12.452
-11.7541
-11.1025
-10.5001
-9.94793
-9.44647
-8.99496
-8.59183
-8.23491
-7.9214
-7.64832
-7.41232
-7.2099
-7.03755
-6.89151
-6.76803
-6.66333
-6.57365
-6.49537
-6.42487
-6.3586
-6.29325
-6.22585
-6.15369
-6.07463
-5.98702
-5.88978
-5.78233
-5.66462
-5.53688
-5.39948
-5.25292
-5.09781
-4.93476
-4.76457
-4.58805
-4.40615
-4.21986
-4.03025
-3.83851
-3.64575
-3.45302
-3.26117
-3.07087
-2.88264
-2.69687
-2.51397
-2.33425
-2.15789
-1.98482
-1.81571
-1.65015
-1.48963
-1.33393
-1.18392
-1.03911
-0.899829
-0.766201
-0.638145
-0.515633
-0.398709
-0.287928
-0.18361
-0.0893185
-20.5285
-19.6899
-18.8044
-17.8863
-16.9524
-16.0174
-15.0944
-14.1954
-13.3315
-12.512
-11.7441
-11.0332
-10.3819
-9.79151
-9.26191
-8.79177
-8.37868
-8.01955
-7.71078
-7.44833
-7.22805
-7.04567
-6.89676
-6.77687
-6.68141
-6.60586
-6.5458
-6.49685
-6.45477
-6.41544
-6.37493
-6.32979
-6.27712
-6.21444
-6.13998
-6.05271
-5.95211
-5.83827
-5.71172
-5.57321
-5.42348
-5.26337
-5.09386
-4.91593
-4.73071
-4.53936
-4.34312
-4.14328
-3.94116
-3.7381
-3.53526
-3.33354
-3.13369
-2.9363
-2.74179
-2.55057
-2.36304
-2.17935
-1.99963
-1.82363
-1.65282
-1.4871
-1.32741
-1.17303
-1.02471
-0.882398
-0.746285
-0.61652
-0.493382
-0.377704
-0.270588
-0.175822
-0.102545
-21.6414
-20.6509
-19.6148
-18.5526
-17.4837
-16.4233
-15.3844
-14.379
-13.4185
-12.513
-11.6705
-10.8968
-10.1951
-9.56641
-9.01036
-8.52481
-8.10641
-7.75105
-7.45392
-7.20998
-7.01391
-6.86046
-6.74418
-6.65948
-6.6009
-6.56286
-6.54004
-6.52738
-6.51967
-6.51218
-6.50047
-6.48053
-6.44905
-6.40376
-6.3425
-6.26434
-6.16912
-6.05703
-5.92905
-5.78642
-5.63025
-5.46177
-5.28223
-5.09302
-4.89553
-4.69127
-4.48179
-4.26862
-4.05343
-3.8377
-3.62285
-3.40979
-3.1993
-2.99203
-2.78829
-2.58861
-2.39332
-2.20249
-2.01617
-1.83504
-1.6588
-1.48901
-1.3251
-1.16774
-1.01636
-0.871347
-0.732782
-0.600946
-0.476715
-0.361086
-0.256271
-0.167479
-0.109389
-22.823
-21.6437
-20.4299
-19.2017
-17.9802
-16.7812
-15.6165
-14.4969
-13.4343
-12.4391
-11.5203
-10.6845
-9.93472
-9.272
-8.6952
-8.20154
-7.78621
-7.44388
-7.16824
-6.95291
-6.79133
-6.6767
-6.60245
-6.56178
-6.54748
-6.55354
-6.57309
-6.60046
-6.62976
-6.65539
-6.67245
-6.67669
-6.66452
-6.63383
-6.58267
-6.51043
-6.41709
-6.30359
-6.17159
-6.02263
-5.85834
-5.68028
-5.48992
-5.28895
-5.07927
-4.86258
-4.64056
-4.41508
-4.18789
-3.9608
-3.73522
-3.51208
-3.29225
-3.07615
-2.86412
-2.65674
-2.45419
-2.25669
-2.0644
-1.87696
-1.69592
-1.52099
-1.35293
-1.1906
-1.03477
-0.88547
-0.742642
-0.60691
-0.479149
-0.3604
-0.252856
-0.164196
-0.108809
-22.6537
-21.2323
-19.8175
-18.4273
-17.0778
-15.7799
-14.5421
-13.3752
-12.2915
-11.3004
-10.4086
-9.61919
-8.93216
-8.34523
-7.85346
-7.45065
-7.12938
-6.88239
-6.70146
-6.57919
-6.50744
-6.4784
-6.48404
-6.51624
-6.56716
-6.62953
-6.69664
-6.76211
-6.82034
-6.86557
-6.89368
-6.90188
-6.88696
-6.84839
-6.78529
-6.69792
-6.58851
-6.45801
-6.30775
-6.13979
-5.95551
-5.75682
-5.54599
-5.325
-5.09613
-4.86133
-4.62259
-4.38222
-4.14215
-3.90375
-3.66861
-3.43731
-3.21015
-2.98794
-2.77086
-2.5591
-2.35323
-2.15273
-1.95821
-1.76973
-1.5883
-1.41302
-1.24482
-1.08294
-0.927202
-0.778171
-0.636669
-0.502957
-0.377775
-0.26414
-0.169682
-0.107591
-22.0094
-20.3871
-18.8262
-17.3294
-15.9042
-14.5564
-13.2951
-12.1315
-11.0764
-10.1361
-9.31383
-8.60901
-8.01703
-7.53098
-7.14368
-6.84668
-6.63165
-6.48943
-6.4106
-6.38575
-6.40555
-6.46074
-6.54177
-6.63985
-6.74663
-6.85432
-6.95639
-7.04651
-7.12012
-7.1724
-7.20044
-7.20174
-7.17511
-7.12149
-7.04098
-6.93394
-6.80223
-6.64795
-6.47304
-6.27938
-6.06935
-5.84565
-5.61116
-5.36838
-5.11959
-4.86703
-4.61292
-4.35931
-4.10792
-3.86013
-3.61655
-3.37788
-3.14471
-2.91687
-2.69505
-2.47986
-2.2709
-2.06772
-1.87155
-1.68187
-1.49965
-1.32374
-1.15416
-0.991056
-0.834838
-0.6857
-0.544168
-0.411192
-0.288505
-0.184941
-0.109208
-21.0141
-19.2767
-17.6432
-16.086
-14.6193
-13.2548
-12.0062
-10.8871
-9.90339
-9.05774
-8.34538
-7.75807
-7.28748
-6.92449
-6.65972
-6.48257
-6.38285
-6.34955
-6.3718
-6.43839
-6.5391
-6.66319
-6.80096
-6.94396
-7.08347
-7.21273
-7.32533
-7.41679
-7.48378
-7.52162
-7.53018
-7.50797
-7.45445
-7.37113
-7.25872
-7.11999
-6.9574
-6.77274
-6.56906
-6.34861
-6.11378
-5.8678
-5.61355
-5.35411
-5.0914
-4.82697
-4.5635
-4.30311
-4.04625
-3.79378
-3.54651
-3.30475
-3.0689
-2.83912
-2.6154
-2.3983
-2.18805
-1.98346
-1.78613
-1.59595
-1.41279
-1.23549
-1.06465
-0.900614
-0.743606
-0.593944
-0.451863
-0.31914
-0.204836
-0.112216
-19.6595
-17.8877
-16.229
-14.6664
-13.2215
-11.9142
-10.7561
-9.75361
-8.90211
-8.19301
-7.61741
-7.16575
-6.82812
-6.59341
-6.45001
-6.38572
-6.38874
-6.44635
-6.54683
-6.67797
-6.82984
-6.99064
-7.15238
-7.30631
-7.44548
-7.56494
-7.65996
-7.7276
-7.76509
-7.76947
-7.74245
-7.68394
-7.59412
-7.47493
-7.32972
-7.16077
-6.9703
-6.76114
-6.53632
-6.29807
-6.04856
-5.79098
-5.52852
-5.26271
-4.99496
-4.72786
-4.46332
-4.20229
-3.94493
-3.69213
-3.44482
-3.20306
-2.96652
-2.73657
-2.51333
-2.29583
-2.08505
-1.88121
-1.68453
-1.4939
-1.30983
-1.13199
-0.960782
-0.796549
-0.639545
-0.489067
-0.347261
-0.223427
-0.113327
-19.9051
-18.0473
-16.3283
-14.7136
-13.2251
-11.8837
-10.7069
-9.69498
-8.84006
-8.13449
-7.56825
-7.13208
-6.81359
-6.60124
-6.48189
-6.44158
-6.46678
-6.54534
-6.66298
-6.80832
-6.97008
-7.13757
-7.30164
-7.45437
-7.59116
-7.70487
-7.79292
-7.85329
-7.883
-7.87989
-7.84572
-7.78057
-7.68598
-7.56334
-7.41619
-7.24664
-7.05694
-6.84955
-6.62768
-6.3926
-6.14656
-5.89266
-5.63339
-5.37003
-5.10425
-4.83854
-4.57459
-4.31285
-4.05362
-3.79856
-3.54816
-3.30235
-3.06156
-2.82707
-2.59867
-2.37678
-2.16062
-1.95143
-1.749
-1.55351
-1.36398
-1.18044
-1.00394
-0.83415
-0.671245
-0.514466
-0.366487
-0.234982
-0.109711
-18.1102
-16.3679
-14.7483
-13.2418
-11.8844
-10.6988
-9.68265
-8.82865
-8.12631
-7.56804
-7.14229
-6.83672
-6.63702
-6.5305
-6.50085
-6.53473
-6.61897
-6.73904
-6.88401
-7.04089
-7.20262
-7.35718
-7.49992
-7.62493
-7.72863
-7.80563
-7.85658
-7.87682
-7.86774
-7.82832
-7.76112
-7.66557
-7.54498
-7.40105
-7.23681
-7.05287
-6.85306
-6.63874
-6.41148
-6.17321
-5.92679
-5.67411
-5.41647
-5.15555
-4.89349
-4.63232
-4.37171
-4.1131
-3.85737
-3.60585
-3.35768
-3.11444
-2.87654
-2.64539
-2.41931
-2.19986
-1.98678
-1.7811
-1.58188
-1.38858
-1.20231
-1.02187
-0.849143
-0.682638
-0.523155
-0.371306
-0.235421
-0.0993996
-16.3335
-14.7305
-13.2336
-11.8783
-10.6918
-9.68377
-8.82999
-8.13239
-7.57537
-7.15533
-6.85326
-6.65746
-6.55337
-6.52242
-6.55527
-6.63229
-6.74666
-6.87938
-7.02707
-7.17331
-7.31765
-7.44513
-7.5603
-7.64977
-7.71997
-7.76051
-7.77759
-7.76306
-7.7251
-7.65758
-7.56722
-7.45076
-7.3153
-7.15793
-6.98397
-6.79296
-6.58869
-6.37051
-6.1415
-5.90363
-5.65854
-5.40768
-5.15212
-4.89534
-4.6369
-4.37926
-4.12137
-3.86693
-3.61424
-3.36615
-3.12052
-2.88191
-2.64776
-2.42128
-2.19859
-1.9835
-1.77587
-1.57524
-1.38255
-1.19374
-1.01406
-0.839172
-0.674022
-0.512843
-0.362775
-0.225496
-0.0833468
-16.2579
-14.6683
-13.1876
-11.8438
-9.4252
-9.54007
-9.63151
-9.70015
-9.74679
-9.77239
-9.77797
-9.76459
-9.73333
-9.68534
-9.62181
-9.54397
-9.45305
-9.35026
-9.23674
-9.11357
-8.98184
-8.8426
-8.69695
-8.54594
-8.39054
-8.2316
-8.06986
-7.90596
-7.74045
-7.57381
-7.40648
-7.23883
-7.07122
-6.90396
-6.73728
-6.5714
-6.40644
-6.24248
-6.07959
-5.91778
-5.75706
-5.59744
-5.43893
-5.28155
-5.12532
-4.97025
-4.81632
-4.6635
-4.51174
-4.36099
-4.21119
-4.06228
-3.91422
-3.767
-3.62062
-3.47508
-3.33039
-3.18652
-3.04349
-2.9013
-2.75997
-2.61949
-2.47985
-2.34099
-2.20282
-2.06526
-1.92822
-1.7917
-1.65591
-1.52126
-1.38805
-1.2563
-1.12563
-0.995522
-0.865534
-0.73545
-0.605326
-0.475333
-0.345659
-0.216545
-0.0895825
-9.45029
-9.5646
-9.6554
-9.72329
-9.76908
-9.79372
-9.79825
-9.78372
-9.75127
-9.70205
-9.63728
-9.55819
-9.46604
-9.36206
-9.2474
-9.12317
-8.99042
-8.85023
-8.70368
-8.55182
-8.39562
-8.23593
-8.07352
-7.90903
-7.74301
-7.57595
-7.40828
-7.24036
-7.07255
-6.90512
-6.73832
-6.57234
-6.40731
-6.2433
-6.08038
-5.91857
-5.75787
-5.5983
-5.43984
-5.28251
-5.12632
-4.97128
-4.81736
-4.66453
-4.51276
-4.362
-4.21219
-4.06328
-3.91521
-3.76798
-3.62157
-3.47599
-3.33123
-3.18728
-3.04416
-2.90189
-2.76047
-2.61991
-2.48018
-2.34124
-2.203
-2.06539
-1.92831
-1.79174
-1.65589
-1.52112
-1.38779
-1.25589
-1.1251
-0.994944
-0.864972
-0.734962
-0.604924
-0.474998
-0.345358
-0.216278
-0.089204
-9.50031
-9.61364
-9.70321
-9.76965
-9.81376
-9.83652
-9.83897
-9.82223
-9.78744
-9.73581
-9.66859
-9.58706
-9.49249
-9.38616
-9.26921
-9.14278
-9.00794
-8.86576
-8.71733
-8.56372
-8.40589
-8.24472
-8.08097
-7.91529
-7.74824
-7.5803
-7.41189
-7.24337
-7.07507
-6.90725
-6.74014
-6.57391
-6.40869
-6.24455
-6.08154
-5.91969
-5.75901
-5.59946
-5.44106
-5.2838
-5.12768
-4.97269
-4.81881
-4.66601
-4.51426
-4.36351
-4.21371
-4.0648
-3.91672
-3.76946
-3.623
-3.47734
-3.33249
-3.18843
-3.0452
-2.90281
-2.76128
-2.6206
-2.48076
-2.34169
-2.20333
-2.06558
-1.92839
-1.79175
-1.65585
-1.52105
-1.38767
-1.25567
-1.12479
-0.994543
-0.864536
-0.734527
-0.60451
-0.474599
-0.344994
-0.215986
-0.0891118
-9.57626
-9.68811
-9.7758
-9.83997
-9.88148
-9.90132
-9.9006
-9.88046
-9.84212
-9.78682
-9.71588
-9.63062
-9.53239
-9.42246
-9.30203
-9.17223
-9.03417
-8.88894
-8.73765
-8.58138
-8.4211
-8.2577
-8.09194
-7.92449
-7.75589
-7.58662
-7.41708
-7.24763
-7.07857
-6.91014
-6.74254
-6.57594
-6.41044
-6.24611
-6.08299
-5.9211
-5.76043
-5.60095
-5.44264
-5.28549
-5.12948
-4.97459
-4.82081
-4.66809
-4.51641
-4.36571
-4.21594
-4.06704
-3.91895
-3.77165
-3.62512
-3.47937
-3.33438
-3.19019
-3.0468
-2.90427
-2.76259
-2.62177
-2.48178
-2.34254
-2.204
-2.06608
-1.92873
-1.79198
-1.65603
-1.52122
-1.38779
-1.25572
-1.12468
-0.994308
-0.864191
-0.73412
-0.604064
-0.474146
-0.344576
-0.215667
-0.088964
-9.67836
-9.78822
-9.87335
-9.93444
-9.97239
-9.98827
-9.98322
-9.95848
-9.91532
-9.85508
-9.77913
-9.68887
-9.58568
-9.4709
-9.34576
-9.21142
-9.06902
-8.91968
-8.76453
-8.60468
-8.44112
-8.27474
-8.10632
-7.9365
-7.76584
-7.59479
-7.42375
-7.25305
-7.08296
-6.91371
-6.74547
-6.57838
-6.41252
-6.24796
-6.08471
-5.92278
-5.76214
-5.60275
-5.44458
-5.28758
-5.13173
-4.977
-4.82336
-4.67077
-4.51919
-4.36857
-4.21885
-4.06997
-3.92186
-3.77451
-3.62789
-3.482
-3.33686
-3.19248
-3.04891
-2.90618
-2.76432
-2.62332
-2.48313
-2.34369
-2.20493
-2.0668
-1.92926
-1.79236
-1.65631
-1.52144
-1.38798
-1.25577
-1.12459
-0.994028
-0.863777
-0.733611
-0.603507
-0.473576
-0.344052
-0.215244
-0.0886858
-9.80764
-9.91494
-9.99676
-10.0539
-10.0872
-10.098
-10.0874
-10.0567
-10.0074
-9.94087
-9.85854
-9.7619
-9.65241
-9.53146
-9.40033
-9.26022
-9.11232
-8.95777
-8.79776
-8.6334
-8.46572
-8.29561
-8.12384
-7.95108
-7.77784
-7.60458
-7.43167
-7.25941
-7.08806
-6.9178
-6.74878
-6.58111
-6.41485
-6.25004
-6.08667
-5.92472