/*--------------------------------*- C++ -*----------------------------------*\
  =========                 |
  \\      /  F ield         | OpenFOAM: The Open Source CFD Toolbox
   \\    /   O peration     | Website:  https://openfoam.org
    \\  /    A nd           | Version:  13
     \\/     M anipulation  |
\*---------------------------------------------------------------------------*/
FoamFile
{
    format      ascii;
    class       volScalarField;
    location    "800";
    object      k;
}
// * * * * * * * * * * * * * * * * * * * * * * * * * * * * * * * * * * * * * //

dimensions      [0 2 -2 0 0 0 0];

internalField   nonuniform List<scalar> 
169896
(
0.623748
0.617447
0.611261
0.605187
0.599223
0.593365
0.587611
0.581958
0.576404
0.570946
0.565581
0.560309
0.555125
0.550028
0.545017
0.540088
0.535241
0.530472
0.525781
0.521165
0.516622
0.512152
0.507752
0.503422
0.499158
0.49496
0.490827
0.486756
0.482748
0.478799
0.47491
0.471078
0.467303
0.463584
0.459919
0.456307
0.452747
0.449238
0.44578
0.442371
0.43901
0.435696
0.432429
0.429207
0.426031
0.422898
0.419809
0.416762
0.413757
0.410793
0.40787
0.404986
0.402142
0.399336
0.396569
0.393839
0.391146
0.38849
0.38587
0.383286
0.380737
0.378224
0.375744
0.373299
0.370888
0.368511
0.366167
0.363855
0.361577
0.359331
0.357117
0.354936
0.352786
0.350667
0.623748
0.617446
0.61126
0.605187
0.599222
0.593365
0.587611
0.581958
0.576403
0.570945
0.565581
0.560308
0.555125
0.550028
0.545016
0.540088
0.53524
0.530472
0.52578
0.521164
0.516622
0.512152
0.507752
0.503421
0.499158
0.49496
0.490827
0.486756
0.482747
0.478799
0.47491
0.471078
0.467303
0.463584
0.459919
0.456307
0.452747
0.449239
0.44578
0.442371
0.43901
0.435697
0.432429
0.429208
0.426031
0.422899
0.41981
0.416763
0.413758
0.410794
0.407871
0.404988
0.402143
0.399338
0.396571
0.393841
0.391149
0.388493
0.385873
0.383289
0.380741
0.378227
0.375748
0.373304
0.370893
0.368516
0.366172
0.363861
0.361583
0.359338
0.357125
0.354944
0.352794
0.350676
0.623748
0.617446
0.61126
0.605187
0.599222
0.593365
0.587611
0.581958
0.576404
0.570945
0.565581
0.560308
0.555125
0.550028
0.545017
0.540088
0.53524
0.530472
0.525781
0.521165
0.516623
0.512153
0.507753
0.503422
0.499159
0.494961
0.490828
0.486758
0.482749
0.478801
0.474912
0.47108
0.467306
0.463587
0.459922
0.45631
0.452751
0.449242
0.445784
0.442376
0.439015
0.435702
0.432435
0.429214
0.426038
0.422906
0.419817
0.416771
0.413766
0.410803
0.40788
0.404998
0.402154
0.399349
0.396583
0.393854
0.391162
0.388507
0.385888
0.383305
0.380757
0.378245
0.375767
0.373323
0.370913
0.368537
0.366195
0.363885
0.361609
0.359365
0.357153
0.354973
0.352826
0.350709
0.623748
0.617447
0.611261
0.605187
0.599223
0.593365
0.587611
0.581958
0.576404
0.570946
0.565582
0.560309
0.555126
0.55003
0.545019
0.54009
0.535243
0.530475
0.525784
0.521169
0.516627
0.512158
0.507759
0.503429
0.499166
0.494969
0.490837
0.486767
0.48276
0.478812
0.474924
0.471094
0.46732
0.463602
0.459939
0.456328
0.45277
0.449263
0.445806
0.442399
0.439039
0.435728
0.432462
0.429243
0.426068
0.422938
0.41985
0.416806
0.413803
0.410841
0.40792
0.405039
0.402198
0.399395
0.39663
0.393903
0.391213
0.38856
0.385944
0.383363
0.380817
0.378307
0.375831
0.37339
0.370983
0.36861
0.36627
0.363964
0.36169
0.359449
0.357241
0.355065
0.352921
0.350808
0.623748
0.617447
0.611261
0.605188
0.599224
0.593367
0.587614
0.581962
0.576409
0.570952
0.565589
0.560318
0.555136
0.550042
0.545032
0.540106
0.535261
0.530495
0.525806
0.521193
0.516654
0.512187
0.507791
0.503463
0.499203
0.495009
0.49088
0.486813
0.482809
0.478865
0.47498
0.471153
0.467382
0.463667
0.460007
0.4564
0.452845
0.449342
0.445889
0.442485
0.439129
0.435821
0.43256
0.429344
0.426173
0.423046
0.419963
0.416922
0.413923
0.410965
0.408048
0.405171
0.402334
0.399535
0.396774
0.394052
0.391366
0.388717
0.386105
0.383528
0.380988
0.378482
0.376011
0.373575
0.371172
0.368804
0.36647
0.364169
0.361901
0.359666
0.357463
0.355293
0.353155
0.35105
0.623753
0.617453
0.611269
0.605199
0.599238
0.593384
0.587635
0.581987
0.576439
0.570987
0.565629
0.560364
0.555188
0.550099
0.545095
0.540175
0.535336
0.530577
0.525895
0.521289
0.516756
0.512296
0.507907
0.503586
0.499333
0.495146
0.491024
0.486965
0.482967
0.47903
0.475152
0.471332
0.467569
0.463861
0.460207
0.456607
0.45306
0.449563
0.446117
0.442719
0.439371
0.436069
0.432814
0.429605
0.426441
0.423321
0.420244
0.417209
0.414217
0.411266
0.408355
0.405485
0.402653
0.399861
0.397107
0.39439
0.391711
0.389069
0.386463
0.383893
0.381359
0.378859
0.376395
0.373966
0.37157
0.369209
0.366882
0.364588
0.362328
0.3601
0.357906
0.355744
0.353614
0.351516
0.623762
0.617465
0.611285
0.605219
0.599264
0.593417
0.587676
0.582036
0.576497
0.571054
0.565706
0.560451
0.555285
0.550207
0.545215
0.540306
0.535479
0.530731
0.526061
0.521466
0.516946
0.512497
0.50812
0.503811
0.49957
0.495395
0.491284
0.487236
0.48325
0.479325
0.475458
0.471649
0.467897
0.4642
0.460558
0.456968
0.453431
0.449945
0.446509
0.443122
0.439783
0.436491
0.433246
0.430047
0.426892
0.423781
0.420713
0.417687
0.414704
0.411761
0.408859
0.405997
0.403174
0.40039
0.397644
0.394935
0.392264
0.38963
0.387031
0.384469
0.381943
0.379451
0.376995
0.374573
0.372185
0.369832
0.367513
0.365227
0.362974
0.360755
0.358569
0.356415
0.354294
0.352206
0.623769
0.617474
0.611298
0.605236
0.599286
0.593445
0.58771
0.582079
0.576547
0.571113
0.565775
0.560529
0.555374
0.550306
0.545325
0.540428
0.535612
0.530876
0.526217
0.521635
0.517127
0.512691
0.508326
0.50403
0.499802
0.49564
0.491542
0.487507
0.483533
0.479621
0.475767
0.47197
0.468231
0.464547
0.460916
0.457339
0.453814
0.45034
0.446916
0.443541
0.440214
0.436934
0.4337
0.430511
0.427368
0.424268
0.421211
0.418196
0.415223
0.412291
0.409399
0.406547
0.403733
0.400959
0.398222
0.395524
0.392862
0.390236
0.387647
0.385094
0.382576
0.380094
0.377646
0.375233
0.372854
0.370509
0.368199
0.365921
0.363678
0.361467
0.35929
0.357145
0.355033
0.352954
0.623773
0.61748
0.611305
0.605247
0.5993
0.593463
0.587733
0.582106
0.57658
0.571153
0.56582
0.560582
0.555433
0.550374
0.5454
0.540511
0.535704
0.530977
0.526327
0.521754
0.517256
0.51283
0.508475
0.504189
0.49997
0.495818
0.49173
0.487706
0.483743
0.479841
0.475997
0.472212
0.468483
0.464809
0.46119
0.457623
0.454109
0.450645
0.447232
0.443867
0.44055
0.437281
0.434057
0.430879
0.427745
0.424655
0.421608
0.418604
0.41564
0.412718
0.409836
0.406993
0.404189
0.401424
0.398697
0.396007
0.393354
0.390738
0.388158
0.385613
0.383104
0.38063
0.378191
0.375786
0.373416
0.37108
0.368778
0.366509
0.364274
0.362072
0.359904
0.357768
0.355665
0.353594
0.623776
0.617483
0.61131
0.605253
0.599309
0.593474
0.587747
0.582123
0.5766
0.571176
0.565848
0.560614
0.55547
0.550415
0.545447
0.540563
0.535761
0.53104
0.526397
0.52183
0.517337
0.512918
0.508569
0.50429
0.500078
0.495933
0.491853
0.487835
0.48388
0.479985
0.476149
0.472371
0.46865
0.464984
0.461372
0.457813
0.454306
0.450851
0.447445
0.444088
0.440779
0.437517
0.434302
0.431131
0.428005
0.424923
0.421884
0.418887
0.415931
0.413016
0.410141
0.407306
0.40451
0.401752
0.399032
0.39635
0.393704
0.391095
0.388522
0.385985
0.383483
0.381017
0.378585
0.376187
0.373824
0.371496
0.369201
0.36694
0.364712
0.362518
0.360357
0.35823
0.356135
0.354072
0.623777
0.617485
0.611313
0.605257
0.599314
0.593481
0.587755
0.582133
0.576612
0.571191
0.565865
0.560633
0.555492
0.550441
0.545475
0.540595
0.535796
0.531078
0.526439
0.521876
0.517387
0.512972
0.508627
0.504352
0.500145
0.496005
0.491929
0.487916
0.483965
0.480075
0.476244
0.472471
0.468754
0.465093
0.461487
0.457933
0.454432
0.450981
0.44758
0.444229
0.440925
0.437669
0.434458
0.431293
0.428173
0.425096
0.422062
0.41907
0.416119
0.41321
0.410341
0.407511
0.40472
0.401967
0.399253
0.396575
0.393935
0.391332
0.388764
0.386232
0.383736
0.381274
0.378848
0.376456
0.374099
0.371776
0.369487
0.367232
0.365011
0.362823
0.360669
0.358548
0.35646
0.354405
0.623778
0.617487
0.611315
0.605259
0.599317
0.593485
0.58776
0.582139
0.57662
0.5712
0.565876
0.560645
0.555506
0.550456
0.545493
0.540614
0.535818
0.531102
0.526465
0.521904
0.517418
0.513005
0.508664
0.504391
0.500187
0.496049
0.491976
0.487966
0.484018
0.480131
0.476303
0.472533
0.46882
0.465162
0.461558
0.458008
0.45451
0.451062
0.447665
0.444317
0.441017
0.437763
0.434556
0.431395
0.428277
0.425204
0.422173
0.419185
0.416238
0.413332
0.410466
0.40764
0.404852
0.402103
0.399392
0.396718
0.394082
0.391482
0.388918
0.38639
0.383897
0.38144
0.379017
0.37663
0.374277
0.371958
0.369674
0.367424
0.365208
0.363025
0.360877
0.358762
0.35668
0.354632
0.623779
0.617487
0.611316
0.605261
0.599319
0.593487
0.587763
0.582143
0.576625
0.571205
0.565882
0.560653
0.555515
0.550466
0.545504
0.540627
0.535832
0.531118
0.526482
0.521923
0.517438
0.513027
0.508687
0.504416
0.500213
0.496077
0.492006
0.487998
0.484052
0.480166
0.47634
0.472572
0.468861
0.465205
0.461603
0.458055
0.454559
0.451113
0.447718
0.444372
0.441074
0.437823
0.434618
0.431458
0.428343
0.425271
0.422243
0.419257
0.416312
0.413408
0.410544
0.40772
0.404934
0.402188
0.399479
0.396807
0.394173
0.391575
0.389014
0.386488
0.383998
0.381544
0.379124
0.37674
0.37439
0.372075
0.369794
0.367548
0.365336
0.363158
0.361015
0.358905
0.356829
0.354787
0.623779
0.617488
0.611316
0.605262
0.59932
0.593489
0.587765
0.582146
0.576628
0.571209
0.565887
0.560658
0.555521
0.550473
0.545512
0.540635
0.535841
0.531128
0.526493
0.521934
0.517451
0.513041
0.508701
0.504432
0.50023
0.496095
0.492025
0.488018
0.484073
0.480189
0.476364
0.472597
0.468887
0.465232
0.461632
0.458085
0.45459
0.451146
0.447752
0.444407
0.44111
0.43786
0.434656
0.431497
0.428384
0.425313
0.422286
0.419301
0.416357
0.413455
0.410592
0.407769
0.404985
0.40224
0.399532
0.396862
0.394229
0.391633
0.389073
0.38655
0.384061
0.381609
0.379191
0.376809
0.374462
0.37215
0.369872
0.36763
0.365421
0.363248
0.361109
0.359004
0.356934
0.354897
0.62378
0.617488
0.611317
0.605262
0.599321
0.59349
0.587767
0.582147
0.57663
0.571212
0.56589
0.560661
0.555525
0.550477
0.545517
0.540641
0.535847
0.531134
0.5265
0.521942
0.51746
0.51305
0.508711
0.504442
0.500241
0.496107
0.492037
0.488031
0.484087
0.480204
0.47638
0.472613
0.468904
0.46525
0.46165
0.458104
0.454609
0.451166
0.447773
0.444428
0.441132
0.437883
0.43468
0.431522
0.428409
0.425339
0.422313
0.419328
0.416385
0.413483
0.410621
0.407799
0.405016
0.402271
0.399565
0.396895
0.394263
0.391668
0.38911
0.386587
0.3841
0.381649
0.379233
0.376853
0.374508
0.372198
0.369924
0.367684
0.36548
0.36331
0.361175
0.359076
0.357011
0.354981
0.62378
0.617489
0.611317
0.605263
0.599322
0.593491
0.587768
0.582149
0.576632
0.571213
0.565892
0.560664
0.555527
0.55048
0.54552
0.540644
0.535851
0.531139
0.526505
0.521948
0.517465
0.513056
0.508718
0.504449
0.500249
0.496115
0.492046
0.48804
0.484096
0.480213
0.47639
0.472624
0.468915
0.465261
0.461662
0.458116
0.454622
0.451179
0.447786
0.444442
0.441146
0.437897
0.434694
0.431537
0.428424
0.425355
0.422328
0.419344
0.416402
0.4135
0.410638
0.407817
0.405034
0.402289
0.399583
0.396914
0.394283
0.391689
0.389131
0.386609
0.384123
0.381673
0.379259
0.376881
0.374538
0.37223
0.369958
0.367722
0.365521
0.363355
0.361225
0.359131
0.357072
0.355048
0.62378
0.617489
0.611318
0.605263
0.599322
0.593492
0.587768
0.58215
0.576633
0.571215
0.565893
0.560666
0.555529
0.550482
0.545522
0.540647
0.535854
0.531142
0.526508
0.521951
0.517469
0.51306
0.508722
0.504454
0.500254
0.49612
0.492051
0.488046
0.484102
0.48022
0.476396
0.47263
0.468922
0.465268
0.461669
0.458123
0.454629
0.451187
0.447794
0.44445
0.441154
0.437905
0.434703
0.431545
0.428433
0.425363
0.422337
0.419353
0.416411
0.413509
0.410647
0.407826
0.405043
0.402299
0.399593
0.396924
0.394293
0.391699
0.389142
0.386621
0.384136
0.381687
0.379275
0.376898
0.374557
0.372251
0.369982
0.367749
0.365552
0.36339
0.361265
0.359176
0.357124
0.355107
0.62378
0.617489
0.611318
0.605263
0.599322
0.593492
0.587769
0.58215
0.576633
0.571216
0.565894
0.560667
0.555531
0.550484
0.545524
0.540649
0.535856
0.531144
0.526511
0.521954
0.517472
0.513063
0.508725
0.504457
0.500257
0.496123
0.492055
0.488049
0.484106
0.480223
0.4764
0.472634
0.468926
0.465272
0.461673
0.458128
0.454634
0.451191
0.447798
0.444454
0.441158
0.43791
0.434707
0.43155
0.428437
0.425367
0.422341
0.419357
0.416414
0.413512
0.410651
0.407829
0.405046
0.402302
0.399596
0.396928
0.394297
0.391703
0.389147
0.386626
0.384142
0.381694
0.379283
0.376908
0.374568
0.372266
0.369999
0.367769
0.365576
0.363419
0.3613
0.359217
0.357171
0.355162
0.62378
0.617489
0.611318
0.605264
0.599323
0.593492
0.587769
0.582151
0.576634
0.571216
0.565895
0.560668
0.555532
0.550485
0.545525
0.54065
0.535857
0.531145
0.526512
0.521955
0.517474
0.513065
0.508727
0.504459
0.500259
0.496126
0.492057
0.488052
0.484108
0.480226
0.476402
0.472637
0.468928
0.465275
0.461676
0.45813
0.454636
0.451193
0.4478
0.444456
0.44116
0.437911
0.434708
0.431551
0.428438
0.425368
0.422342
0.419357
0.416414
0.413512
0.410651
0.407829
0.405046
0.402301
0.399595
0.396927
0.394297
0.391703
0.389147
0.386627
0.384144
0.381697
0.379287
0.376913
0.374576
0.372276
0.370012
0.367786
0.365597
0.363445
0.361331
0.359255
0.357217
0.355216
0.62378
0.617489
0.611318
0.605264
0.599323
0.593493
0.58777
0.582151
0.576634
0.571217
0.565895
0.560668
0.555532
0.550486
0.545526
0.540651
0.535858
0.531146
0.526513
0.521957
0.517475
0.513066
0.508728
0.50446
0.50026
0.496127
0.492058
0.488053
0.48411
0.480227
0.476403
0.472638
0.468929
0.465275
0.461676
0.45813
0.454636
0.451193
0.4478
0.444456
0.44116
0.437911
0.434707
0.43155
0.428436
0.425367
0.42234
0.419355
0.416412
0.41351
0.410648
0.407825
0.405042
0.402298
0.399592
0.396924
0.394293
0.3917
0.389144
0.386624
0.384142
0.381696
0.379288
0.376916
0.374581
0.372283
0.370023
0.3678
0.365616
0.36347
0.361362
0.359293
0.357263
0.355272
0.62378
0.617489
0.611318
0.605264
0.599323
0.593493
0.58777
0.582151
0.576635
0.571217
0.565896
0.560669
0.555533
0.550486
0.545526
0.540651
0.535859
0.531147
0.526514
0.521957
0.517475
0.513067
0.508729
0.504461
0.500261
0.496127
0.492059
0.488053
0.48411
0.480227
0.476404
0.472638
0.468929
0.465275
0.461676
0.45813
0.454636
0.451192
0.447799
0.444455
0.441158
0.437909
0.434705
0.431547
0.428433
0.425363
0.422336
0.419351
0.416408
0.413505
0.410643
0.40782
0.405037
0.402292
0.399586
0.396918
0.394287
0.391694
0.389139
0.38662
0.384138
0.381694
0.379286
0.376916
0.374584
0.372289
0.370032
0.367814
0.365635
0.363494
0.361393
0.359332
0.357311
0.355331
0.62378
0.617489
0.611318
0.605264
0.599323
0.593493
0.58777
0.582152
0.576635
0.571217
0.565896
0.560669
0.555533
0.550487
0.545527
0.540652
0.535859
0.531147
0.526514
0.521958
0.517476
0.513067
0.508729
0.504461
0.500261
0.496128
0.492059
0.488053
0.48411
0.480227
0.476403
0.472637
0.468928
0.465274
0.461675
0.458129
0.454634
0.451191
0.447797
0.444452
0.441156
0.437906
0.434702
0.431544
0.42843
0.425359
0.422332
0.419346
0.416402
0.413499
0.410637
0.407814
0.40503
0.402285
0.399579
0.396911
0.39428
0.391688
0.389132
0.386614
0.384133
0.38169
0.379284
0.376916
0.374586
0.372294
0.370041
0.367828
0.365654
0.36352
0.361426
0.359374
0.357363
0.355393
0.62378
0.617489
0.611318
0.605264
0.599323
0.593493
0.58777
0.582152
0.576635
0.571218
0.565896
0.560669
0.555533
0.550487
0.545527
0.540652
0.53586
0.531148
0.526514
0.521958
0.517476
0.513067
0.508729
0.504461
0.500261
0.496127
0.492058
0.488053
0.484109
0.480226
0.476402
0.472636
0.468927
0.465273
0.461673
0.458127
0.454632
0.451188
0.447794
0.444449
0.441152
0.437902
0.434698
0.431539
0.428425
0.425354
0.422326
0.41934
0.416396
0.413493
0.41063
0.407807
0.405023
0.402278
0.399571
0.396903
0.394272
0.39168
0.389125
0.386607
0.384128
0.381685
0.379281
0.376915
0.374588
0.3723
0.370051
0.367842
0.365674
0.363547
0.361461
0.359418
0.357418
0.355461
0.62378
0.617489
0.611318
0.605264
0.599323
0.593493
0.58777
0.582152
0.576635
0.571218
0.565896
0.560669
0.555533
0.550487
0.545527
0.540652
0.53586
0.531148
0.526514
0.521958
0.517476
0.513067
0.508729
0.504461
0.500261
0.496127
0.492058
0.488052
0.484108
0.480225
0.476401
0.472635
0.468925
0.465271
0.461671
0.458125
0.45463
0.451186
0.447791
0.444446
0.441149
0.437898
0.434694
0.431534
0.42842
0.425348
0.42232
0.419334
0.416389
0.413486
0.410622
0.407799
0.405014
0.402269
0.399562
0.396894
0.394264
0.391671
0.389117
0.3866
0.384121
0.381681
0.379278
0.376914
0.37459
0.372305
0.370061
0.367857
0.365695
0.363576
0.361499
0.359466
0.357477
0.355533
0.62378
0.617489
0.611318
0.605264
0.599323
0.593493
0.58777
0.582152
0.576635
0.571218
0.565897
0.560669
0.555534
0.550487
0.545527
0.540652
0.53586
0.531148
0.526514
0.521958
0.517476
0.513067
0.508729
0.50446
0.50026
0.496126
0.492057
0.488051
0.484107
0.480224
0.4764
0.472633
0.468924
0.465269
0.461669
0.458122
0.454627
0.451183
0.447788
0.444442
0.441145
0.437894
0.434689
0.431529
0.428414
0.425343
0.422314
0.419327
0.416382
0.413478
0.410614
0.40779
0.405006
0.40226
0.399554
0.396885
0.394255
0.391663
0.389109
0.386593
0.384115
0.381676
0.379275
0.376914
0.374592
0.372311
0.370072
0.367874
0.365718
0.363607
0.361539
0.359517
0.357541
0.355612
0.62378
0.617489
0.611318
0.605264
0.599323
0.593493
0.58777
0.582152
0.576635
0.571218
0.565897
0.560669
0.555534
0.550487
0.545527
0.540652
0.53586
0.531148
0.526514
0.521957
0.517475
0.513066
0.508728
0.50446
0.50026
0.496125
0.492056
0.48805
0.484106
0.480223
0.476398
0.472632
0.468922
0.465267
0.461667
0.458119
0.454624
0.451179
0.447785
0.444439
0.44114
0.437889
0.434684
0.431524
0.428408
0.425336
0.422307
0.41932
0.416375
0.41347
0.410606
0.407782
0.404997
0.402251
0.399544
0.396876
0.394246
0.391654
0.389101
0.386585
0.384109
0.381671
0.379272
0.376914
0.374595
0.372318
0.370083
0.367892
0.365743
0.36364
0.361583
0.359573
0.35761
0.355696
0.62378
0.617489
0.611318
0.605264
0.599323
0.593493
0.58777
0.582152
0.576635
0.571218
0.565897
0.560669
0.555534
0.550487
0.545527
0.540652
0.535859
0.531147
0.526514
0.521957
0.517475
0.513066
0.508728
0.504459
0.500259
0.496125
0.492055
0.488049
0.484105
0.480221
0.476397
0.47263
0.46892
0.465265
0.461664
0.458117
0.454621
0.451176
0.447781
0.444435
0.441136
0.437885
0.434679
0.431519
0.428403
0.42533
0.422301
0.419313
0.416367
0.413463
0.410598
0.407774
0.404988
0.402243
0.399535
0.396867
0.394237
0.391645
0.389092
0.386578
0.384103
0.381666
0.37927
0.376914
0.374599
0.372326
0.370097
0.367911
0.365771
0.363676
0.36163
0.359632
0.357683
0.355786
0.62378
0.617489
0.611318
0.605264
0.599323
0.593493
0.58777
0.582152
0.576635
0.571218
0.565897
0.560669
0.555534
0.550487
0.545527
0.540652
0.535859
0.531147
0.526514
0.521957
0.517475
0.513065
0.508727
0.504459
0.500258
0.496124
0.492054
0.488048
0.484104
0.48022
0.476395
0.472628
0.468918
0.465263
0.461662
0.458114
0.454618
0.451173
0.447777
0.444431
0.441132
0.43788
0.434674
0.431513
0.428397
0.425324
0.422294
0.419306
0.41636
0.413455
0.41059
0.407765
0.40498
0.402234
0.399527
0.396858
0.394228
0.391637
0.389085
0.386571
0.384097
0.381662
0.379268
0.376915
0.374603
0.372335
0.370111
0.367932
0.365799
0.363715
0.361679
0.359695
0.357762
0.355881
0.62378
0.617489
0.611318
0.605264
0.599324
0.593493
0.58777
0.582152
0.576635
0.571218
0.565897
0.560669
0.555534
0.550487
0.545527
0.540652
0.535859
0.531147
0.526513
0.521956
0.517474
0.513065
0.508727
0.504458
0.500257
0.496123
0.492053
0.488047
0.484102
0.480218
0.476393
0.472626
0.468916
0.46526
0.461659
0.458111
0.454615
0.451169
0.447774
0.444427
0.441128
0.437875
0.434669
0.431508
0.428391
0.425318
0.422288
0.4193
0.416353
0.413447
0.410582
0.407757
0.404971
0.402225
0.399518
0.396849
0.39422
0.391629
0.389077
0.386564
0.384091
0.381659
0.379267
0.376916
0.374609
0.372345
0.370126
0.367954
0.36583
0.363755
0.361732
0.359761
0.357844
0.355982
0.62378
0.617489
0.611318
0.605264
0.599324
0.593493
0.58777
0.582152
0.576635
0.571218
0.565897
0.560669
0.555533
0.550487
0.545527
0.540652
0.535859
0.531147
0.526513
0.521956
0.517474
0.513064
0.508726
0.504457
0.500256
0.496122
0.492052
0.488046
0.484101
0.480217
0.476392
0.472624
0.468914
0.465258
0.461657
0.458108
0.454612
0.451166
0.44777
0.444423
0.441124
0.437871
0.434664
0.431503
0.428386
0.425312
0.422281
0.419293
0.416346
0.41344
0.410575
0.407749
0.404963
0.402217
0.399509
0.396841
0.394212
0.391621
0.38907
0.386558
0.384086
0.381655
0.379266
0.376918
0.374614
0.372355
0.370142
0.367977
0.365862
0.363798
0.361787
0.35983
0.35793
0.356088
0.62378
0.617489
0.611318
0.605264
0.599324
0.593493
0.58777
0.582152
0.576635
0.571218
0.565897
0.560669
0.555533
0.550487
0.545527
0.540651
0.535859
0.531146
0.526513
0.521955
0.517473
0.513064
0.508725
0.504456
0.500256
0.496121
0.492051
0.488044
0.4841
0.480215
0.47639
0.472622
0.468911
0.465256
0.461654
0.458106
0.454609
0.451163
0.447767
0.444419
0.441119
0.437867
0.43466
0.431498
0.42838
0.425306
0.422275
0.419287
0.416339
0.413433
0.410567
0.407741
0.404955
0.402209
0.399501
0.396833
0.394204
0.391614
0.389063
0.386552
0.384082
0.381653
0.379265
0.376921
0.37462
0.372366
0.370159
0.368002
0.365895
0.363842
0.361843
0.359902
0.35802
0.356198
0.62378
0.617489
0.611318
0.605264
0.599323
0.593493
0.58777
0.582152
0.576635
0.571218
0.565896
0.560669
0.555533
0.550486
0.545526
0.540651
0.535858
0.531146
0.526512
0.521955
0.517473
0.513063
0.508725
0.504456
0.500255
0.49612
0.49205
0.488043
0.484098
0.480214
0.476388
0.472621
0.46891
0.465254
0.461652
0.458103
0.454606
0.45116
0.447763
0.444416
0.441116
0.437862
0.434655
0.431493
0.428375
0.425301
0.42227
0.419281
0.416333
0.413426
0.41056
0.407734
0.404948
0.402201
0.399494
0.396826
0.394197
0.391607
0.389057
0.386547
0.384078
0.38165
0.379265
0.376924
0.374627
0.372378
0.370177
0.368026
0.365929
0.363886
0.361901
0.359975
0.35811
0.356309
0.62378
0.617489
0.611318
0.605264
0.599323
0.593493
0.58777
0.582152
0.576635
0.571218
0.565896
0.560669
0.555533
0.550486
0.545526
0.540651
0.535858
0.531146
0.526512
0.521955
0.517472
0.513062
0.508724
0.504455
0.500254
0.496119
0.492049
0.488042
0.484097
0.480212
0.476387
0.472619
0.468908
0.465252
0.46165
0.458101
0.454604
0.451157
0.44776
0.444412
0.441112
0.437859
0.434651
0.431489
0.428371
0.425296
0.422265
0.419275
0.416327
0.41342
0.410554
0.407728
0.404942
0.402195
0.399487
0.396819
0.39419
0.391601
0.389052
0.386543
0.384075
0.381649
0.379266
0.376927
0.374634
0.372389
0.370194
0.368051
0.365962
0.36393
0.361958
0.360047
0.358201
0.356421
0.62378
0.617489
0.611318
0.605264
0.599323
0.593493
0.58777
0.582152
0.576635
0.571218
0.565896
0.560669
0.555533
0.550486
0.545526
0.540651
0.535858
0.531145
0.526512
0.521954
0.517472
0.513062
0.508723
0.504454
0.500253
0.496118
0.492048
0.488041
0.484096
0.480211
0.476385
0.472618
0.468906
0.46525
0.461648
0.458099
0.454601
0.451155
0.447758
0.444409
0.441109
0.437855
0.434648
0.431485
0.428367
0.425292
0.42226
0.41927
0.416322
0.413415
0.410549
0.407722
0.404936
0.402189
0.399481
0.396813
0.394185
0.391596
0.389047
0.386539
0.384072
0.381648
0.379267
0.376931
0.374642
0.372401
0.370211
0.368075
0.365995
0.363973
0.362013
0.360118
0.358289
0.35653
0.62378
0.617489
0.611318
0.605264
0.599323
0.593493
0.58777
0.582152
0.576635
0.571218
0.565896
0.560669
0.555533
0.550486
0.545526
0.54065
0.535858
0.531145
0.526511
0.521954
0.517471
0.513061
0.508723
0.504454
0.500253
0.496117
0.492047
0.48804
0.484095
0.48021
0.476384
0.472616
0.468905
0.465248
0.461646
0.458097
0.454599
0.451152
0.447755
0.444407
0.441106
0.437852
0.434645
0.431482
0.428363
0.425288
0.422256
0.419266
0.416318
0.413411
0.410544
0.407717
0.404931
0.402184
0.399476
0.396808
0.39418
0.391592
0.389043
0.386536
0.38407
0.381647
0.379268
0.376935
0.374649
0.372412
0.370228
0.368098
0.366025
0.364014
0.362066
0.360185
0.358373
0.356634
0.62378
0.617489
0.611318
0.605264
0.599323
0.593493
0.58777
0.582152
0.576635
0.571217
0.565896
0.560669
0.555533
0.550486
0.545526
0.54065
0.535857
0.531145
0.526511
0.521954
0.517471
0.513061
0.508722
0.504453
0.500252
0.496117
0.492047
0.488039
0.484094
0.480209
0.476383
0.472615
0.468904
0.465247
0.461645
0.458095
0.454598
0.451151
0.447753
0.444405
0.441104
0.43785
0.434642
0.431479
0.42836
0.425285
0.422253
0.419263
0.416314
0.413407
0.41054
0.407713
0.404927
0.40218
0.399472
0.396804
0.394176
0.391588
0.38904
0.386533
0.384069
0.381647
0.37927
0.376939
0.374655
0.372423
0.370243
0.368118
0.366053
0.36405
0.362113
0.360245
0.358449
0.356728
0.62378
0.617489
0.611318
0.605264
0.599323
0.593493
0.58777
0.582152
0.576635
0.571217
0.565896
0.560669
0.555533
0.550486
0.545526
0.54065
0.535857
0.531145
0.526511
0.521953
0.517471
0.513061
0.508722
0.504453
0.500252
0.496116
0.492046
0.488039
0.484093
0.480208
0.476383
0.472614
0.468903
0.465246
0.461644
0.458094
0.454596
0.451149
0.447752
0.444403
0.441102
0.437848
0.43464
0.431477
0.428358
0.425283
0.42225
0.41926
0.416311
0.413404
0.410537
0.40771
0.404923
0.402176
0.399469
0.396801
0.394173
0.391585
0.389038
0.386532
0.384068
0.381647
0.379271
0.376942
0.374661
0.372431
0.370255
0.368136
0.366077
0.364082
0.362154
0.360297
0.358515
0.356809
0.62378
0.617489
0.611318
0.605264
0.599323
0.593493
0.58777
0.582152
0.576635
0.571217
0.565896
0.560669
0.555533
0.550486
0.545526
0.54065
0.535857
0.531145
0.526511
0.521953
0.51747
0.513061
0.508722
0.504453
0.500251
0.496116
0.492046
0.488038
0.484093
0.480208
0.476382
0.472614
0.468902
0.465245
0.461643
0.458093
0.454595
0.451148
0.447751
0.444402
0.441101
0.437847
0.434638
0.431475
0.428356
0.425281
0.422248
0.419258
0.416309
0.413401
0.410534
0.407708
0.404921
0.402174
0.399466
0.396799
0.394171
0.391583
0.389036
0.38653
0.384067
0.381647
0.379273
0.376945
0.374666
0.372439
0.370266
0.36815
0.366096
0.364107
0.362186
0.360338
0.358567
0.356874
0.62378
0.617489
0.611318
0.605264
0.599323
0.593493
0.58777
0.582152
0.576635
0.571217
0.565896
0.560669
0.555533
0.550486
0.545526
0.54065
0.535857
0.531145
0.526511
0.521953
0.51747
0.51306
0.508722
0.504452
0.500251
0.496116
0.492045
0.488038
0.484093
0.480208
0.476382
0.472613
0.468901
0.465245
0.461642
0.458093
0.454595
0.451148
0.44775
0.444401
0.4411
0.437846
0.434637
0.431474
0.428355
0.42528
0.422247
0.419257
0.416308
0.4134
0.410533
0.407706
0.404919
0.402172
0.399465
0.396797
0.394169
0.391582
0.389035
0.38653
0.384067
0.381648
0.379274
0.376947
0.374669
0.372444
0.370273
0.36816
0.366109
0.364124
0.362209
0.360367
0.358602
0.356919
0.599323
0.593493
0.58777
0.582152
0.576635
0.571217
0.565896
0.560669
0.555533
0.550486
0.545525
0.54065
0.535857
0.531145
0.52651
0.521953
0.51747
0.51306
0.508722
0.504452
0.500251
0.496116
0.492045
0.488038
0.484093
0.480207
0.476381
0.472613
0.468901
0.465245
0.461642
0.458092
0.454594
0.451147
0.44775
0.444401
0.4411
0.437845
0.434637
0.431473
0.428354
0.425279
0.422246
0.419256
0.416307
0.413399
0.410532
0.407705
0.404918
0.402171
0.399464
0.396796
0.394169
0.391581
0.389034
0.386529
0.384067
0.381648
0.379274
0.376948
0.374671
0.372446
0.370276
0.368165
0.366116
0.364133
0.36222
0.360382
0.358621
0.356943
0.368164
0.366115
0.364132
0.36222
0.360381
0.368158
0.366107
0.364122
0.362206
0.360364
0.623748
0.617447
0.611261
0.605187
0.599223
0.593365
0.587611
0.581958
0.576404
0.570946
0.565582
0.560309
0.555125
0.550029
0.545017
0.540089
0.535241
0.530473
0.525782
0.521166
0.516624
0.512154
0.507754
0.503424
0.49916
0.494963
0.490829
0.486759
0.482751
0.478803
0.474913
0.471082
0.467308
0.463589
0.459924
0.456312
0.452753
0.449245
0.445787
0.442378
0.439017
0.435704
0.432438
0.429217
0.42604
0.422908
0.419819
0.416773
0.413768
0.410805
0.407882
0.404999
0.402155
0.39935
0.396583
0.393853
0.391161
0.388505
0.385885
0.383301
0.380752
0.378238
0.375758
0.373313
0.370901
0.368522
0.366177
0.363865
0.361585
0.359337
0.357121
0.354937
0.352785
0.350663
0.623748
0.617447
0.611261
0.605187
0.599223
0.593365
0.587611
0.581958
0.576404
0.570946
0.565581
0.560309
0.555125
0.550029
0.545017
0.540089
0.535241
0.530473
0.525781
0.521166
0.516624
0.512154
0.507754
0.503423
0.49916
0.494962
0.490829
0.486759
0.482751
0.478803
0.474913
0.471082
0.467308
0.463589
0.459924
0.456312
0.452753
0.449245
0.445787
0.442378
0.439018
0.435705
0.432438
0.429217
0.426041
0.422909
0.41982
0.416774
0.413769
0.410806
0.407883
0.405
0.402157
0.399352
0.396585
0.393855
0.391163
0.388508
0.385888
0.383304
0.380755
0.378242
0.375762
0.373317
0.370905
0.368527
0.366183
0.36387
0.361591
0.359344
0.357129
0.354945
0.352793
0.350672
0.623748
0.617447
0.611261
0.605187
0.599223
0.593365
0.587611
0.581958
0.576404
0.570946
0.565582
0.560309
0.555125
0.550029
0.545017
0.540089
0.535241
0.530473
0.525782
0.521166
0.516624
0.512154
0.507755
0.503424
0.499161
0.494964
0.490831
0.486761
0.482752
0.478804
0.474916
0.471085
0.46731
0.463591
0.459927
0.456316
0.452757
0.449249
0.445791
0.442383
0.439023
0.43571
0.432444
0.429223
0.426048
0.422916
0.419828
0.416782
0.413778
0.410815
0.407893
0.405011
0.402167
0.399363
0.396597
0.393868
0.391176
0.388522
0.385903
0.38332
0.380772
0.378259
0.37578
0.373336
0.370926
0.368549
0.366205
0.363894
0.361616
0.35937
0.357156
0.354974
0.352824
0.350705
0.623748
0.617447
0.611261
0.605187
0.599223
0.593365
0.587611
0.581958
0.576404
0.570946
0.565582
0.56031
0.555127
0.55003
0.545019
0.540091
0.535244
0.530476
0.525785
0.52117
0.516629
0.51216
0.507761
0.503431
0.499168
0.494972
0.490839
0.48677
0.482763
0.478816
0.474928
0.471098
0.467325
0.463607
0.459944
0.456334
0.452776
0.449269
0.445813
0.442406
0.439047
0.435736
0.432471
0.429252
0.426078
0.422948
0.419861
0.416817
0.413815
0.410853
0.407933
0.405052
0.402211
0.399408
0.396644
0.393917
0.391228
0.388575
0.385958
0.383377
0.380832
0.378321
0.375845
0.373403
0.370995
0.368621
0.36628
0.363972
0.361697
0.359454
0.357244
0.355065
0.352918
0.350802
0.623748
0.617447
0.611261
0.605188
0.599224
0.593367
0.587614
0.581962
0.576409
0.570953
0.56559
0.560319
0.555137
0.550042
0.545033
0.540107
0.535262
0.530496
0.525807
0.521194
0.516655
0.512189
0.507792
0.503465
0.499205
0.495012
0.490882
0.486816
0.482812
0.478868
0.474983
0.471157
0.467387
0.463672
0.460012
0.456406
0.452851