/*--------------------------------*- C++ -*----------------------------------*\
  =========                 |
  \\      /  F ield         | OpenFOAM: The Open Source CFD Toolbox
   \\    /   O peration     | Website:  https://openfoam.org
    \\  /    A nd           | Version:  13
     \\/     M anipulation  |
\*---------------------------------------------------------------------------*/
FoamFile
{
    format      ascii;
    class       volScalarField;
    location    "800";
    object      nut;
}
// * * * * * * * * * * * * * * * * * * * * * * * * * * * * * * * * * * * * * //

dimensions      [0 2 -1 0 0 0 0];

internalField   nonuniform List<scalar> 
169896
(
0.0209672
0.0209319
0.020897
0.0208624
0.0208282
0.0207943
0.0207607
0.0207275
0.0206946
0.0206619
0.0206296
0.0205976
0.0205659
0.0205345
0.0205033
0.0204724
0.0204418
0.0204115
0.0203815
0.0203517
0.0203222
0.0202929
0.0202639
0.0202351
0.0202066
0.0201783
0.0201502
0.0201224
0.0200948
0.0200675
0.0200403
0.0200134
0.0199867
0.0199602
0.019934
0.0199079
0.0198821
0.0198564
0.019831
0.0198058
0.0197807
0.0197559
0.0197313
0.0197068
0.0196826
0.0196585
0.0196347
0.019611
0.0195875
0.0195642
0.0195411
0.0195182
0.0194955
0.0194729
0.0194506
0.0194284
0.0194065
0.0193847
0.0193631
0.0193417
0.0193206
0.0192996
0.0192788
0.0192583
0.0192379
0.0192178
0.0191979
0.0191782
0.0191587
0.0191395
0.0191205
0.0191017
0.0190832
0.0190649
0.0209672
0.0209319
0.020897
0.0208624
0.0208282
0.0207943
0.0207607
0.0207275
0.0206946
0.0206619
0.0206296
0.0205976
0.0205659
0.0205344
0.0205033
0.0204724
0.0204418
0.0204115
0.0203815
0.0203517
0.0203222
0.0202929
0.0202639
0.0202351
0.0202066
0.0201783
0.0201502
0.0201224
0.0200948
0.0200675
0.0200404
0.0200134
0.0199868
0.0199603
0.019934
0.019908
0.0198821
0.0198565
0.0198311
0.0198059
0.0197808
0.019756
0.0197314
0.0197069
0.0196827
0.0196587
0.0196348
0.0196112
0.0195877
0.0195644
0.0195413
0.0195184
0.0194957
0.0194732
0.0194509
0.0194287
0.0194068
0.019385
0.0193635
0.0193421
0.019321
0.0193001
0.0192793
0.0192588
0.0192385
0.0192184
0.0191985
0.0191788
0.0191594
0.0191402
0.0191213
0.0191026
0.0190841
0.0190659
0.0209672
0.0209319
0.020897
0.0208624
0.0208282
0.0207943
0.0207607
0.0207275
0.0206946
0.0206619
0.0206296
0.0205976
0.0205659
0.0205345
0.0205033
0.0204725
0.0204419
0.0204116
0.0203815
0.0203518
0.0203222
0.020293
0.020264
0.0202352
0.0202067
0.0201784
0.0201504
0.0201226
0.0200951
0.0200677
0.0200406
0.0200137
0.0199871
0.0199606
0.0199344
0.0199084
0.0198826
0.019857
0.0198316
0.0198064
0.0197815
0.0197567
0.0197321
0.0197077
0.0196835
0.0196595
0.0196358
0.0196122
0.0195887
0.0195655
0.0195425
0.0195197
0.019497
0.0194746
0.0194524
0.0194303
0.0194084
0.0193868
0.0193653
0.0193441
0.019323
0.0193022
0.0192816
0.0192611
0.019241
0.019221
0.0192012
0.0191817
0.0191624
0.0191434
0.0191246
0.019106
0.0190877
0.0190697
0.0209672
0.0209319
0.020897
0.0208625
0.0208282
0.0207944
0.0207608
0.0207276
0.0206947
0.0206621
0.0206298
0.0205979
0.0205662
0.0205348
0.0205037
0.0204729
0.0204424
0.0204122
0.0203822
0.0203525
0.0203231
0.0202939
0.020265
0.0202363
0.0202079
0.0201798
0.0201519
0.0201242
0.0200968
0.0200695
0.0200426
0.0200158
0.0199893
0.019963
0.0199369
0.0199111
0.0198854
0.01986
0.0198348
0.0198098
0.019785
0.0197604
0.019736
0.0197118
0.0196878
0.019664
0.0196404
0.0196171
0.0195939
0.0195709
0.0195481
0.0195255
0.0195031
0.0194809
0.0194589
0.0194371
0.0194155
0.0193941
0.0193729
0.019352
0.0193312
0.0193107
0.0192904
0.0192703
0.0192504
0.0192308
0.0192114
0.0191923
0.0191734
0.0191547
0.0191363
0.0191182
0.0191003
0.0190828
0.0209673
0.0209322
0.0208975
0.0208631
0.0208291
0.0207955
0.0207622
0.0207293
0.0206967
0.0206644
0.0206325
0.0206008
0.0205695
0.0205385
0.0205078
0.0204774
0.0204473
0.0204174
0.0203879
0.0203586
0.0203296
0.0203009
0.0202724
0.0202442
0.0202162
0.0201885
0.0201611
0.0201339
0.0201069
0.0200802
0.0200537
0.0200274
0.0200014
0.0199756
0.01995
0.0199247
0.0198995
0.0198746
0.0198499
0.0198254
0.0198011
0.019777
0.0197531
0.0197295
0.019706
0.0196828
0.0196597
0.0196369
0.0196142
0.0195918
0.0195695
0.0195475
0.0195257
0.0195041
0.0194827
0.0194615
0.0194405
0.0194197
0.0193992
0.0193788
0.0193587
0.0193389
0.0193192
0.0192998
0.0192807
0.0192618
0.0192431
0.0192247
0.0192066
0.0191888
0.0191712
0.0191539
0.0191369
0.0191202
0.0209695
0.0209366
0.0209041
0.0208719
0.0208399
0.0208083
0.0207769
0.0207459
0.0207151
0.0206845
0.0206543
0.0206243
0.0205946
0.0205651
0.0205359
0.0205069
0.0204782
0.0204498
0.0204216
0.0203936
0.0203659
0.0203384
0.0203111
0.0202841
0.0202573
0.0202307
0.0202044
0.0201783
0.0201523
0.0201267
0.0201012
0.0200759
0.0200509
0.020026
0.0200014
0.0199769
0.0199527
0.0199287
0.0199049
0.0198812
0.0198578
0.0198346
0.0198116
0.0197888
0.0197661
0.0197437
0.0197215
0.0196995
0.0196776
0.019656
0.0196346
0.0196134
0.0195924
0.0195716
0.0195511
0.0195307
0.0195106
0.0194907
0.019471
0.0194515
0.0194323
0.0194134
0.0193947
0.0193762
0.019358
0.0193401
0.0193224
0.0193051
0.019288
0.0192712
0.0192547
0.0192386
0.0192227
0.0192072
0.0209741
0.0209461
0.0209184
0.0208907
0.0208633
0.020836
0.0208088
0.0207818
0.020755
0.0207283
0.0207018
0.0206754
0.0206492
0.0206231
0.0205972
0.0205714
0.0205458
0.0205204
0.0204951
0.0204699
0.0204449
0.0204201
0.0203954
0.0203709
0.0203465
0.0203222
0.0202981
0.0202742
0.0202504
0.0202268
0.0202033
0.0201799
0.0201567
0.0201337
0.0201108
0.0200881
0.0200655
0.0200431
0.0200208
0.0199987
0.0199767
0.0199549
0.0199332
0.0199117
0.0198904
0.0198692
0.0198482
0.0198274
0.0198067
0.0197862
0.0197659
0.0197458
0.0197258
0.0197061
0.0196865
0.0196672
0.019648
0.0196291
0.0196104
0.0195919
0.0195736
0.0195556
0.0195378
0.0195203
0.019503
0.019486
0.0194693
0.0194529
0.0194368
0.019421
0.0194055
0.0193903
0.0193755
0.0193609
0.0209779
0.020954
0.0209303
0.0209067
0.0208832
0.0208598
0.0208365
0.0208133
0.0207902
0.0207673
0.0207444
0.0207217
0.020699
0.0206765
0.0206541
0.0206317
0.0206095
0.0205874
0.0205654
0.0205435
0.0205216
0.0204999
0.0204783
0.0204568
0.0204354
0.0204141
0.0203929
0.0203718
0.0203508
0.0203299
0.0203091
0.0202884
0.0202678
0.0202473
0.0202269
0.0202066
0.0201864
0.0201664
0.0201464
0.0201265
0.0201068
0.0200872
0.0200677
0.0200483
0.020029
0.0200098
0.0199908
0.0199719
0.0199531
0.0199345
0.019916
0.0198977
0.0198795
0.0198614
0.0198435
0.0198258
0.0198083
0.0197909
0.0197737
0.0197567
0.01974
0.0197234
0.019707
0.0196909
0.0196751
0.0196594
0.0196441
0.019629
0.0196142
0.0195996
0.0195854
0.0195715
0.0195579
0.0195446
0.0209802
0.0209589
0.0209377
0.0209166
0.0208957
0.0208749
0.0208542
0.0208336
0.0208131
0.0207927
0.0207725
0.0207523
0.0207322
0.0207123
0.0206924
0.0206726
0.020653
0.0206334
0.0206139
0.0205945
0.0205752
0.020556
0.0205369
0.0205179
0.0204989
0.0204801
0.0204613
0.0204426
0.020424
0.0204055
0.0203871
0.0203688
0.0203505
0.0203323
0.0203142
0.0202962
0.0202783
0.0202605
0.0202428
0.0202251
0.0202076
0.0201901
0.0201727
0.0201555
0.0201383
0.0201212
0.0201042
0.0200874
0.0200706
0.0200539
0.0200374
0.020021
0.0200047
0.0199885
0.0199725
0.0199566
0.0199409
0.0199253
0.0199099
0.0198946
0.0198795
0.0198647
0.01985
0.0198355
0.0198212
0.0198072
0.0197934
0.0197799
0.0197666
0.0197536
0.0197408
0.0197284
0.0197163
0.0197044
0.0209815
0.0209617
0.0209421
0.0209226
0.0209032
0.0208839
0.0208648
0.0208458
0.0208269
0.0208081
0.0207895
0.020771
0.0207525
0.0207342
0.020716
0.0206979
0.0206799
0.020662
0.0206442
0.0206266
0.020609
0.0205915
0.020574
0.0205567
0.0205395
0.0205224
0.0205053
0.0204884
0.0204715
0.0204547
0.020438
0.0204214
0.0204049
0.0203884
0.020372
0.0203558
0.0203396
0.0203234
0.0203074
0.0202915
0.0202756
0.0202598
0.0202441
0.0202285
0.020213
0.0201976
0.0201823
0.0201671
0.0201519
0.0201369
0.020122
0.0201072
0.0200925
0.0200779
0.0200634
0.0200491
0.0200349
0.0200209
0.0200069
0.0199932
0.0199796
0.0199662
0.019953
0.0199399
0.0199271
0.0199145
0.0199021
0.01989
0.0198781
0.0198664
0.0198551
0.019844
0.0198332
0.0198227
0.0209823
0.0209635
0.0209447
0.0209261
0.0209077
0.0208894
0.0208712
0.0208532
0.0208353
0.0208175
0.0207999
0.0207824
0.0207649
0.0207477
0.0207305
0.0207134
0.0206965
0.0206797
0.020663
0.0206463
0.0206298
0.0206134
0.0205971
0.0205809
0.0205648
0.0205488
0.0205329
0.020517
0.0205013
0.0204857
0.0204701
0.0204547
0.0204393
0.020424
0.0204088
0.0203937
0.0203787
0.0203637
0.0203489
0.0203341
0.0203194
0.0203048
0.0202903
0.0202759
0.0202616
0.0202474
0.0202332
0.0202192
0.0202052
0.0201914
0.0201776
0.020164
0.0201505
0.0201371
0.0201238
0.0201106
0.0200975
0.0200846
0.0200719
0.0200593
0.0200468
0.0200345
0.0200224
0.0200105
0.0199988
0.0199873
0.019976
0.019965
0.0199541
0.0199436
0.0199333
0.0199233
0.0199136
0.0199042
0.0209829
0.0209645
0.0209464
0.0209284
0.0209105
0.0208928
0.0208752
0.0208578
0.0208405
0.0208234
0.0208064
0.0207895
0.0207727
0.0207561
0.0207396
0.0207232
0.0207069
0.0206908
0.0206747
0.0206588
0.020643
0.0206273
0.0206117
0.0205962
0.0205808
0.0205655
0.0205503
0.0205352
0.0205202
0.0205053
0.0204905
0.0204758
0.0204612
0.0204466
0.0204322
0.0204179
0.0204036
0.0203895
0.0203754
0.0203614
0.0203475
0.0203337
0.02032
0.0203064
0.0202929
0.0202794
0.0202661
0.0202529
0.0202397
0.0202267
0.0202137
0.0202009
0.0201882
0.0201756
0.0201631
0.0201507
0.0201385
0.0201264
0.0201145
0.0201027
0.020091
0.0200796
0.0200683
0.0200572
0.0200463
0.0200356
0.0200251
0.0200148
0.0200049
0.0199951
0.0199857
0.0199765
0.0199676
0.019959
0.0209832
0.0209652
0.0209475
0.0209298
0.0209124
0.020895
0.0208778
0.0208608
0.0208439
0.0208272
0.0208106
0.0207941
0.0207777
0.0207615
0.0207454
0.0207295
0.0207136
0.0206979
0.0206823
0.0206668
0.0206515
0.0206362
0.0206211
0.020606
0.0205911
0.0205763
0.0205616
0.0205469
0.0205324
0.020518
0.0205037
0.0204895
0.0204754
0.0204614
0.0204474
0.0204336
0.0204199
0.0204062
0.0203927
0.0203792
0.0203658
0.0203526
0.0203394
0.0203263
0.0203133
0.0203004
0.0202876
0.0202749
0.0202623
0.0202498
0.0202374
0.0202251
0.020213
0.0202009
0.020189
0.0201772
0.0201655
0.020154
0.0201426
0.0201313
0.0201203
0.0201093
0.0200986
0.0200881
0.0200778
0.0200677
0.0200578
0.0200481
0.0200387
0.0200296
0.0200208
0.0200122
0.020004
0.019996
0.0209834
0.0209657
0.0209482
0.0209308
0.0209136
0.0208965
0.0208796
0.0208628
0.0208462
0.0208297
0.0208134
0.0207972
0.0207811
0.0207652
0.0207494
0.0207337
0.0207181
0.0207027
0.0206874
0.0206722
0.0206571
0.0206422
0.0206274
0.0206126
0.020598
0.0205835
0.0205691
0.0205548
0.0205406
0.0205265
0.0205125
0.0204986
0.0204848
0.0204712
0.0204576
0.0204441
0.0204307
0.0204174
0.0204042
0.020391
0.020378
0.0203651
0.0203523
0.0203395
0.0203269
0.0203144
0.0203019
0.0202896
0.0202774
0.0202652
0.0202532
0.0202413
0.0202295
0.0202178
0.0202063
0.0201949
0.0201836
0.0201724
0.0201614
0.0201506
0.0201399
0.0201294
0.0201191
0.020109
0.0200991
0.0200894
0.0200799
0.0200708
0.0200618
0.0200532
0.0200448
0.0200367
0.020029
0.0200216
0.0209836
0.020966
0.0209487
0.0209315
0.0209144
0.0208975
0.0208808
0.0208642
0.0208478
0.0208315
0.0208153
0.0207993
0.0207834
0.0207677
0.0207521
0.0207366
0.0207212
0.020706
0.0206909
0.0206759
0.020661
0.0206463
0.0206317
0.0206171
0.0206027
0.0205884
0.0205743
0.0205602
0.0205462
0.0205323
0.0205186
0.0205049
0.0204913
0.0204779
0.0204645
0.0204513
0.0204381
0.020425
0.020412
0.0203992
0.0203864
0.0203737
0.0203611
0.0203486
0.0203362
0.020324
0.0203118
0.0202997
0.0202877
0.0202758
0.0202641
0.0202524
0.0202409
0.0202295
0.0202182
0.020207
0.020196
0.0201851
0.0201744
0.0201638
0.0201535
0.0201433
0.0201332
0.0201234
0.0201139
0.0201045
0.0200954
0.0200866
0.020078
0.0200697
0.0200617
0.0200541
0.0200468
0.0200398
0.0209837
0.0209663
0.020949
0.0209319
0.020915
0.0208982
0.0208816
0.0208652
0.0208489
0.0208327
0.0208167
0.0208008
0.0207851
0.0207694
0.020754
0.0207386
0.0207234
0.0207083
0.0206934
0.0206785
0.0206638
0.0206492
0.0206347
0.0206203
0.0206061
0.0205919
0.0205779
0.020564
0.0205501
0.0205364
0.0205228
0.0205093
0.0204959
0.0204826
0.0204694
0.0204563
0.0204433
0.0204304
0.0204176
0.0204049
0.0203923
0.0203797
0.0203673
0.020355
0.0203428
0.0203307
0.0203187
0.0203068
0.0202949
0.0202833
0.0202717
0.0202602
0.0202488
0.0202376
0.0202265
0.0202156
0.0202047
0.0201941
0.0201836
0.0201732
0.0201631
0.0201531
0.0201433
0.0201337
0.0201244
0.0201153
0.0201065
0.0200979
0.0200897
0.0200817
0.0200741
0.0200668
0.0200599
0.0200534
0.0209837
0.0209664
0.0209493
0.0209323
0.0209154
0.0208988
0.0208823
0.0208659
0.0208497
0.0208336
0.0208177
0.0208019
0.0207862
0.0207707
0.0207553
0.0207401
0.020725
0.02071
0.0206951
0.0206804
0.0206658
0.0206513
0.0206369
0.0206226
0.0206085
0.0205944
0.0205805
0.0205667
0.020553
0.0205394
0.0205259
0.0205125
0.0204992
0.020486
0.0204729
0.0204599
0.020447
0.0204342
0.0204216
0.020409
0.0203965
0.0203841
0.0203718
0.0203596
0.0203475
0.0203355
0.0203236
0.0203118
0.0203002
0.0202886
0.0202771
0.0202658
0.0202546
0.0202435
0.0202326
0.0202217
0.0202111
0.0202006
0.0201902
0.02018
0.02017
0.0201602
0.0201507
0.0201413
0.0201322
0.0201233
0.0201147
0.0201064
0.0200985
0.0200908
0.0200835
0.0200766
0.02007
0.0200639
0.0209838
0.0209665
0.0209495
0.0209325
0.0209158
0.0208992
0.0208827
0.0208664
0.0208503
0.0208343
0.0208184
0.0208027
0.0207871
0.0207717
0.0207564
0.0207412
0.0207261
0.0207112
0.0206964
0.0206818
0.0206672
0.0206528
0.0206385
0.0206243
0.0206102
0.0205963
0.0205824
0.0205687
0.0205551
0.0205415
0.0205281
0.0205148
0.0205016
0.0204885
0.0204755
0.0204626
0.0204498
0.0204371
0.0204245
0.020412
0.0203996
0.0203873
0.0203751
0.0203629
0.0203509
0.020339
0.0203272
0.0203156
0.020304
0.0202925
0.0202812
0.0202699
0.0202588
0.0202478
0.020237
0.0202263
0.0202157
0.0202054
0.0201951
0.0201851
0.0201752
0.0201656
0.0201562
0.020147
0.0201381
0.0201294
0.020121
0.020113
0.0201053
0.0200979
0.0200909
0.0200843
0.0200781
0.0200724
0.0209838
0.0209666
0.0209496
0.0209327
0.020916
0.0208994
0.020883
0.0208668
0.0208507
0.0208347
0.0208189
0.0208033
0.0207878
0.0207724
0.0207571
0.020742
0.020727
0.0207121
0.0206974
0.0206828
0.0206683
0.020654
0.0206397
0.0206256
0.0206116
0.0205977
0.0205839
0.0205702
0.0205566
0.0205431
0.0205298
0.0205165
0.0205034
0.0204903
0.0204774
0.0204646
0.0204518
0.0204392
0.0204266
0.0204142
0.0204019
0.0203896
0.0203775
0.0203655
0.0203535
0.0203417
0.02033
0.0203183
0.0203068
0.0202954
0.0202842
0.020273
0.020262
0.0202511
0.0202403
0.0202297
0.0202193
0.020209
0.0201989
0.020189
0.0201792
0.0201697
0.0201605
0.0201514
0.0201427
0.0201342
0.0201261
0.0201182
0.0201108
0.0201037
0.020097
0.0200907
0.0200849
0.0200796
0.0209839
0.0209667
0.0209497
0.0209329
0.0209162
0.0208997
0.0208833
0.0208671
0.020851
0.0208351
0.0208194
0.0208037
0.0207882
0.0207729
0.0207577
0.0207426
0.0207277
0.0207128
0.0206982
0.0206836
0.0206691
0.0206548
0.0206406
0.0206265
0.0206126
0.0205987
0.020585
0.0205713
0.0205578
0.0205444
0.0205311
0.0205179
0.0205048
0.0204918
0.0204789
0.0204661
0.0204534
0.0204408
0.0204283
0.0204159
0.0204036
0.0203914
0.0203793
0.0203674
0.0203555
0.0203437
0.020332
0.0203205
0.020309
0.0202977
0.0202865
0.0202754
0.0202644
0.0202536
0.0202429
0.0202324
0.020222
0.0202118
0.0202018
0.020192
0.0201824
0.020173
0.0201638
0.020155
0.0201464
0.0201381
0.0201301
0.0201226
0.0201153
0.0201085
0.0201022
0.0200963
0.0200908
0.0200859
0.0209839
0.0209668
0.0209498
0.020933
0.0209163
0.0208998
0.0208835
0.0208673
0.0208513
0.0208354
0.0208197
0.0208041
0.0207886
0.0207733
0.0207581
0.0207431
0.0207282
0.0207134
0.0206987
0.0206842
0.0206698
0.0206555
0.0206413
0.0206273
0.0206133
0.0205995
0.0205858
0.0205722
0.0205587
0.0205453
0.020532
0.0205189
0.0205058
0.0204928
0.02048
0.0204672
0.0204546
0.020442
0.0204296
0.0204172
0.020405
0.0203928
0.0203808
0.0203688
0.020357
0.0203452
0.0203336
0.0203221
0.0203107
0.0202994
0.0202882
0.0202772
0.0202663
0.0202555
0.0202449
0.0202345
0.0202242
0.020214
0.0202041
0.0201944
0.0201849
0.0201756
0.0201666
0.0201579
0.0201494
0.0201413
0.0201336
0.0201262
0.0201193
0.0201128
0.0201068
0.0201012
0.0200962
0.0200917
0.0209839
0.0209668
0.0209498
0.0209331
0.0209164
0.0209
0.0208837
0.0208675
0.0208515
0.0208356
0.0208199
0.0208044
0.0207889
0.0207736
0.0207585
0.0207435
0.0207286
0.0207138
0.0206992
0.0206847
0.0206703
0.020656
0.0206419
0.0206278
0.0206139
0.0206001
0.0205865
0.0205729
0.0205594
0.0205461
0.0205328
0.0205197
0.0205066
0.0204937
0.0204809
0.0204681
0.0204555
0.020443
0.0204306
0.0204182
0.020406
0.0203939
0.0203819
0.02037
0.0203582
0.0203465
0.0203349
0.0203234
0.020312
0.0203008
0.0202896
0.0202787
0.0202678
0.0202571
0.0202465
0.0202361
0.0202259
0.0202158
0.020206
0.0201963
0.0201869
0.0201778
0.0201689
0.0201603
0.020152
0.0201441
0.0201366
0.0201295
0.0201228
0.0201166
0.0201109
0.0201057
0.0201011
0.0200971
0.0209839
0.0209668
0.0209499
0.0209331
0.0209165
0.0209001
0.0208838
0.0208676
0.0208517
0.0208358
0.0208201
0.0208046
0.0207892
0.0207739
0.0207588
0.0207438
0.0207289
0.0207141
0.0206995
0.020685
0.0206707
0.0206564
0.0206423
0.0206283
0.0206144
0.0206006
0.020587
0.0205734
0.02056
0.0205466
0.0205334
0.0205203
0.0205073
0.0204944
0.0204816
0.0204688
0.0204562
0.0204437
0.0204313
0.020419
0.0204068
0.0203947
0.0203828
0.0203709
0.0203591
0.0203474
0.0203358
0.0203244
0.0203131
0.0203018
0.0202908
0.0202798
0.020269
0.0202583
0.0202478
0.0202375
0.0202273
0.0202173
0.0202075
0.020198
0.0201887
0.0201796
0.0201709
0.0201624
0.0201543
0.0201466
0.0201393
0.0201324
0.020126
0.0201201
0.0201147
0.0201099
0.0201057
0.0201021
0.020984
0.0209669
0.0209499
0.0209332
0.0209166
0.0209002
0.0208839
0.0208678
0.0208518
0.020836
0.0208203
0.0208047
0.0207894
0.0207741
0.020759
0.020744
0.0207291
0.0207144
0.0206998
0.0206853
0.020671
0.0206568
0.0206427
0.0206287
0.0206148
0.020601
0.0205874
0.0205738
0.0205604
0.0205471
0.0205339
0.0205208
0.0205078
0.0204949
0.0204821
0.0204694
0.0204568
0.0204443
0.020432
0.0204197
0.0204075
0.0203954
0.0203835
0.0203716
0.0203598
0.0203482
0.0203366
0.0203252
0.0203139
0.0203027
0.0202917
0.0202807
0.02027
0.0202593
0.0202489
0.0202386
0.0202284
0.0202185
0.0202088
0.0201994
0.0201901
0.0201812
0.0201726
0.0201643
0.0201563
0.0201488
0.0201417
0.020135
0.0201289
0.0201232
0.0201182
0.0201138
0.02011
0.0201069
0.020984
0.0209669
0.02095
0.0209332
0.0209166
0.0209002
0.020884
0.0208678
0.0208519
0.0208361
0.0208204
0.0208049
0.0207895
0.0207743
0.0207592
0.0207442
0.0207293
0.0207146
0.0207
0.0206856
0.0206712
0.020657
0.0206429
0.020629
0.0206151
0.0206014
0.0205877
0.0205742
0.0205608
0.0205475
0.0205343
0.0205212
0.0205082
0.0204953
0.0204825
0.0204699
0.0204573
0.0204448
0.0204325
0.0204202
0.020408
0.020396
0.020384
0.0203722
0.0203604
0.0203488
0.0203373
0.0203259
0.0203146
0.0203034
0.0202924
0.0202815
0.0202708
0.0202602
0.0202497
0.0202395
0.0202294
0.0202196
0.0202099
0.0202005
0.0201914
0.0201826
0.0201741
0.0201659
0.0201581
0.0201508
0.0201438
0.0201374
0.0201315
0.0201262
0.0201215
0.0201175
0.0201142
0.0201116
0.020984
0.0209669
0.02095
0.0209333
0.0209167
0.0209003
0.020884
0.0208679
0.020852
0.0208362
0.0208205
0.020805
0.0207896
0.0207744
0.0207593
0.0207443
0.0207295
0.0207148
0.0207002
0.0206858
0.0206715
0.0206573
0.0206432
0.0206292
0.0206153
0.0206016
0.020588
0.0205745
0.0205611
0.0205478
0.0205346
0.0205215
0.0205085
0.0204957
0.0204829
0.0204702
0.0204577
0.0204452
0.0204329
0.0204206
0.0204085
0.0203964
0.0203845
0.0203726
0.0203609
0.0203493
0.0203378
0.0203264
0.0203152
0.020304
0.020293
0.0202821
0.0202714
0.0202609
0.0202505
0.0202403
0.0202303
0.0202205
0.0202109
0.0202016
0.0201925
0.0201838
0.0201754
0.0201674
0.0201597
0.0201525
0.0201458
0.0201396
0.020134
0.020129
0.0201247
0.0201211
0.0201183
0.0201163
0.020984
0.0209669
0.02095
0.0209333
0.0209167
0.0209003
0.0208841
0.020868
0.020852
0.0208362
0.0208206
0.0208051
0.0207897
0.0207745
0.0207594
0.0207445
0.0207296
0.0207149
0.0207004
0.0206859
0.0206716
0.0206574
0.0206434
0.0206294
0.0206155
0.0206018
0.0205882
0.0205747
0.0205613
0.020548
0.0205348
0.0205218
0.0205088
0.020496
0.0204832
0.0204705
0.020458
0.0204455
0.0204332
0.020421
0.0204088
0.0203968
0.0203849
0.020373
0.0203613
0.0203497
0.0203382
0.0203269
0.0203156
0.0203045
0.0202935
0.0202827
0.020272
0.0202614
0.0202511
0.0202409
0.020231
0.0202212
0.0202117
0.0202025
0.0201935
0.0201849
0.0201766
0.0201687
0.0201612
0.0201542
0.0201477
0.0201417
0.0201364
0.0201318
0.0201279
0.0201247
0.0201225
0.0201211
0.020984
0.0209669
0.02095
0.0209333
0.0209168
0.0209004
0.0208841
0.020868
0.0208521
0.0208363
0.0208207
0.0208052
0.0207898
0.0207746
0.0207595
0.0207446
0.0207298
0.0207151
0.0207005
0.0206861
0.0206718
0.0206576
0.0206435
0.0206296
0.0206157
0.020602
0.0205884
0.0205749
0.0205615
0.0205482
0.0205351
0.020522
0.020509
0.0204962
0.0204834
0.0204708
0.0204582
0.0204458
0.0204335
0.0204212
0.0204091
0.0203971
0.0203852
0.0203733
0.0203616
0.02035
0.0203386
0.0203272
0.020316
0.0203049
0.0202939
0.0202831
0.0202724
0.0202619
0.0202516
0.0202415
0.0202316
0.0202219
0.0202124
0.0202032
0.0201943
0.0201858
0.0201776
0.0201698
0.0201625
0.0201557
0.0201494
0.0201437
0.0201387
0.0201344
0.0201309
0.0201283
0.0201266
0.0201258
0.020984
0.0209669
0.0209501
0.0209333
0.0209168
0.0209004
0.0208842
0.0208681
0.0208521
0.0208364
0.0208207
0.0208052
0.0207899
0.0207747
0.0207596
0.0207447
0.0207298
0.0207152
0.0207006
0.0206862
0.0206719
0.0206577
0.0206436
0.0206297
0.0206158
0.0206021
0.0205885
0.020575
0.0205616
0.0205484
0.0205352
0.0205222
0.0205092
0.0204963
0.0204836
0.020471
0.0204584
0.020446
0.0204337
0.0204214
0.0204093
0.0203973
0.0203854
0.0203736
0.0203619
0.0203503
0.0203388
0.0203275
0.0203163
0.0203052
0.0202942
0.0202834
0.0202728
0.0202623
0.020252
0.0202419
0.020232
0.0202224
0.020213
0.0202039
0.0201951
0.0201866
0.0201785
0.0201709
0.0201637
0.0201571
0.020151
0.0201456
0.0201409
0.020137
0.020134
0.0201318
0.0201307
0.0201306
0.020984
0.0209669
0.0209501
0.0209334
0.0209168
0.0209004
0.0208842
0.0208681
0.0208522
0.0208364
0.0208208
0.0208053
0.0207899
0.0207747
0.0207596
0.0207447
0.0207299
0.0207152
0.0207007
0.0206862
0.0206719
0.0206578
0.0206437
0.0206298
0.0206159
0.0206022
0.0205886
0.0205751
0.0205617
0.0205485
0.0205353
0.0205223
0.0205093
0.0204965
0.0204837
0.0204711
0.0204585
0.0204461
0.0204338
0.0204216
0.0204094
0.0203974
0.0203855
0.0203737
0.020362
0.0203504
0.020339
0.0203276
0.0203164
0.0203054
0.0202944
0.0202836
0.020273
0.0202626
0.0202523
0.0202422
0.0202324
0.0202228
0.0202134
0.0202044
0.0201956
0.0201873
0.0201793
0.0201718
0.0201648
0.0201583
0.0201525
0.0201474
0.020143
0.0201395
0.0201369
0.0201353
0.0201347
0.0201353
0.020984
0.0209669
0.0209501
0.0209334
0.0209168
0.0209004
0.0208842
0.0208681
0.0208522
0.0208364
0.0208208
0.0208053
0.0207899
0.0207747
0.0207597
0.0207447
0.0207299
0.0207152
0.0207007
0.0206863
0.020672
0.0206578
0.0206437
0.0206298
0.0206159
0.0206022
0.0205886
0.0205751
0.0205618
0.0205485
0.0205353
0.0205223
0.0205093
0.0204965
0.0204837
0.0204711
0.0204586
0.0204461
0.0204338
0.0204216
0.0204095
0.0203975
0.0203856
0.0203738
0.0203621
0.0203505
0.020339
0.0203277
0.0203165
0.0203055
0.0202945
0.0202838
0.0202732
0.0202627
0.0202525
0.0202424
0.0202326
0.0202231
0.0202138
0.0202048
0.0201961
0.0201878
0.02018
0.0201726
0.0201658
0.0201595
0.0201539
0.0201491
0.0201451
0.020142
0.0201398
0.0201387
0.0201388
0.0201401
0.020984
0.0209669
0.0209501
0.0209334
0.0209168
0.0209004
0.0208842
0.0208681
0.0208522
0.0208364
0.0208208
0.0208053
0.0207899
0.0207747
0.0207597
0.0207447
0.0207299
0.0207152
0.0207007
0.0206863
0.020672
0.0206578
0.0206437
0.0206298
0.0206159
0.0206022
0.0205886
0.0205751
0.0205618
0.0205485
0.0205353
0.0205223
0.0205093
0.0204965
0.0204837
0.0204711
0.0204586
0.0204461
0.0204338
0.0204216
0.0204095
0.0203975
0.0203856
0.0203738
0.0203621
0.0203505
0.0203391
0.0203278
0.0203166
0.0203055
0.0202946
0.0202838
0.0202732
0.0202628
0.0202526
0.0202426
0.0202328
0.0202233
0.020214
0.0202051
0.0201965
0.0201883
0.0201806
0.0201734
0.0201667
0.0201606
0.0201553
0.0201507
0.020147
0.0201443
0.0201426
0.0201421
0.0201428
0.0201449
0.020984
0.0209669
0.0209501
0.0209334
0.0209168
0.0209004
0.0208842
0.0208681
0.0208522
0.0208364
0.0208208
0.0208053
0.0207899
0.0207747
0.0207597
0.0207447
0.0207299
0.0207152
0.0207007
0.0206863
0.020672
0.0206578
0.0206437
0.0206298
0.0206159
0.0206022
0.0205886
0.0205751
0.0205618
0.0205485
0.0205353
0.0205223
0.0205093
0.0204965
0.0204837
0.0204711
0.0204586
0.0204461
0.0204338
0.0204216
0.0204095
0.0203975
0.0203856
0.0203738
0.0203621
0.0203505
0.0203391
0.0203278
0.0203166
0.0203055
0.0202946
0.0202839
0.0202733
0.0202629
0.0202527
0.0202427
0.020233
0.0202235
0.0202143
0.0202054
0.0201969
0.0201888
0.0201812
0.0201741
0.0201676
0.0201617
0.0201566
0.0201523
0.0201489
0.0201466
0.0201454
0.0201454
0.0201468
0.0201495
0.020984
0.0209669
0.0209501
0.0209334
0.0209168
0.0209004
0.0208842
0.0208681
0.0208522
0.0208364
0.0208208
0.0208053
0.0207899
0.0207747
0.0207597
0.0207447
0.0207299
0.0207152
0.0207007
0.0206863
0.020672
0.0206578
0.0206437
0.0206298
0.0206159
0.0206022
0.0205886
0.0205751
0.0205618
0.0205485
0.0205353
0.0205223
0.0205093
0.0204965
0.0204837
0.0204711
0.0204586
0.0204461
0.0204338
0.0204216
0.0204095
0.0203975
0.0203856
0.0203738
0.0203621
0.0203505
0.0203391
0.0203278
0.0203166
0.0203056
0.0202947
0.0202839
0.0202734
0.020263
0.0202528
0.0202429
0.0202331
0.0202237
0.0202145
0.0202057
0.0201973
0.0201893
0.0201817
0.0201747
0.0201684
0.0201627
0.0201578
0.0201538
0.0201507
0.0201488
0.020148
0.0201486
0.0201506
0.0201541
0.020984
0.0209669
0.0209501
0.0209334
0.0209168
0.0209004
0.0208842
0.0208681
0.0208522
0.0208364
0.0208208
0.0208053
0.0207899
0.0207747
0.0207597
0.0207447
0.0207299
0.0207152
0.0207007
0.0206863
0.020672
0.0206578
0.0206437
0.0206298
0.0206159
0.0206022
0.0205886
0.0205751
0.0205618
0.0205485
0.0205353
0.0205223
0.0205093
0.0204965
0.0204837
0.0204711
0.0204586
0.0204461
0.0204338
0.0204216
0.0204095
0.0203975
0.0203856
0.0203738
0.0203621
0.0203506
0.0203391
0.0203278
0.0203166
0.0203056
0.0202947
0.020284
0.0202734
0.0202631
0.0202529
0.020243
0.0202333
0.0202239
0.0202147
0.020206
0.0201976
0.0201897
0.0201822
0.0201753
0.0201691
0.0201636
0.0201589
0.0201551
0.0201524
0.0201508
0.0201505
0.0201516
0.0201542
0.0201584
0.020984
0.0209669
0.0209501
0.0209334
0.0209168
0.0209004
0.0208842
0.0208681
0.0208522
0.0208364
0.0208208
0.0208053
0.0207899
0.0207747
0.0207597
0.0207447
0.0207299
0.0207152
0.0207007
0.0206863
0.0206719
0.0206578
0.0206437
0.0206298
0.0206159
0.0206022
0.0205886
0.0205751
0.0205618
0.0205485
0.0205353
0.0205223
0.0205093
0.0204965
0.0204837
0.0204711
0.0204586
0.0204461
0.0204338
0.0204216
0.0204095
0.0203975
0.0203856
0.0203738
0.0203621
0.0203506
0.0203391
0.0203278
0.0203167
0.0203056
0.0202947
0.020284
0.0202735
0.0202631
0.020253
0.0202431
0.0202334
0.020224
0.0202149
0.0202062
0.0201979
0.02019
0.0201826
0.0201759
0.0201697
0.0201644
0.0201599
0.0201563
0.0201539
0.0201526
0.0201527
0.0201543
0.0201574
0.0201623
0.020984
0.0209669
0.0209501
0.0209334
0.0209168
0.0209004
0.0208842
0.0208681
0.0208522
0.0208364
0.0208208
0.0208053
0.0207899
0.0207747
0.0207597
0.0207447
0.0207299
0.0207152
0.0207007
0.0206863
0.0206719
0.0206578
0.0206437
0.0206298
0.0206159
0.0206022
0.0205886
0.0205751
0.0205618
0.0205485
0.0205353
0.0205223
0.0205093
0.0204965
0.0204837
0.0204711
0.0204586
0.0204461
0.0204338
0.0204216
0.0204095
0.0203975
0.0203856
0.0203738
0.0203621
0.0203506
0.0203391
0.0203278
0.0203167
0.0203056
0.0202948
0.0202841
0.0202735
0.0202632
0.0202531
0.0202432
0.0202335
0.0202241
0.0202151
0.0202064
0.0201981
0.0201903
0.020183
0.0201763
0.0201703
0.0201651
0.0201607
0.0201573
0.0201551
0.0201541
0.0201546
0.0201565
0.0201602
0.0201656
0.020984
0.0209669
0.0209501
0.0209334
0.0209168
0.0209004
0.0208842
0.0208681
0.0208522
0.0208364
0.0208208
0.0208053
0.0207899
0.0207747
0.0207597
0.0207447
0.0207299
0.0207152
0.0207007
0.0206862
0.0206719
0.0206578
0.0206437
0.0206298
0.0206159
0.0206022
0.0205886
0.0205751
0.0205618
0.0205485
0.0205353
0.0205223
0.0205093
0.0204965
0.0204837
0.0204711
0.0204586
0.0204461
0.0204338
0.0204216
0.0204095
0.0203975
0.0203856
0.0203738
0.0203621
0.0203506
0.0203392
0.0203279
0.0203167
0.0203057
0.0202948
0.0202841
0.0202736
0.0202632
0.0202531
0.0202432
0.0202336
0.0202242
0.0202152
0.0202065
0.0201983
0.0201905
0.0201833
0.0201766
0.0201707
0.0201656
0.0201613
0.0201581
0.0201561
0.0201553
0.020156
0.0201583
0.0201623
0.0201682
0.020984
0.0209669
0.0209501
0.0209334
0.0209168
0.0209004
0.0208842
0.0208681
0.0208522
0.0208364
0.0208208
0.0208053
0.0207899
0.0207747
0.0207597
0.0207447
0.0207299
0.0207152
0.0207007
0.0206863
0.0206719
0.0206578
0.0206437
0.0206298
0.0206159
0.0206022
0.0205886
0.0205751
0.0205618
0.0205485
0.0205353
0.0205223
0.0205093
0.0204965
0.0204837
0.0204711
0.0204586
0.0204461
0.0204338
0.0204216
0.0204095
0.0203975
0.0203856
0.0203738
0.0203621
0.0203506
0.0203392
0.0203279
0.0203167
0.0203057
0.0202948
0.0202841
0.0202736
0.0202633
0.0202532
0.0202433
0.0202336
0.0202243
0.0202153
0.0202067
0.0201984
0.0201907
0.0201835
0.0201769
0.020171
0.0201659
0.0201618
0.0201587
0.0201568
0.0201562
0.020157
0.0201596
0.0201638
0.02017
0.0209168
0.0209004
0.0208842
0.0208681
0.0208522
0.0208364
0.0208208
0.0208053
0.0207899
0.0207747
0.0207597
0.0207447
0.0207299
0.0207152
0.0207007
0.0206862
0.0206719
0.0206578
0.0206437
0.0206298
0.0206159
0.0206022
0.0205886
0.0205751
0.0205618
0.0205485
0.0205353
0.0205223
0.0205093
0.0204965
0.0204837
0.0204711
0.0204586
0.0204461
0.0204338
0.0204216
0.0204095
0.0203975
0.0203856
0.0203738
0.0203621
0.0203506
0.0203392
0.0203279
0.0203167
0.0203057
0.0202948
0.0202841
0.0202736
0.0202633
0.0202532
0.0202433
0.0202337
0.0202243
0.0202153
0.0202067
0.0201985
0.0201907
0.0201836
0.020177
0.0201711
0.0201661
0.020162
0.020159
0.0201571
0.0201566
0.0201576
0.0201602
0.0201646
0.020171
0.0201589
0.0201571
0.0201566
0.0201575
0.0201602