/*--------------------------------*- C++ -*----------------------------------*\
  =========                 |
  \\      /  F ield         | OpenFOAM: The Open Source CFD Toolbox
   \\    /   O peration     | Website:  https://openfoam.org
    \\  /    A nd           | Version:  13
     \\/     M anipulation  |
\*---------------------------------------------------------------------------*/
FoamFile
{
    format      ascii;
    class       volScalarField;
    location    "200";
    object      k;
}
// * * * * * * * * * * * * * * * * * * * * * * * * * * * * * * * * * * * * * //

dimensions      [0 2 -2 0 0 0 0];

internalField   nonuniform List<scalar> 
169916
(
0.364705
0.367555
0.371117
0.375335
0.379988
0.384694
0.389036
0.392687
0.39547
0.397349
0.39837
0.398469
0.397662
0.396295
0.368477
0.372631
0.377972
0.384488
0.391738
0.398911
0.405492
0.411039
0.415245
0.418035
0.419542
0.419944
0.419325
0.418369
0.37243
0.378276
0.386085
0.395862
0.406733
0.417543
0.427729
0.436553
0.443162
0.447353
0.44951
0.450184
0.450414
0.450954
0.45195
0.453344
0.455055
0.456985
0.459015
0.460991
0.462743
0.464099
0.370745
0.376315
0.384296
0.395345
0.409214
0.424815
0.430025
0.446297
0.464186
0.478673
0.487689
0.491938
0.504314
0.502921
0.504784
0.507522
0.510014
0.512144
0.513221
0.513001
0.510963
0.506661
0.500287
0.372713
0.37968
0.390221
0.405122
0.423863
0.432681
0.461608
0.498315
0.532359
0.556586
0.566349
0.564521
0.561884
0.563279
0.566414
0.567696
0.566252
0.558003
0.544544
0.527459
0.508352
0.48859
0.469204
0.373558
0.381737
0.394912
0.414417
0.425037
0.460947
0.507529
0.575778
0.614716
0.680371
0.703065
0.705472
0.692751
0.720077
0.802047
0.725973
0.659278
0.605201
0.562834
0.5281
0.50005
0.477592
0.459735
0.445614
0.372779
0.38143
0.395875
0.405888
0.440148
0.502179
0.551679
0.68087
0.803863
0.993819
1.10484
1.3579
1.31386
1.00177
0.882313
0.782388
0.698827
0.640229
0.597189
0.564553
0.539717
0.520809
0.506649
0.496081
0.486643
0.370198
0.378219
0.392683
0.403214
0.445075
0.531132
0.624317
0.859456
1.06919
1.34639
1.34928
1.16239
0.90873
0.792481
0.672877
0.634439
0.602685
0.577961
0.560656
0.549214
0.542064
0.538028
0.536206
0.535884
0.366133
0.372406
0.384345
0.390551
0.421441
0.482759
0.53737
0.666064
0.720804
0.755542
0.749484
0.710758
0.668835
0.636585
0.617609
0.621368
0.611147
0.604872
0.601971
0.60145
0.602479
0.604575
0.607416
0.610784
0.614575
0.618818
0.361391
0.365419
0.373058
0.384919
0.390856
0.412392
0.442312
0.4739
0.498954
0.524393
0.545621
0.558701
0.566641
0.570529
0.557067
0.559501
0.561174
0.563026
0.565446
0.568504
0.572145
0.576275
0.58085
0.585834
0.591212
0.597027
0.356753
0.359008
0.363215
0.36975
0.379044
0.388873
0.393794
0.409013
0.425572
0.442798
0.459336
0.473361
0.477044
0.481598
0.484164
0.484922
0.484949
0.484985
0.48545
0.486589
0.488514
0.491249
0.494771
0.499049
0.504078
0.509898
0.35276
0.353946
0.356438
0.360417
0.366028
0.373021
0.381136
0.390056
0.399106
0.407346
0.414197
0.419509
0.423681
0.426178
0.427255
0.427488
0.42736
0.427195
0.42721
0.427548
0.428298
0.429513
0.431237
0.433514
0.436391
0.439924
0.349798
0.350435
0.352114
0.35494
0.358938
0.364041
0.370087
0.376612
0.38294
0.388321
0.392446
0.395311
0.397074
0.397943
0.398231
0.398208
0.398071
0.397965
0.39801
0.398288
0.398855
0.399746
0.400983
0.402587
0.404576
0.40697
0.348191
0.348573
0.349867
0.352104
0.355255
0.359206
0.363761
0.368579
0.373125
0.376868
0.379552
0.381192
0.382062
0.382422
0.382459
0.38231
0.382088
0.381979
0.382039
0.382332
0.382883
0.383699
0.384779
0.386114
0.387697
0.389509
0.347696
0.348049
0.349232
0.351231
0.353948
0.357228
0.360831
0.364445
0.367718
0.370356
0.372203
0.37324
0.373654
0.373532
0.373109
0.37264
0.372301
0.372227
0.372495
0.372968
0.373633
0.374478
0.375484
0.37663
0.377889
0.348112
0.34862
0.349899
0.351893
0.35445
0.357352
0.360352
0.363193
0.365673
0.367667
0.369077
0.369855
0.370052
0.369734
0.369293
0.368944
0.368806
0.368942
0.369334
0.36986
0.370505
0.371249
0.372066
0.372926
0.373791
0.34927
0.350064
0.351596
0.353758
0.356343
0.359088
0.361735
0.364091
0.366063
0.367628
0.368751
0.369394
0.369484
0.369176
0.368806
0.368543
0.36845
0.368535
0.368774
0.369117
0.36952
0.369936
0.37035
0.370714
0.370993
0.351981
0.353871
0.356326
0.359067
0.361792
0.36426
0.366347
0.368043
0.369381
0.370366
0.370983
0.371137
0.370911
0.370569
0.370245
0.369971
0.369732
0.369491
0.369208
0.368871
0.36849
0.36807
0.367615
0.367142
0.35616
0.358982
0.361968
0.364768
0.367169
0.36912
0.370676
0.371903
0.372832
0.373456
0.37367
0.373437
0.372955
0.372351
0.371671
0.370921
0.370089
0.369167
0.368177
0.367163
0.366159
0.365183
0.364254
0.358044
0.36119
0.364426
0.367341
0.369741
0.371632
0.373118
0.374288
0.375187
0.37581
0.376012
0.375669
0.374941
0.37399
0.372908
0.37173
0.370466
0.369127
0.367746
0.366376
0.365059
0.363812
0.362657
0.362409
0.365801
0.368799
0.371215
0.373087
0.374541
0.375684
0.376573
0.377202
0.377404
0.377003
0.376149
0.375027
0.373753
0.372377
0.370917
0.369392
0.367839
0.366314
0.364858
0.363492
0.362236
0.362397
0.365783
0.368773
0.371183
0.373049
0.374498
0.375636
0.376518
0.37714
0.377328
0.376915
0.376051
0.37492
0.373638
0.372255
0.370791
0.369262
0.367707
0.366181
0.364725
0.363359
0.362105
0.361167
0.36439
0.367289
0.369672
0.371548
0.373017
0.374168
0.375045
0.375642
0.375789
0.375397
0.374628
0.373641
0.372526
0.37132
0.370034
0.368679
0.367288
0.365912
0.364593
0.363346
0.362194
0.361166
0.358954
0.361928
0.364711
0.367093
0.369024
0.370559
0.37176
0.372659
0.373245
0.373377
0.37307
0.372519
0.37185
0.371112
0.37031
0.369436
0.368482
0.367469
0.366439
0.365427
0.364447
0.363519
0.362674
0.356299
0.35903
0.36174
0.364189
0.366254
0.367921
0.369225
0.370175
0.370751
0.370822
0.37052
0.370107
0.369712
0.36937
0.369068
0.368772
0.368445
0.368074
0.367668
0.367232
0.366767
0.366287
0.365818
0.353733
0.35631
0.359043
0.361672
0.364001
0.365937
0.367457
0.368531
0.369125
0.369124
0.368742
0.368306
0.36798
0.367826
0.367855
0.368046
0.368352
0.368729
0.369131
0.369535
0.369891
0.370165
0.370344
0.354422
0.357314
0.360296
0.36311
0.36555
0.367496
0.368854
0.369585
0.369699
0.369315
0.368817
0.368414
0.368224
0.368308
0.368675
0.369178
0.369801
0.370523
0.371321
0.372165
0.373014
0.373858
0.374664
0.353915
0.357184
0.360767
0.364355
0.367596
0.370197
0.372014
0.373033
0.373439
0.373315
0.372892
0.372419
0.372074
0.371986
0.372238
0.372693
0.373342
0.374172
0.375165
0.376298
0.377548
0.37886
0.380277
0.35521
0.359143
0.363667
0.368471
0.373002
0.376735
0.379441
0.381134
0.382072
0.382508
0.382619
0.382545
0.382414
0.382345
0.382436
0.382752
0.38332
0.384149
0.38524
0.386589
0.38819
0.390031
0.39201
0.358875
0.36395
0.369934
0.376574
0.382986
0.388431
0.392647
0.395649
0.397578
0.398621
0.399071
0.399196
0.399195
0.39922
0.399387
0.399784
0.400468
0.401477
0.402839
0.404582
0.406733
0.409318
0.412373
0.398959
0.407216
0.414171
0.419698
0.424165
0.426998
0.428433
0.429023
0.429235
0.429395
0.429731
0.430396
0.431489
0.433071
0.435191
0.4379
0.441251
0.445311
0.450161
0.413508
0.426058
0.437178
0.446053
0.475938
0.480484
0.483249
0.484383
0.484859
0.485352
0.486246
0.48777
0.490036
0.493071
0.496858
0.501369
0.5066
0.512582
0.519413
0.482586
0.501017
0.514751
0.521782
0.523846
0.552478
0.554253
0.55562
0.55736
0.559535
0.562133
0.565182
0.568718
0.572766
0.577208
0.582003
0.587196
0.592898
0.583694
0.614494
0.607579
0.604122
0.598209
0.617614
0.607351
0.600772
0.597257
0.595852
0.595753
0.596489
0.597794
0.599488
0.601497
0.603859
0.606741
0.769768
0.830555
0.739363
0.670542
0.677356
0.639136
0.608444
0.583376
0.564797
0.55192
0.543326
0.537825
0.534529
0.532783
0.532097
0.532194
1.50593
1.18833
1.01358
0.800075
0.71
0.648181
0.603353
0.569975
0.544442
0.524806
0.509786
0.498542
0.490328
0.482655
0.475933
0.798672
0.722677
0.655023
0.600427
0.557999
0.523843
0.49636
0.474415
0.456976
0.443198
0.432388
0.423716
0.416662
0.365043
0.368054
0.371829
0.376251
0.380972
0.385577
0.389689
0.393052
0.395572
0.39728
0.398263
0.398636
0.39835
0.397663
0.369138
0.373684
0.379587
0.386584
0.393873
0.400931
0.407233
0.412331
0.416032
0.418414
0.419719
0.420298
0.420568
0.420531
0.373663
0.380399
0.389495
0.400234
0.41139
0.422796
0.433069
0.441011
0.446219
0.449072
0.450387
0.45125
0.451912
0.452482
0.453026
0.453563
0.454118
0.454755
0.45556
0.456358
0.4571
0.45775
0.37194
0.378497
0.388325
0.401893
0.418312
0.423871
0.443018
0.463741
0.47994
0.489025
0.49162
0.489878
0.48776
0.490164
0.490386
0.49079
0.49092
0.49111
0.491132
0.49058
0.489394
0.487623
0.485404
0.374538
0.383289
0.397001
0.416832
0.426583
0.462577
0.507877
0.546894
0.564406
0.557441
0.539928
0.522886
0.510961
0.503744
0.512345
0.510872
0.509302
0.508207
0.506035
0.501038
0.494742
0.48752
0.479779
0.37606
0.386988
0.404651
0.415485
0.459567
0.531544
0.596977
0.711378
0.772521
0.766615
0.758727
0.68
0.630336
0.678605
0.655037
0.720261
0.678059
0.641428
0.610275
0.58349
0.5611
0.543571
0.53049
0.521139
0.375834
0.387329
0.395237
0.427343
0.498659
0.577753
0.854158
1.14769
1.24805
1.07178
0.942476
0.799564
0.753963
0.725543
0.709453
0.701321
0.698576
0.699282
0.702004
0.705538
0.373373
0.384491
0.392606
0.428836
0.487511
0.663634
1.05276
0.864587
0.791239
0.86137
0.860948
0.868516
0.878517
0.889246
0.899453
0.908372
0.915578
0.920065
0.36879
0.378174
0.395318
0.408239
0.470487
0.575239
0.775201
1.11601
0.957892
0.837398
0.880856
0.882755
0.895017
0.909155
0.920125
0.926277
0.929284
0.930138
0.929537
0.928142
0.926585
0.363348
0.369115
0.379641
0.386873
0.412595
0.45585
0.498367
0.547266
0.567419
0.563191
0.568739
0.593843
0.598769
0.617508
0.637146
0.679271
0.697274
0.716396
0.735407
0.753116
0.768906
0.782621
0.794377
0.804462
0.813346
0.821571
0.358097
0.361161
0.366838
0.375321
0.38064
0.395354
0.413133
0.430916
0.449358
0.468024
0.48577
0.502394
0.516244
0.525088
0.525051
0.52751
0.530948
0.536885
0.545431
0.556413
0.568818
0.582129
0.595929
0.60992
0.624015
0.638356
0.353659
0.355187
0.358194
0.362905
0.36923
0.376752
0.38563
0.396493
0.408927
0.42035
0.429409
0.435888
0.43948
0.440522
0.440179
0.43912
0.43808
0.43743
0.4376
0.438716
0.440899
0.444261
0.448907
0.454823
0.462059
0.470672
0.350459
0.351232
0.353101
0.356188
0.360471
0.36596
0.372568
0.380269
0.388077
0.394568
0.399223
0.402132
0.403703
0.404094
0.403615
0.402635
0.401683
0.401024
0.400852
0.401106
0.401856
0.403142
0.405013
0.407523
0.410721
0.414671
0.348785
0.349253
0.350658
0.353039
0.35639
0.360667
0.365722
0.371168
0.376305
0.380459
0.383209
0.384796
0.385522
0.385504
0.384925
0.384173
0.383516
0.383141
0.383191
0.383688
0.384508
0.385663
0.387162
0.38901
0.391213
0.393739
0.34847
0.34894
0.350264
0.352436
0.355372
0.358955
0.362911
0.366908
0.370566
0.373566
0.375587
0.376632
0.376853
0.376373
0.375667
0.375014
0.374603
0.37456
0.374954
0.375718
0.376716
0.377935
0.379355
0.38095
0.382707
0.349244
0.34995
0.351463
0.353727
0.356588
0.359818
0.363161
0.366309
0.369075
0.371321
0.372898
0.373721
0.373724
0.37327
0.372805
0.372553
0.372628
0.37307
0.373807
0.374719
0.375792
0.377002
0.378313
0.37968
0.381068
0.35086
0.351948
0.35384
0.356412
0.359424
0.362577
0.365571
0.36818
0.370352
0.372138
0.373487
0.374278
0.374334
0.374022
0.373753
0.373699
0.373916
0.37438
0.375035
0.375759
0.376533
0.377343
0.378153
0.37891
0.379595
0.354294
0.356721
0.359779
0.363121
0.366366
0.369232
0.371596
0.373507
0.375072
0.376304
0.377131
0.377363
0.377212
0.376996
0.376854
0.3768
0.376792
0.37676
0.37664
0.376429
0.376154
0.375817
0.375418
0.375
0.359663
0.363301
0.367085
0.370536
0.373401
0.375667
0.377471
0.378936
0.380111
0.380945
0.381222
0.380974
0.380447
0.379791
0.379046
0.378209
0.37726
0.376178
0.375007
0.373817
0.372651
0.371513
0.370443
0.361951
0.366134
0.370373
0.374087
0.377031
0.379268
0.381008
0.3824
0.383507
0.384292
0.384467
0.383938
0.382929
0.38167
0.380272
0.378775
0.377185
0.375505
0.373789
0.372113
0.370514
0.368995
0.36759
0.367737
0.372262
0.376162
0.379185
0.38143
0.383135
0.384472
0.385543
0.386319
0.386462
0.385813
0.384583
0.383051
0.381368
0.379588
0.377727
0.375793
0.373846
0.371959
0.370163
0.368462
0.366887
0.367721
0.372235
0.376124
0.379137
0.381375
0.383075
0.384408
0.385472
0.386239
0.38637
0.385711
0.384472
0.382931
0.38124
0.379453
0.377586
0.375648
0.373699
0.37181
0.370013
0.368311
0.366737
0.366106
0.370325
0.374013
0.376931
0.379146
0.380864
0.382229
0.383303
0.384048
0.384157
0.383573
0.382516
0.381212
0.379776
0.378247
0.376633
0.374936
0.37321
0.371528
0.369926
0.368409
0.367008
0.36577
0.363271
0.367038
0.370466
0.373307
0.37555
0.377329
0.378763
0.379897
0.380673
0.380847
0.380506
0.379892
0.379152
0.37833
0.377427
0.376424
0.375303
0.374105
0.372899
0.371724
0.370586
0.36952
0.368584
0.359753
0.363084
0.366314
0.369161
0.371502
0.373381
0.374905
0.376095
0.376869
0.377004
0.376765
0.376462
0.376229
0.376084
0.375991
0.375888
0.37571
0.375457
0.375154
0.374801
0.374396
0.373976
0.373593
0.35639
0.359396
0.362536
0.365515
0.368095
0.370223
0.371949
0.373234
0.373963
0.373916
0.373523
0.373179
0.37305
0.373188
0.373586
0.374186
0.374884
0.375638
0.376432
0.377232
0.377984
0.378666
0.37922
0.356568
0.359794
0.363124
0.366245
0.368965
0.371152
0.372665
0.373427
0.373325
0.372782
0.372235
0.371902
0.371892
0.372258
0.372961
0.373837
0.374878
0.376057
0.377341
0.378685
0.380055
0.381405
0.38266
0.355349
0.358924
0.362861
0.366842
0.37047
0.373429
0.375416
0.376442
0.376649
0.376155
0.375421
0.374727
0.374261
0.374155
0.374482
0.375201
0.376153
0.377326
0.3787
0.38025
0.381966
0.383834
0.385853
0.35635
0.360604
0.365638
0.37115
0.376338
0.380513
0.383302
0.384947
0.385739
0.38585
0.385351
0.384651
0.38402
0.383654
0.383688
0.38414
0.384916
0.386034
0.387507
0.389348
0.391569
0.39414
0.397033
0.360413
0.365865
0.372558
0.380234
0.388218
0.394751
0.399474
0.402468
0.404192
0.404765
0.404554
0.403915
0.403275
0.402931
0.402913
0.403343
0.404294
0.405825
0.407997
0.410877
0.414538
0.419048
0.424449
0.408554
0.420034
0.429343
0.436391
0.440642
0.442247
0.442502
0.442032
0.441631
0.441691
0.442637
0.444617
0.447744
0.452084
0.457691
0.464627
0.472945
0.482711
0.494045
0.42636
0.442631
0.457022
0.469072
0.478222
0.483018
0.520396
0.523227
0.527235
0.533516
0.5422
0.553177
0.565813
0.579378
0.593473
0.607762
0.62213
0.636686
0.651763
0.500967
0.515415
0.529832
0.545414
0.558943
0.565992
0.666355
0.68426
0.702125
0.71916
0.734635
0.748273
0.760144
0.770472
0.779546
0.787738
0.795505
0.803415
0.966932
1.04322
0.868872
0.750576
0.783243
0.761974
0.902528
0.894035
0.89723
0.903768
0.90935
0.911962
0.912237
0.911033
0.908966
0.906562
0.90432
0.902786
1.11358
0.980331
0.863443
0.823092
0.895674
0.884325
0.881864
0.883408
0.887289
0.891919
0.896388
0.900281
0.903452
0.905275
0.906523
1.17997
1.04179
0.891399
0.832123
0.781407
0.746217
0.72569
0.714756
0.70998
0.708927
0.710247
0.712967
0.716297
0.719858
0.840011
0.70282
0.666361
0.634211
0.605498
0.579227
0.557598
0.540928
0.528664
0.52002
0.514232
0.510648
0.508817
0.36313
0.365594
0.368857
0.372899
0.377431
0.382042
0.386325
0.389965
0.392824
0.394933
0.396404
0.397358
0.397915
0.398342
0.398527
0.36647
0.370239
0.375407
0.381917
0.389033
0.396224
0.402868
0.408437
0.412623
0.415486
0.41731
0.418482
0.419599
0.420502
0.421156
0.370134
0.375767
0.383829
0.393955
0.405099
0.417208
0.428287
0.436977
0.442671
0.445636
0.446893
0.447818
0.448822
0.449993
0.45134
0.452355
0.45311
0.453695
0.454155
0.454529
0.454845
0.455126
0.455391
0.373992
0.382245
0.39433
0.410167
0.416638
0.438157
0.460696
0.477734
0.486885
0.487978
0.483621
0.479208
0.476742
0.476567
0.480592
0.481746
0.482338
0.482492
0.482112
0.481437
0.480572
0.479564
0.47845
0.37767
0.389208
0.40649
0.416317
0.456711
0.510708
0.548449
0.566647
0.561214
0.543655
0.522944
0.50503
0.491676
0.487979
0.488546
0.510079
0.509721
0.507699
0.504236
0.499802
0.49486
0.489686
0.484472
0.38036
0.394901
0.404129
0.444392
0.531196
0.625927
0.737331
0.909882
1.02423
1.15516
1.19817
1.07962
0.844021
0.700142
0.712517
0.667744
0.669806
0.636783
0.608799
0.584408
0.564112
0.547108
0.532968
0.521296
0.381073
0.397442
0.410832
0.470593
0.567855
1.00587
1.04885
0.937713
0.818964
0.772754
0.739869
0.715409
0.697392
0.684093
0.674015
0.66603
0.658376
0.378719
0.394384
0.409053
0.476033
0.631949
0.873013
1.16996
1.34473
1.147
1.05433
0.997649
0.958209
0.927114
0.900915
0.877263
0.854672
0.373199
0.385659
0.39622
0.451253
0.561058
0.979733
1.29885
1.38392
1.35148
1.31533
1.27668
1.23742
1.20074
1.16629
1.1339
1.10369
1.07629
1.05194
0.36645
0.375399
0.390696
0.403805
0.45524
0.540263
0.574968
0.646823
0.694649
0.848979
0.808995
0.774659
0.775715
0.872427
0.979316
0.985897
1.03017
1.07304
1.10118
1.1126
1.11181
1.10267
1.08898
1.07345
1.05908
1.04655
0.360313
0.364631
0.372612
0.384118
0.392981
0.413409
0.430583
0.448281
0.476192
0.505832
0.52857
0.564342
0.611824
0.657391
0.694705
0.707948
0.728276
0.753019
0.779247
0.804655
0.82739
0.845605
0.859749
0.870471
0.878946
0.886618
0.355241
0.357323
0.361157
0.36695
0.374077
0.382112
0.391524
0.398511
0.42022
0.445535
0.463484
0.472781
0.469867
0.464679
0.460957
0.458092
0.456648
0.459345
0.465772
0.474801
0.486341
0.500277
0.516102
0.533216
0.55163
0.571276
0.351735
0.352763
0.354975
0.358521
0.363244
0.36927
0.376511
0.381174
0.393866
0.407397
0.417027
0.421921
0.421541
0.419354
0.416755
0.414771
0.413145
0.411587
0.411512
0.413
0.416005
0.420096
0.425285
0.431627
0.43918
0.350037
0.350709
0.35237
0.355072
0.358839
0.363677
0.36973
0.376854
0.384008
0.390132
0.394031
0.3958
0.39623
0.395463
0.39422
0.393068
0.39235
0.392056
0.392416
0.393677
0.395622
0.39815
0.401282
0.405012
0.409291
0.350156
0.350911
0.352579
0.355166
0.358618
0.362758
0.367549
0.372478
0.376972
0.380886
0.383649
0.384979
0.38507
0.384522
0.383835
0.383359
0.383322
0.383828
0.384915
0.386507
0.388474
0.390796
0.393435
0.396288
0.399356
0.351684
0.352826
0.354876
0.357773
0.36134
0.365292
0.369359
0.373005
0.376141
0.378975
0.381083
0.382148
0.382133
0.381828
0.381752
0.382148
0.383113
0.384559
0.386327
0.388335
0.390558
0.392961
0.395489
0.398075
0.400687
0.353954
0.355727
0.358466
0.362015
0.366033
0.37007
0.373738
0.376735
0.379214
0.381398
0.383192
0.384259
0.384311
0.384212
0.384453
0.385117
0.386184
0.387535
0.389059
0.390718
0.392529
0.394465
0.396417
0.398215
0.399846
0.359064
0.362726
0.3672
0.371938
0.376285
0.379881
0.382642
0.38485
0.386742
0.388358
0.389453
0.389656
0.389556
0.389569
0.389782
0.390165
0.390623
0.391029
0.391285
0.391455
0.391574
0.391614
0.391517
0.391397
0.366928
0.372571
0.378291
0.38325
0.387068
0.389787
0.391755
0.393315
0.394615
0.395369
0.395294
0.394623
0.393745
0.392807
0.39181
0.390732
0.389506
0.388083
0.386585
0.385133
0.383717
0.382298
0.380983
0.370292
0.377041
0.383747
0.389294
0.393274
0.395817
0.397498
0.398709
0.39957
0.399925
0.399428
0.397984
0.39607
0.394002
0.391869
0.389685
0.387412
0.385035
0.382687
0.380462
0.378335
0.376273
0.37436
0.379559
0.386928
0.392919
0.397079
0.39959
0.401144
0.402116
0.402892
0.403184
0.402551
0.400804
0.398453
0.395913
0.393353
0.390786
0.388168
0.38549
0.382877
0.380442
0.378092
0.375792
0.373618
0.379533
0.386881
0.392847
0.396992
0.399499
0.401052
0.402021
0.402787
0.403065
0.402422
0.400666
0.398306
0.395752
0.393177
0.390597
0.387967
0.38528
0.382663
0.380225
0.377873
0.375572
0.373398
0.377003
0.383665
0.389153
0.393078
0.395582
0.39723
0.398383
0.399172
0.399445
0.398881
0.397383
0.395413
0.393291
0.391108
0.388882
0.386575
0.384176
0.381812
0.379576
0.377442
0.375379
0.373468
0.37178
0.372541
0.378229
0.383143
0.386915
0.389601
0.391536
0.393053
0.394281
0.394889
0.394682
0.393892
0.392892
0.391829
0.390713
0.38953
0.388219
0.386731
0.385185
0.383696
0.382255
0.380824
0.379503
0.378383
0.367183
0.371908
0.376238
0.379811
0.382553
0.384729
0.38661
0.388192
0.389169
0.389256
0.389042
0.388925
0.38899
0.389215
0.389526
0.389802
0.389944
0.390021
0.390065
0.390049
0.389918
0.389774
0.389669
0.362008
0.366015
0.370041
0.373693
0.376657
0.379079
0.381181
0.382887
0.383876
0.383826
0.383653
0.383814
0.384382
0.385342
0.38664
0.388118
0.389732
0.391509
0.393426
0.395367
0.39717
0.398801
0.400183
0.361342
0.365299
0.36936
0.372984
0.376063
0.378805
0.380814
0.381793
0.381677
0.381274
0.381089
0.381369
0.382176
0.383556
0.385262
0.387204
0.389364
0.391714
0.394201
0.396764
0.399368
0.401866
0.403991
0.358616
0.362751
0.367532
0.372485
0.376973
0.380818
0.383504
0.384791
0.384849
0.384219
0.3834
0.382759
0.382527
0.382842
0.383741
0.385221
0.387077
0.389276
0.391801
0.394561
0.397563
0.400797
0.404175
0.358812
0.363617
0.369741
0.376939
0.384204
0.390345
0.394274
0.396076
0.396547
0.395749
0.394394
0.393074
0.392168
0.391774
0.392096
0.393368
0.395288
0.39782
0.401006
0.404876
0.409384
0.414358
0.420044
0.363212
0.369201
0.377222
0.38745
0.390228
0.397444
0.403449
0.421062
0.421193
0.419336
0.417062
0.415479
0.414146
0.41332
0.41413
0.416602
0.420339
0.4253
0.431497
0.439004
0.447925
0.458173
0.469482
0.409988
0.426956
0.438957
0.474545
0.473632
0.469796
0.466625
0.463895
0.465212
0.470598
0.478728
0.489513
0.50301
0.517919
0.534165
0.55177
0.570574
0.590693
0.612449
0.448859
0.477698
0.499921
0.523118
0.542333
0.551966
0.661723
0.674163
0.694225
0.719172
0.746159
0.772532
0.796788
0.817811
0.834998
0.848118
0.858522
0.867721
0.877251
0.520557
0.558393
0.568093
0.651688
0.717054
0.761186
1.03644
1.05571
1.07677
1.08882
1.0899
1.08265
1.07054
1.05612
1.04114
1.02717
1.01543
1.00655
1.16954
1.17876
1.09175
1.1001
1.33661
1.31421
1.44658
1.37883
1.31967
1.2656
1.2184
1.17721
1.14047
1.10814
1.07956
1.05435
1.03267
1.35389
1.92742
1.54534
1.29897
1.17676
1.09809
1.04013
0.994134
0.956154
0.923497
0.894334
0.86748
0.842169
0.895873
0.978655
0.875396
0.825421
0.789597
0.761931
0.740884
0.724846
0.712239
0.70069
0.68975
0.679462
0.670028
0.863493
0.777995
0.656514
0.626594
0.60125
0.578898
0.560276
0.544665
0.531707
0.521042
0.512378
0.505506
0.500327
0.363567
0.366229
0.369735
0.373908
0.37841
0.38279
0.386662
0.389771
0.392102
0.393795
0.395023
0.395956
0.396805
0.397661
0.398359
0.367272
0.371512
0.377203
0.383869
0.391094
0.39811
0.404247
0.40896
0.41211
0.414001
0.415116
0.416051
0.417307
0.418656
0.419883
0.371547
0.378157
0.386958
0.397467
0.410238
0.422649
0.432712
0.439981
0.442968
0.44267
0.441606
0.442232
0.443614
0.445388
0.447194
0.448838
0.450033
0.450914
0.451587
0.452112
0.452535
0.452895
0.45323
0.376334
0.386214
0.399456
0.405788
0.428212
0.454118
0.474108
0.503442
0.496739
0.486541
0.475316
0.470496
0.465033
0.464533
0.466006
0.474255
0.477239
0.478967
0.479867
0.480182
0.48008
0.479777
0.479405
0.381204
0.395117
0.402864
0.435593
0.493373
0.542009
0.572473
0.578331
0.566254
0.545593
0.523222
0.505324
0.491177
0.488487
0.489664
0.493906
0.528766
0.52835
0.525504
0.521323
0.516643
0.511907
0.507333
0.385169
0.40365
0.418568
0.481879
0.591535
0.741107
1.01955
1.09856
1.08981
1.07213
1.0502
1.06142
1.05686
0.845086
0.769938
0.709504
0.694146
0.654944
0.624078
0.598362
0.57698
0.559309
0.544733
0.532759
0.385365
0.394076
0.433996
0.500752
0.705091
0.926877
0.839402
0.788724
0.726944
0.692608
0.663344
0.638873
0.618838
0.602463
0.589123
0.578277
0.382881
0.391886
0.43441
0.520894
0.522493
1.14181
1.22982
1.04034
0.935747
0.868068
0.819339
0.782428
0.753442
0.730063
0.710953
0.37698
0.384127
0.417133
0.52069
0.67057
0.638536
1.18887
1.38221
1.25277
1.11723
1.05737
1.02676
0.988282
0.947432
0.906476
0.868477
0.833637
0.370363
0.38119
0.390699
0.431978
0.505673
0.603673
0.675639
0.712061
0.757555
0.763927
0.934328
1.2682
1.29453
1.27623
1.09538
1.07459
1.20012
1.22993
1.21942
1.18
1.13428
1.09034
1.05096
1.01697
0.988142
0.96528
0.362845
0.368799
0.378598
0.387144
0.411203
0.432934
0.446595
0.472154
0.534743
0.606736
0.809818
1.02921
1.09848
1.09876
1.06215
0.958497
0.98192
1.00554
1.0236
1.03337
1.03371
1.02879
1.01891
1.00419
0.988374
0.974613
0.357267
0.360016
0.364853
0.371463
0.378934
0.38668
0.392931
0.414928
0.46335
0.525839
0.56099
0.57875
0.637589
0.622398
0.610305
0.606286
0.607972
0.61357
0.622476
0.634113
0.647677
0.66278
0.679169
0.697175
0.716316
0.734452
0.353604
0.355003
0.357686
0.361694
0.366755
0.372643
0.377209
0.392554
0.417581
0.443035
0.452846
0.450537
0.456036
0.450889
0.447078
0.44642
0.449
0.454664
0.463175
0.474323
0.484332
0.492657
0.500124
0.507485
0.515269
0.352186
0.353222
0.355327
0.358517
0.362771
0.367819
0.371162
0.38152
0.394586
0.406598
0.415413
0.417774
0.417182
0.417167
0.417238
0.417116
0.418133
0.420343
0.423703
0.428121
0.433511
0.439784
0.446867
0.453787
0.459709
0.353098
0.354355
0.356649
0.359974
0.364226
0.368867
0.370995
0.378002
0.385377
0.392263
0.39885
0.402168
0.406143
0.405976
0.405828
0.40578
0.406554
0.408372
0.411296
0.415054
0.41983
0.425347
0.431206
0.436659
0.441947
0.355538
0.357476
0.360525
0.364599
0.369328
0.374565
0.380139
0.384965
0.388343
0.389213
0.392582
0.395278
0.400566
0.402002
0.403245
0.405469
0.408674
0.412669
0.417393
0.422215
0.427198
0.432387
0.437813
0.44346
0.449207
0.358787
0.361761
0.366068
0.371448
0.37715
0.382804
0.387709
0.39121
0.393988
0.396869
0.399778
0.401578
0.40185
0.403128
0.405221
0.407958
0.411034
0.414617
0.418872
0.42392
0.429726
0.435889
0.441828
0.447029
0.451503
0.366516
0.372547
0.379671
0.386831
0.39325
0.398056
0.401133
0.40341
0.405563
0.407681
0.409134
0.409192
0.409246
0.410048
0.411704
0.413991
0.416598
0.4192
0.421484
0.423554
0.425527
0.427236
0.42848
0.379183
0.388765
0.398093
0.40565
0.410624
0.412915
0.414013
0.414622
0.415388
0.415642
0.414752
0.413218
0.411859
0.410717
0.409625
0.408485
0.407157
0.405574
0.404094
0.402849
0.401632
0.40033
0.38461
0.396622
0.408085
0.416455
0.420967
0.421848
0.421848
0.421456
0.42122
0.42075
0.419165
0.416038
0.412593
0.409307
0.406147
0.403042
0.399863
0.396623
0.393639
0.390911
0.388176
0.385441
0.401132
0.414115
0.42323
0.427736
0.428141
0.42763
0.427536
0.428103
0.428306
0.426781
0.42337
0.419481
0.415895
0.412609
0.409496
0.406332
0.403103
0.400193
0.397622
0.394967
0.39215
0.389465
0.401083
0.414017
0.423088
0.427577
0.427985
0.427457
0.427313
0.42781
0.427982
0.426433
0.423006
0.419092
0.415484
0.412182
0.409066
0.405906
0.402683
0.399784
0.39723
0.394597
0.391798
0.389129
0.396566
0.407908
0.416128
0.420513
0.421322
0.421278
0.42084
0.420536
0.419987
0.418347
0.415173
0.411662
0.408316
0.405109
0.401956
0.398726
0.395443
0.392421
0.389654
0.386881
0.384108
0.381577
0.388735
0.397979
0.405418
0.410259
0.41249
0.41356
0.414101
0.414738
0.414808
0.413744
0.412039
0.410482
0.409131
0.40784
0.40653
0.405063
0.403345
0.401729
0.400343
0.39899
0.397564
0.396309
0.395726
0.379668
0.386808
0.393196
0.397962
0.401033
0.40337
0.405463
0.407699
0.408998
0.40887
0.408723
0.409251
0.410547
0.412423
0.41459
0.416726
0.418553
0.42021
0.421851
0.42331
0.42441
0.425415
0.426295
0.371446
0.377122
0.382759
0.387655
0.391125
0.393844
0.39659
0.399342
0.401066
0.401304
0.402578
0.404592
0.40723
0.41018
0.413655
0.417832
0.422817
0.428627
0.434828
0.440835
0.446143
0.450715
0.4543
0.369352
0.374604
0.380203
0.385042
0.388362
0.388739
0.391226
0.393679
0.400215
0.401521
0.402707
0.404817
0.4077
0.411473
0.415968
0.420621
0.425554
0.430807
0.436396
0.442312
0.448381
0.453832
0.457197
0.364253
0.368914
0.371094
0.376899
0.38246
0.38769
0.392939
0.396359
0.405963
0.405595
0.405178
0.404814
0.405095
0.40644
0.408864
0.412258
0.416758
0.421878
0.427787
0.433501
0.439146
0.444621
0.449801
0.362768
0.367821
0.370552
0.378777
0.388288
0.397038
0.404122
0.407179
0.417401
0.417014
0.416801
0.416052
0.41646
0.418232
0.42139
0.425952
0.431606
0.438297
0.446084
0.454633
0.462405
0.469189
0.478052
0.366733
0.37269
0.37596
0.387395
0.405033
0.421954
0.431954
0.432935
0.45566
0.450777
0.447533
0.447414
0.450921
0.458034
0.46856
0.482295
0.494101
0.504087
0.513124
0.522015
0.531271
0.542137
0.555632
0.439515
0.464466
0.48741
0.487254
0.641875
0.625726
0.613468
0.607727
0.607922
0.61259
0.621142
0.632763
0.646466
0.661703
0.678153
0.696288
0.713238
0.731686
0.752131
0.497757
0.55535
0.713347
0.873107
0.885702
0.833932
0.776547
0.825864
0.870184
0.912338
0.944924
0.962915
0.973281
0.975238
0.969237
0.959099
0.948288
0.939
0.932309
0.65156
1.00595
1.07494
1.1797
1.11563
1.03653
0.965518
1.17342
1.18652
1.17468
1.14213
1.1022
1.06178
1.02476
0.9929
0.966723
0.942823
0.912214
0.925572
0.939117
1.00479
1.23311
1.12539
1.45884
1.29251
1.30268
1.21051
1.09264
1.03576
1.00946
0.98293
0.949854
0.914279
0.878823
0.845251
0.813749
0.817175
1.43793
1.70077
1.18635
1.04327
0.952353
0.88747
0.838785
0.800855
0.770424
0.745533
0.725021
0.708156
0.697892
0.833245
0.860468
0.749386
0.714124
0.68392
0.658597
0.637855
0.620958
0.607138
0.59589
0.586872
0.579925
0.92232
0.801953
0.668067
0.633585
0.606302
0.583332
0.5641
0.548153
0.535
0.524226
0.515531
0.508713
0.503675
0.363989
0.366785
0.370465
0.374773
0.379269
0.383459
0.386934
0.389547
0.391431
0.392802
0.393843
0.394745
0.395779
0.396946
0.398043
0.367999
0.372571
0.37874
0.385809
0.393148
0.399892
0.405328
0.408991
0.411145
0.41231
0.412948
0.413724
0.415029
0.416709
0.418408
0.372788
0.380121
0.390041
0.401689
0.414894
0.426494
0.435905
0.440384
0.440845
0.439129
0.436941
0.43707
0.438713
0.441052
0.443409
0.445762
0.447554
0.44898
0.450165
0.451196
0.452139
0.453043
0.453949
0.37841
0.389579
0.405447
0.413113
0.43901
0.464137
0.501801
0.496515
0.487628
0.477216
0.466333
0.456426
0.453601
0.453862
0.456324
0.465468
0.469322
0.473493
0.477304
0.479925
0.481909
0.483574
0.485107
0.384423
0.4001
0.410373
0.455972
0.519447
0.559135
0.5759
0.575294
0.558828
0.538047
0.517582
0.498767
0.487181
0.482681
0.484936
0.487928
0.523784
0.525775
0.525771
0.524431
0.522596
0.52077
0.519192
0.388877
0.397544
0.436111
0.533094
0.686037
0.838399
1.03736
1.02335
0.99813
0.973371
0.941844
0.904199
0.974917
0.895644
0.692027
0.684056
0.646994
0.638654
0.618762
0.601823
0.587359
0.575211
0.565104
0.556759
0.390997
0.402916
0.45595
0.581445
0.852453
0.762289
0.69556
0.665621
0.642632
0.623142
0.606649
0.592675
0.580789
0.570693
0.388485
0.401079