/*--------------------------------*- C++ -*----------------------------------*\
  =========                 |
  \\      /  F ield         | OpenFOAM: The Open Source CFD Toolbox
   \\    /   O peration     | Website:  https://openfoam.org
    \\  /    A nd           | Version:  13
     \\/     M anipulation  |
\*---------------------------------------------------------------------------*/
FoamFile
{
    format      ascii;
    class       volScalarField;
    location    "200";
    object      nut;
}
// * * * * * * * * * * * * * * * * * * * * * * * * * * * * * * * * * * * * * //

dimensions      [0 2 -1 0 0 0 0];

internalField   nonuniform List<scalar> 
169916
(
0.0121357
0.0108744
0.00990779
0.00925784
0.00896362
0.00906038
0.00959538
0.0106016
0.0120628
0.0139824
0.0164595
0.0181813
0.0181734
0.0181644
0.0101843
0.00890732
0.00791855
0.00724183
0.00699537
0.00729839
0.00786399
0.00877285
0.0100785
0.0118313
0.0140558
0.0164858
0.0164815
0.0164747
0.00853006
0.0072512
0.0062545
0.00559503
0.00545303
0.00511626
0.0056813
0.00653503
0.00776781
0.00938468
0.0112907
0.0134564
0.0136097
0.0133258
0.0128094
0.0124697
0.0121849
0.0119043
0.0116145
0.0113184
0.0110081
0.0106342
0.00875867
0.00716052
0.00588943
0.00493615
0.00445465
0.00400838
0.00498788
0.00407657
0.00431275
0.00521015
0.00671199
0.00849742
0.00795353
0.00794581
0.00741517
0.00699898
0.00706382
0.00679267
0.00640876
0.00604178
0.00570337
0.0053971
0.00512405
0.00773801
0.00608365
0.00478668
0.00401145
0.0035592
0.00365316
0.00258751
0.0025998
0.00304801
0.00396122
0.00552233
0.00533183
0.00523697
0.00513739
0.00344196
0.00331719
0.00320355
0.00309695
0.00300219
0.00292166
0.00285631
0.00280618
0.00277083
0.0071336
0.00534143
0.00395191
0.00307556
0.00301252
0.00228722
0.00221623
0.00191831
0.00190205
0.00228941
0.00264727
0.00219958
0.00217678
0.00220736
0.0020955
0.00210177
0.00211637
0.00214558
0.0021905
0.0022461
0.00231198
0.00238735
0.0024714
0.00256325
0.00704793
0.00507482
0.00364148
0.0029386
0.00195705
0.00166142
0.00201582
0.00135916
0.00173756
0.00146787
0.00150198
0.00135638
0.00198372
0.00195701
0.00204673
0.0022629
0.00234707
0.00244522
0.00255458
0.00267258
0.00279865
0.00293207
0.00307252
0.00321875
0.0033645
0.00759751
0.00533774
0.00362862
0.00288438
0.00164388
0.0011293
0.000871768
0.000766398
0.000373757
0.0004133
0.00101144
0.00158886
0.00211921
0.00239257
0.0026432
0.00283185
0.00301643
0.00320221
0.00339171
0.00358609
0.00378463
0.00398583
0.00418783
0.00438843
0.00895721
0.00630268
0.00423979
0.00448587
0.00200705
0.00142739
0.00205337
0.000791607
0.0015415
0.00194851
0.00220783
0.00161264
0.0030592
0.00360285
0.00403505
0.00385662
0.00408751
0.0043192
0.00455108
0.00478194
0.00500981
0.00523307
0.00545032
0.00566038
0.00586236
0.00605575
0.0113212
0.00820761
0.00568796
0.00430213
0.00428471
0.00294176
0.0028706
0.00278073
0.00255155
0.00205937
0.00204384
0.00239162
0.00271471
0.00312069
0.00414675
0.00483025
0.00523394
0.00553211
0.00574327
0.00590525
0.00605017
0.00619624
0.00632983
0.00645449
0.00657001
0.00666999
0.0147263
0.0109679
0.00813975
0.00632957
0.00505987
0.00519234
0.00584923
0.00377076
0.00319175
0.00287877
0.00284407
0.00301331
0.00413988
0.00498649
0.00587657
0.00681762
0.00747389
0.00783149
0.00798261
0.00799814
0.00793852
0.0078522
0.00776594
0.00768689
0.00761016
0.00752491
0.0187963
0.0139919
0.0105666
0.00838377
0.00699011
0.00616644
0.00539267
0.004959
0.00479587
0.00506226
0.00551527
0.00613202
0.00663759
0.00786533
0.00944389
0.0108242
0.0116943
0.0120485
0.0119999
0.0116893
0.0112592
0.0108038
0.0103606
0.00993884
0.00954259
0.0091727
0.0192318
0.0165415
0.0124295
0.00983812
0.00819056
0.00708684
0.00632564
0.00595638
0.00597141
0.0064911
0.00746471
0.00877782
0.0103861
0.0122971
0.014037
0.0152007
0.0157436
0.015769
0.0153804
0.0147298
0.0139732
0.013218
0.0125089
0.0118616
0.0112843
0.0107835
0.019193
0.0181802
0.0136411
0.0108543
0.00911842
0.00800453
0.0073258
0.00703984
0.00723229
0.00798944
0.00947
0.011628
0.0139615
0.0160495
0.017623
0.0184936
0.0185334
0.0184838
0.0176441
0.0166074
0.0155741
0.0146418
0.0138395
0.0131679
0.0126206
0.012182
0.0191816
0.018551
0.0141168
0.0114177
0.0097684
0.00878343
0.00829843
0.00826333
0.00871584
0.00971189
0.0115052
0.0142755
0.0175703
0.018871
0.0188972
0.0189222
0.0189492
0.0189803
0.0190162
0.0177925
0.0166657
0.015757
0.0150511
0.0145308
0.0141631
0.0191928
0.0177066
0.0138563
0.0115074
0.0101272
0.00940797
0.00920244
0.00946086
0.0101493
0.0112692
0.0131055
0.0160069
0.0190901
0.019113
0.019133
0.0191546
0.01918
0.0192102
0.019031
0.0180321
0.0172554
0.0166889
0.0163286
0.0161685
0.0162149
0.019222
0.0161611
0.0130501
0.0111835
0.0101788
0.00980621
0.00994776
0.0105364
0.0114862
0.0127459
0.0145474
0.0172575
0.0192204
0.0192394
0.0192563
0.0192749
0.0192965
0.019321
0.0193477
0.0193752
0.0194021
0.0193037
0.0193788
0.0194678
0.0194813
0.014481
0.0119985
0.0105873
0.00997223
0.00997213
0.0104722
0.0113586
0.0124891
0.0137881
0.0154295
0.0176931
0.0192578
0.0192745
0.0192876
0.0193
0.0193125
0.0193248
0.019336
0.0193453
0.0193526
0.0193582
0.0193619
0.0193641
0.0193656
0.011008
0.00991325
0.00961105
0.0099454
0.0107655
0.0118934
0.0131356
0.014432
0.015902
0.0177839
0.0192212
0.0192326
0.0192372
0.019238
0.0192361
0.0192316
0.0192244
0.0192147
0.019203
0.0191903
0.0191778
0.0191663
0.0191567
0.0102903
0.00938193
0.00925076
0.00981174
0.0108681
0.0121811
0.0135107
0.0147958
0.0161471
0.0178206
0.0191503
0.0191542
0.0191487
0.0191375
0.0191225
0.0191045
0.0190839
0.0190611
0.0190372
0.0190133
0.0189908
0.0189706
0.0189535
0.00909852
0.00904496
0.00971414
0.010894
0.0123122
0.013704
0.0149862
0.0162626
0.0178094
0.0190929
0.019091
0.0190786
0.0190598
0.0190367
0.0190106
0.0189821
0.0189517
0.0189205
0.01889
0.0188612
0.018835
0.0188125
0.00910398
0.00905361
0.00972614
0.0109084
0.0123279
0.0137222
0.0150101
0.016296
0.017856
0.0190952
0.0190931
0.0190806
0.0190616
0.0190385
0.0190123
0.0189837
0.0189533
0.0189221
0.0188914
0.0188625
0.0188362
0.0188137
0.00939477
0.00927163
0.00984231
0.0109078
0.01223
0.0135743
0.0148853
0.0162764
0.018007
0.0191544
0.0191571
0.0191507
0.0191387
0.0191229
0.0191042
0.019083
0.0190599
0.0190356
0.0190115
0.0189889
0.0189685
0.0189514
0.0189386
0.00992927
0.00963549
0.00998034
0.010812
0.011954
0.0132189
0.0145531
0.0160797
0.0180546
0.0192254
0.019235
0.0192379
0.0192372
0.0192338
0.0192281
0.0192198
0.0192092
0.0191969
0.0191839
0.0191711
0.0191594
0.0191497
0.0191432
0.0106016
0.00999417
0.0100034
0.0105168
0.0114238
0.0125876
0.0139343
0.0156296
0.017988
0.0192624
0.0192772
0.0192884
0.019299
0.0193097
0.0193202
0.0193299
0.019338
0.0193443
0.0193491
0.0193524
0.0193543
0.0193557
0.0193573
0.0111936
0.0101959
0.0098318
0.00998712
0.0106006
0.0115906
0.0129066
0.0147823
0.0176011
0.0192271
0.0192443
0.0192595
0.0192765
0.0192965
0.0193196
0.0193451
0.0193718
0.0193982
0.019339
0.019378
0.0194643
0.0194783
0.0194871
0.0101361
0.00942391
0.00923036
0.00950897
0.0102308
0.0113998
0.013298
0.0162828
0.0190981
0.0191195
0.0191382
0.0191586
0.0191829
0.0192122
0.0191971
0.0181544
0.0173476
0.0167597
0.0163827
0.0162054
0.0162342
0.0165049
0.0170614
0.00977343
0.00879656
0.00832192
0.0082968
0.00876274
0.00977942
0.0115844
0.0143455
0.0175974
0.0188801
0.0189063
0.0189312
0.0189581
0.0189889
0.0190246
0.0177588
0.0166339
0.0157273
0.0150226
0.0145023
0.0141296
0.0139337
0.0139536
0.00912409
0.00802143
0.00735421
0.00705499
0.00725494
0.00800595
0.00943293
0.0114767
0.0136526
0.0155785
0.0170396
0.0179508
0.0182514
0.0179543
0.0172175
0.0162812
0.0153285
0.0144553
0.0136936
0.013047
0.0125131
0.0120795
0.0117613
0.00819536
0.00710869
0.00637766
0.00587262
0.00591024
0.00643336
0.0073487
0.00853478
0.00995856
0.0116413
0.0131926
0.0142655
0.0148069
0.0148844
0.0145811
0.0140308
0.0133756
0.0127075
0.0120668
0.0114692
0.0109251
0.0104437
0.01001
0.00478784
0.00504174
0.00545072
0.00598774
0.00640539
0.0074805
0.00883225
0.00999786
0.0107518
0.0110857
0.0110726
0.010821
0.0104537
0.0100536
0.00965657
0.00927428
0.00891314
0.00857553
0.00825905
0.00388581
0.00372746
0.00379807
0.00399651
0.00414501
0.00496414
0.00576094
0.00658681
0.00715712
0.00747378
0.00761422
0.00763705
0.00759396
0.00752606
0.00745674
0.00739319
0.00733231
0.00726566
0.00718087
0.00246295
0.00235973
0.00253403
0.00312654
0.00368829
0.00429452
0.00499094
0.00539564
0.00567647
0.00593681
0.00616628
0.00634613
0.00647284
0.00655419
0.00665901
0.00676974
0.00686361
0.00692829
0.0020952
0.00230185
0.00309691
0.00348228
0.00398783
0.0039003
0.00415352
0.00440368
0.00465008
0.00489183
0.00512731
0.00535509
0.00557403
0.00578326
0.00598223
0.00617071
0.00634885
0.00129682
0.00213362
0.00251171
0.00289085
0.00261392
0.00281522
0.00301496
0.003213
0.003413
0.00361632
0.00382245
0.00402981
0.00423655
0.00444082
0.00464077
0.00483509
0.00138594
0.00205537
0.00220509
0.00227677
0.00235423
0.00244998
0.00255936
0.00267973
0.00280853
0.00294473
0.00308759
0.00323661
0.00339086
0.00354313
0.0036947
0.00206913
0.00207788
0.00209259
0.00212207
0.00216784
0.00222563
0.00229398
0.00237199
0.0024587
0.00255322
0.00265477
0.00276164
0.00287284
0.0119463
0.010688
0.0097447
0.00916552
0.0090179
0.00929631
0.0100119
0.0111427
0.012586
0.0142198
0.015994
0.0179312
0.0180623
0.0180678
0.00989365
0.00860909
0.00763824
0.00712939
0.00724079
0.00763229
0.00830803
0.00931898
0.010624
0.0120686
0.013464
0.0146548
0.015679
0.0160584
0.00812011
0.00681959
0.00587586
0.00561768
0.00515038
0.00543564
0.00612691
0.00717504
0.00847751
0.00972722
0.0106624
0.0110365
0.0107446
0.010748
0.0108694
0.0110935
0.0113326
0.0115267
0.0116848
0.0117911
0.0118315
0.0117993
0.0082427
0.00660868
0.00529753
0.00458075
0.00408295
0.0051337
0.00371203
0.00393368
0.00470842
0.00606779
0.00781725
0.00784815
0.00790254
0.00636609
0.00646983
0.00661728
0.00669686
0.00671423
0.00664422
0.00652297
0.00637074
0.00620358
0.00603312
0.00708234
0.00536423
0.00413725
0.00337554
0.00356112
0.00242014
0.00254982
0.00292188
0.00361356
0.00331422
0.00323749
0.00327293
0.0033753
0.00353195
0.00295156
0.00305337
0.00311228
0.00313486
0.00313969
0.00313118
0.00312072
0.00311279
0.00311008
0.00633986
0.00445432
0.00320885
0.00303429
0.00195014
0.0017038
0.00169525
0.00156254
0.00147628
0.00150796
0.00152618
0.00158729
0.00173023
0.00188079
0.00199391
0.00209316
0.00214443
0.00220232
0.0022688
0.00234298
0.00242604
0.00252036
0.00262617
0.00274255
0.00605753
0.00431651
0.00355776
0.00201292
0.00144065
0.00144277
0.000357238
0.000948598
0.00186945
0.00210416
0.00218857
0.00222774
0.00238084
0.00255197
0.00274117
0.00294492
0.00316003
0.00338267
0.0036088
0.00383378
0.00635887
0.00441735
0.00362443
0.00185445
0.00145178
0.00077859
0.00153484
0.0017103
0.00191708
0.00251146
0.00281302
0.00312842
0.00345036
0.00377705
0.00410057
0.00441453
0.00470403
0.00487811
0.00757424
0.00490122
0.00338404
0.00282997
0.00157044
0.00113399
0.00044824
0.000927961
0.0016698
0.00202778
0.00275214
0.00313164
0.00352753
0.00391927
0.00425261
0.00448203
0.00472267
0.00496626
0.00520361
0.00542383
0.00561696
0.00978585
0.00675189
0.0047684
0.00388765
0.00259607
0.00232936
0.0030018
0.0023762
0.00185335
0.00180273
0.00180602
0.0014149
0.00173355
0.00233702
0.00294166
0.00356245
0.00352553
0.00365735
0.00385626
0.00408572
0.00431974
0.00454763
0.00476631
0.00497275
0.00516326
0.0053313
0.0131474
0.00955809
0.00693232
0.00555824
0.00539072
0.00469632
0.0042664
0.00396849
0.00328168
0.00304714
0.00297649
0.00292007
0.00322705
0.00392381
0.00580538
0.0065122
0.00634931
0.0058594
0.00552504
0.00528903
0.00529462
0.00532817
0.00537539
0.00542982
0.00548284
0.00552511
0.0174738
0.0129143
0.00974522
0.00786876
0.00666618
0.00607321
0.00543884
0.00454267
0.00417429
0.00443366
0.00509092
0.00615046
0.00729237
0.0089935
0.0106627
0.0118205
0.0117773
0.0114357
0.010604
0.00987419
0.00920939
0.00857885
0.00798695
0.0075393
0.00714946
0.00681114
0.0192489
0.0159554
0.0120194
0.00958914
0.00809921
0.00700907
0.00621782
0.00546618
0.00547411
0.00617404
0.00746303
0.00967349
0.0116768
0.0143506
0.0166643
0.0165958
0.0165123
0.0164038
0.0162621
0.0150824
0.0138624
0.0127468
0.011735
0.0108255
0.0100254
0.00933057
0.0192088
0.0178625
0.0134311
0.010703
0.00899185
0.00781579
0.00707599
0.00681022
0.0071463
0.00813118
0.0100838
0.012772
0.0158727
0.0181349
0.0181219
0.0180983
0.0180627
0.0180114
0.0179396
0.0174579
0.0160329
0.0148057
0.0137568
0.0128575
0.0120836
0.0114292
0.0192021
0.0181328
0.013863
0.0112361
0.00959963
0.00857072
0.00811116
0.00810081
0.00856026
0.00955038
0.0116321
0.0151001
0.0187381
0.0187448
0.0187431
0.0187361
0.0187239
0.0187045
0.0186742
0.0180622
0.0167257
0.0156639
0.0148257
0.0141704
0.0135919
0.0192221
0.0169962
0.0134101
0.0112028
0.00989756
0.00921356
0.00902792
0.00935126
0.010044
0.0112023
0.0132475
0.0167974
0.019031
0.0190364
0.0190369
0.0190348
0.0190297
0.0190189
0.0185612
0.0175008
0.0166102
0.0159426
0.0154962
0.0152546
0.0151423
0.0192613
0.0152122
0.0124005
0.0107268
0.00985866
0.00960036
0.00985121
0.0106009
0.0116601
0.0128454
0.0145527
0.0175951
0.0191388
0.0191375
0.0191325
0.0191259
0.0191175
0.0191052
0.0190864
0.0186242
0.0182518
0.018054
0.0180908
0.0183775
0.0187191
0.0134068
0.0112066
0.0099984
0.00956271
0.00975144
0.0104541
0.0115711
0.0128479
0.014077
0.0155482
0.0178429
0.0190704
0.0190545
0.0190331
0.0190084
0.0189803
0.0189474
0.0189086
0.0188635
0.0188131
0.0187577
0.0186977
0.018636
0.0185755
0.0101406
0.00923307
0.00912815
0.00971641
0.0108361
0.0122675
0.0136514
0.0148817
0.0161317
0.0178556
0.0188177
0.0187733
0.0187217
0.0186657
0.018606
0.0185427
0.0184767
0.0184091
0.0183417
0.018275
0.0182117
0.0181541
0.0181047
0.00938067
0.00863271
0.00871231
0.0095513
0.0109762
0.0126756
0.014183
0.0154078
0.0165153
0.0179438
0.0185052
0.0184321
0.0183537
0.0182731
0.018191
0.0181082
0.0180257
0.0179451
0.0178678
0.017795
0.0177281
0.0176692
0.0176206
0.00832973
0.00847792
0.00942325
0.0109969
0.0128496
0.0144968
0.0157318
0.0167189
0.0179278
0.0182511
0.0181512
0.0180494
0.0179482
0.0178476
0.0177485
0.0176515
0.0175587
0.0174716
0.0173903
0.0173159
0.0172507
0.0171975
0.00833562
0.0084877
0.00943731
0.0110127
0.0128633
0.0145104
0.0157511
0.0167475
0.0179677
0.0182576
0.018158
0.0180563
0.0179552
0.0178548
0.0177557
0.0176587
0.0175659
0.0174785
0.0173968
0.0173219
0.0172562
0.0172024
0.00864548
0.00873573
0.00958792
0.0110231
0.0127282
0.0142504
0.0155057
0.0166598
0.0181526
0.0185113
0.0184371
0.0183579
0.0182766
0.0181939
0.0181107
0.0180278
0.017947
0.0178697
0.017797
0.01773
0.0176711
0.0176225
0.0175858
0.00924769
0.00915318
0.00975355
0.0108843
0.012325
0.0137312
0.0150058
0.0163283
0.018166
0.018822
0.0187758
0.0187227
0.0186652
0.0186043
0.0185402
0.0184736
0.0184058
0.0183383
0.0182721
0.0182093
0.0181523
0.0181035
0.0180648
0.0100104
0.00958262
0.00977975
0.0104952
0.0116334
0.0129542
0.0142419
0.0157696
0.0181742
0.0190722
0.0190535
0.0190294
0.019002
0.0189713
0.0189363
0.0188961
0.0188504
0.0188
0.0187457
0.0186874
0.018628
0.0185699
0.0185159
0.0107347
0.0098739
0.0096213
0.00988481
0.0106634
0.0117776
0.01304
0.0148361
0.018018
0.019147
0.0191442
0.0191377
0.0191298
0.0191201
0.0191071
0.0190882
0.0187435
0.0183178
0.0180729
0.0180669
0.0183153
0.0186693
0.0186372
0.00990102
0.00922158
0.00904661
0.00939368
0.0101311
0.011343
0.0134635
0.0171536
0.0190397
0.0190442
0.0190445
0.0190429
0.0190392
0.0190311
0.0188298
0.0177216
0.0167854
0.0160813
0.0156067
0.0153384
0.0151999
0.0152694
0.0156197
0.00959963
0.00857924
0.00813051
0.00812319
0.00860674
0.00962723
0.0117184
0.0151708
0.0187467
0.018754
0.0187531
0.0187471
0.0187363
0.0187194
0.0186929
0.0182132
0.016847
0.0157664
0.0149129
0.014248
0.0136492
0.01321
0.0129703
0.00899514
0.00783678
0.00709856
0.00675225
0.00709824
0.00810219
0.00999992
0.0125355
0.0154147
0.0181246
0.0181139
0.0180915
0.0180567
0.018006
0.0179353
0.0173003
0.0159423
0.014752
0.0137172
0.0128163
0.0120293
0.0113556
0.0107835
0.00809835
0.00704111
0.00617522
0.00567712
0.0053554
0.00607458
0.0073113
0.00942901
0.0111982
0.0135087
0.0159298
0.0165289
0.0164349
0.0162822
0.0152115
0.014087
0.0130136
0.0120143
0.0110903
0.0102448
0.00949024
0.00882696
0.00824111
0.00418156
0.00439558
0.00498787
0.00587393
0.00681749
0.00829932
0.00941258
0.0101553
0.0101028
0.00982263
0.00917905
0.00858558
0.00806578
0.00760297
0.00718991
0.00682507
0.00650912
0.00623599
0.00599528
0.00366333
0.00358046
0.00378575
0.00383974
0.00410401
0.00494247
0.00557107
0.00627545
0.00604637
0.00565778
0.00537823
0.00516428
0.00508431
0.00511333
0.00515711
0.00520988
0.00526401
0.00531105
0.00534168
0.00278392
0.00268228
0.00259209
0.00244562
0.00294618
0.0038555
0.00388309
0.00368366
0.00381606
0.00400901
0.0042225
0.00443297
0.00463326
0.00482338
0.00500217
0.00516664
0.00531196
0.00542899
0.00174699
0.00183652
0.00187957
0.00157739
0.00224733
0.00256168
0.00284192
0.00322065
0.00360987
0.00399039
0.0043482
0.00459847
0.00481615
0.00503354
0.0052442
0.00543895
0.00560844
0.00574217
0.000704163
0.00146632
0.00172954
0.00209297
0.00259008
0.00288696
0.00319347
0.00350351
0.00381794
0.00412858
0.00442948
0.00471658
0.00497495
0.00512314
0.00524634
0.00144829
0.00191266
0.00199573
0.00229043
0.00244483
0.0026112
0.0027973
0.00299945
0.00321318
0.00343379
0.00365779
0.00388191
0.00410268
0.00431795
0.00185847
0.00206543
0.00212401
0.00218966
0.00226175
0.00233841
0.00242501
0.00252355
0.0026338
0.0027545
0.00288401
0.00302061
0.00316307
0.0132264
0.011661
0.010424
0.00956494
0.00920266
0.00930421
0.00985418
0.0108467
0.0121611
0.0135203
0.014658
0.0154872
0.0160604
0.0166594
0.0174235
0.0110558
0.00945166
0.00817834
0.00737994
0.00732803
0.0076061
0.00816806
0.00907515
0.0103518
0.0116969
0.0126403
0.0128472
0.0126203
0.0125631
0.0128284
0.0091384
0.00750552
0.00624779
0.00578826
0.00520692
0.0053329
0.00598615
0.00705453
0.00853336
0.0100603
0.0108244
0.0105159
0.00980096
0.00911736
0.00868899
0.00910547
0.00956603
0.00998524
0.0103664
0.010715
0.0110237
0.0112808
0.0114795
0.0074917
0.00583106
0.00479487
0.00411529
0.00475992
0.00360261
0.00385168
0.00472578
0.00633104
0.0071059
0.00691442
0.0069275
0.00706192
0.00660467
0.0052861
0.00577036
0.00622835
0.00667956
0.00680955
0.00690265
0.00696843
0.00701004
0.00703063
0.00618694
0.00452268
0.00349585
0.00349185
0.00224992
0.00241147
0.0027935
0.0031987
0.00282473
0.00269404
0.00269352
0.00275221
0.00289696
0.00313751
0.00339398
0.003188
0.00334651
0.00347483
0.00357512
0.00365268
0.00371351
0.00376263
0.00380405
0.00531009
0.00377388
0.00331395
0.00186709
0.0014018
0.00132132
0.00142883
0.000691734
0.001544
0.00153859
0.00168017
0.00194276
0.00191118
0.00197798
0.00217184
0.00229924
0.00231134
0.00239955
0.00248039
0.00255621
0.00263256
0.00271058
0.00279137
0.00287549
0.00483871
0.00338621
0.00255128
0.00146772
0.0010785
0.00038588
0.00163237
0.00196376
0.00219342
0.00237005
0.00253855
0.00270252
0.00286524
0.00302763
0.00318875
0.00334699
0.00349776
0.0049557
0.00349122
0.00242321
0.00139807
0.000735339
0.00133023
0.00251186
0.00416022
0.00427003
0.00448654
0.00472292
0.00494232
0.005139
0.00531451
0.0054696
0.00560506
0.00596715
0.00409435
0.00309028
0.00153605
0.000991643
0.000562066
0.00231545
0.00330706
0.00445913
0.00489958
0.0052556
0.00554198
0.00578025
0.0059815
0.00615429
0.00630621
0.00644558
0.00657856
0.00813267
0.00509352
0.00367525
0.00276996
0.00214332
0.00198547
0.0016184
0.000975926
0.000858584
0.00180851
0.00121667
0.00163151
0.00162747
0.00165744
0.00271503
0.0033482
0.00381091
0.00429167
0.00473718
0.00512444
0.00545432
0.0057324
0.00596924
0.00617522
0.00636356
0.00654058
0.0112915
0.00801957
0.00567812
0.00480451
0.00437657
0.00511794
0.00586044
0.00377369
0.00268882
0.00324615
0.00352838
0.00325031
0.00313453
0.00351988
0.00376306
0.00397829
0.00422647
0.00449207
0.00476197
0.00502615
0.00527603
0.00541175
0.00554836
0.00568026
0.00580397
0.00591374
0.0156627
0.0114862
0.00868182
0.00730315
0.00659457
0.00625069
0.00553302
0.00468672
0.00308387
0.00331033
0.00426326
0.00690133
0.0070452
0.00681636
0.00669757
0.00661753
0.0065289
0.00643631
0.00619257
0.00551518
0.00504414
0.00469844
0.00455462
0.00458638
0.00463594
0.00469511
0.0192831
0.0149331
0.011316
0.00913953
0.00794756
0.00686559
0.00605747
0.00550333
0.00417172
0.00441365
0.00602005
0.00940748
0.0131389
0.0127551
0.0124645
0.0121908
0.0118801
0.0115067
0.0110875
0.0106361
0.0101251
0.00899619
0.00800756
0.00715228
0.0064362
0.0192434
0.0170587
0.0129009
0.0103227
0.00866522
0.00747397
0.00638425
0.0057479
0.00592595
0.00670399
0.00870271
0.0126087
0.0167399
0.0164386
0.0161324
0.0158015
0.0154298
0.0150026
0.0145202
0.0139898
0.0128647
0.0116774
0.01065
0.00973286
0.00891182
0.0192475
0.0170605
0.0131764
0.0107354
0.00914344
0.00820863
0.00737037
0.00738047
0.00798375
0.00877155
0.0106514
0.015021
0.0181846
0.0180225
0.0178309
0.017602
0.0173232
0.0169825
0.0165735
0.0157669
0.0144435
0.0133896
0.012515
0.0118583
0.0111878
0.0192844
0.0154673
0.0123814
0.010456
0.00930567
0.00875233
0.00865674
0.00936724
0.010265
0.0106459
0.012417
0.0168959
0.018718
0.0186065
0.0184556
0.0182565
0.0179977
0.0173666
0.0159607
0.0151519
0.0144085
0.0138498
0.0134468
0.0131643
0.0128183
0.016903
0.013376
0.0110658
0.00971962
0.00910457
0.00915062
0.00972388
0.0109397
0.0121705
0.0130887
0.0145656
0.0182512
0.0187106
0.0186146
0.0184859
0.0183252
0.01813
0.0176487
0.016943
0.0165973
0.0162146
0.0159581
0.0159096
0.0157147
0.0153121
0.0114904
0.00969483
0.00880884
0.00866569
0.00931004
0.0105552
0.0123084
0.0138635
0.0148723
0.015881
0.0183248
0.0182438
0.0181113
0.0179655
0.0178035
0.0176203
0.0174127
0.0171825
0.0169386
0.0166883
0.0164287
0.016163
0.0159091
0.0156685
0.00855901
0.00791882
0.00811514
0.009127
0.010886
0.0131624
0.0150928
0.016148
0.0167973
0.0174086
0.0172147
0.0170162
0.0168188
0.0166218
0.016424
0.0162255
0.0160285
0.0158412
0.0156644
0.0154961
0.0153381
0.0151987
0.0150815
0.00780779
0.00728084
0.00764731
0.00892591
0.0111254
0.013883
0.0160822
0.0169466
0.0166898
0.016426
0.0161662
0.0159232
0.0157052
0.0155033
0.0153124
0.0151307
0.0149597
0.0148057
0.0146697
0.0145448
0.014432
0.0143377
0.0142648
0.00697199
0.00737796
0.00875095
0.0111508
0.0141397
0.0164585
0.0163029
0.0159487
0.0155857
0.0152438
0.0149445
0.0146937
0.0144718
0.0142693
0.0140818
0.0139099
0.01376
0.0136302
0.013513
0.0134084
0.0133235
0.0132612
0.00697824
0.00738958
0.00876821
0.0111664
0.0141398
0.0164469
0.0163168
0.0159635
0.015601
0.0152593
0.0149599
0.0147088
0.0144866
0.0142835
0.0140953
0.0139227
0.0137713
0.0136397
0.0135207
0.0134143
0.0133277
0.0132638
0.00729311
0.00767703
0.00897582
0.0111942
0.0139471
0.0161567
0.0169497
0.0166906
0.0164246
0.0161628
0.0159184
0.0156994
0.0154967
0.0153052
0.0151229
0.0149518
0.0147985
0.014663
0.0145388
0.0144265
0.014333
0.014261
0.0142071
0.00793093
0.00814282
0.00917118
0.0109437
0.0132094
0.0151599
0.0162591
0.0170424
0.0174061
0.0172102
0.0170103
0.0168122
0.0166148
0.0164175
0.0162201
0.016025
0.0158403
0.015667
0.0155024
0.0153482
0.0152127
0.0150996
0.0150057
0.00881616
0.00868133
0.00933392
0.0105919
0.0123604
0.0139807
0.0148859
0.0160272
0.0183407
0.0182169
0.0180783
0.0179277
0.0177623
0.0175787
0.0173741
0.0171506
0.0169167
0.016679
0.0164347
0.0161869
0.0159489
0.0157217
0.0155091
0.00972538
0.00911771
0.00916408
0.00974775
0.0109946
0.0123085
0.0133338
0.0148873
0.0187248
0.0187298
0.0186343
0.018506
0.018346
0.0181528
0.0178589
0.0170717
0.0166912
0.016266
0.0159784
0.0159049
0.0157533
0.0153517
0.0149742
0.00930229
0.00874727
0.00865998
0.00939471
0.0103611
0.0108448
0.012701
0.0173487
0.0187425
0.0186443
0.0185104
0.0183321
0.0180991
0.0178019
0.0162818
0.0154507
0.0146742
0.0141023
0.0136918
0.0134075
0.0130579
0.0129355
0.0131113
0.00913804
0.00821206
0.00738381
0.00735063
0.00799384
0.00886266
0.0107882
0.0151255
0.0182111
0.0180634
0.0178877
0.0176768
0.0174193
0.0171027
0.0167188
0.0162673
0.0148789
0.0137603
0.0128409
0.01216
0.0114486
0.0109419
0.0105817
0.00866496
0.00750848
0.0063399
0.00585607
0.00584552
0.00666208
0.00866319
0.0124419
0.0167316
0.0164338
0.0161304
0.0158027
0.0154356
0.0150159
0.0145421
0.0140225
0.012731
0.0115515
0.0105318
0.00963808
0.00887238
0.00822925
0.00769543
0.00791751
0.0069045
0.00552836
0.00473587
0.00642345
0.00648496
0.00771835
0.00887657
0.0131324
0.0127016
0.0123642
0.0120513
0.0117094
0.0113215
0.0108994
0.0102142
0.00906499
0.00810532
0.00726528
0.00652958
0.00589421
0.00547937
0.00521963
0.00360928
0.00389708
0.00534399
0.00636504
0.00666844
0.00637756
0.00622158
0.00611868
0.00604547
0.00567667
0.00502488
0.0046233
0.00431463
0.00432895
0.00437102
0.00443076
0.00450287
0.00458106
0.00465537
0.0028153
0.00316547
0.00358024
0.0040515
0.00455578
0.00470536
0.00361914
0.00379974
0.00401927
0.00426272
0.00451718
0.00477178
0.00502015
0.00525711
0.00546253
0.00558777
0.00570696
0.00581479
0.00590305
0.00302774
0.00277229
0.00277553
0.00250024
0.0029294
0.00314607
0.00359854
0.00398265
0.00438167
0.00475509
0.00508521
0.00537108
0.00561933
0.00583757
0.006033
0.00621369
0.00638718
0.00655936
0.000559072
0.00117057
0.00152412
0.001365
0.00269232
0.00333997
0.004697
0.00507232
0.00538064
0.00563016
0.00584068
0.00602335
0.00618384
0.00632993
0.00646606
0.00659646
0.00672654
0.00223025
0.00440322
0.00477397
0.00478954
0.00493567
0.00511099
0.00527322
0.00542062
0.00555532
0.00567824
0.00578981
0.00589061
0.00598134
0.00136808
0.00200236
0.00234309
0.00253555
0.00272209
0.00290288
0.00308098
0.00325724
0.00343041
0.00359517
0.00375049
0.00389691
0.00403587
0.00165201
0.00188831
0.00225083
0.00234419
0.00242965
0.00250912
0.00258858
0.00266934
0.00275265
0.00283913
0.00292907
0.00302263
0.00312002
0.0129446
0.011371
0.0101853
0.0095402
0.00940316
0.0097693
0.0106193
0.0119634
0.0134726
0.0146524
0.015204
0.0150999
0.0146133
0.0143116
0.014489
0.0106248
0.0089922
0.00783502
0.00748567
0.00757875
0.00800876
0.00875618
0.0101604
0.0119349
0.0132978
0.0137432
0.0130292
0.0118098
0.0110476
0.0109861
0.00856601
0.00690285
0.00609762
0.00530043
0.0051436
0.00560817
0.0065862
0.00892104
0.0112369
0.0109007
0.0108923
0.0102739
0.00856025
0.00778315
0.00761987
0.00780434
0.00839602
0.00894376
0.00942187
0.00984281
0.0102074
0.010511
0.0107536
0.00681059
0.00528448
0.00436992
0.00476323
0.0034449
0.00355526
0.0044652
0.00580524
0.00554543
0.00544722
0.00543201
0.00550005
0.00573852
0.00559767
0.00525834
0.00507361
0.00605778
0.00657936
0.0070398
0.00733625
0.00749739
0.00764012
0.00776719
0.00544641
0.00412118
0.00389556
0.00231516
0.00217811
0.00238203
0.00304377
0.00296798
0.00281578
0.00275567
0.00276944
0.00285584
0.00301814
0.00321782
0.00335987
0.00399826
0.00393376
0.00413234
0.00430336
0.00445231
0.00458471
0.00470466
0.004815
0.0044268
0.00308078
0.00244166
0.0015014
0.00109743
0.00151834
0.00185066
0.00207357
0.00141295
0.0013902
0.00122994
0.0016785
0.00193008
0.00213255
0.0019952
0.00252313
0.00255429
0.0027066
0.00284359
0.00296791
0.00308508
0.00319888
0.00331147
0.00342421
0.00445471
0.00335187
0.00169482
0.00119866
0.000193181
0.000985412
0.00167167
0.00204845
0.00234155
0.00251042
0.00266058
0.00280013
0.00293431
0.00306556
0.00319546
0.00332487
0.00464962
0.00330045
0.0016306
0.00102597
0.000271288
0.00252379
0.00327646
0.00359866
0.00360113
0.0036405
0.00369894
0.0037699
0.0038499
0.00393719
0.0040312
0.00547977
0.0039051
0.00198518
0.00116463
0.000498474
0.00186557
0.00425904
0.00532311
0.00537833
0.00526154
0.00527853
0.00535029
0.0053773
0.00537607
0.00535473
0.00532976
0.00530684
0.00652737
0.00455552
0.00324416
0.00206123
0.00173975
0.0017091
0.000669245
0.00138206
0.00121338
0.0012463
0.00104162
0.00135484
0.00174833
0.00178536
0.00283591
0.00330868
0.00437294
0.00484682
0.00516695
0.00536098
0.00549665
0.00560703
0.00570905
0.00581214
0.00591891
0.00603509
0.0097603
0.00664267
0.00510473
0.004017
0.00389646
0.00656092
0.00543948
0.00259794
0.00168617
0.00243113
0.00197738
0.00231399
0.00258318
0.00283998
0.00307036
0.00340077
0.00373885
0.00408249
0.00440949
0.00470689
0.00496733
0.00519948
0.00540224
0.00557431
0.00572812
0.00587744
0.0139711
0.0101556
0.00779227
0.00678311
0.00677721
0.00699875
0.00553537
0.00276974
0.00174117
0.00200598
0.00265177
0.00257162
0.00255922
0.00267434
0.00281609
0.00298343
0.00316146
0.00334027
0.00351672
0.00369118
0.00386506
0.00404041
0.00421884
0.00440466
0.00459887
0.00479443
0.0186216
0.0136571
0.0104581
0.00875861
0.00787654
0.00727451
0.00572484
0.00327944
0.00264009
0.00333807
0.00791725
0.00709814
0.00496793
0.00487797
0.00484932
0.00484763
0.00484979
0.00484799
0.00484259
0.00483736
0.00481634
0.00478158
0.00474192
0.00470418
0.004674
0.0193058
0.0156657
0.0119957
0.00974964
0.00830993
0.00748212
0.00620065
0.0043136
0.00433835
0.00479429
0.00633273
0.0123398
0.00967192
0.00900623
0.00850791
0.00809747
0.00773284
0.00739439
0.00707878
0.00678603
0.00651783
0.0062785
0.00603324
0.00587884
0.0057034
0.019328
0.0152521
0.0119763
0.00988732
0.0085095
0.00794604
0.00775846
0.00574644
0.00630745
0.00644458
0.00693755
0.0114917
0.0142132
0.013364
0.0125939
0.0118616
0.0111442
0.010444
0.00977421
0.0091539
0.00858691
0.00808689
0.00765166
0.00703552
0.0063951
0.0168733
0.0132868
0.0108298
0.00929693
0.00852203
0.00773452
0.00742903
0.0084373
0.0109699
0.0112095
0.00907003
0.0122731
0.0165564
0.0156054
0.0146401
0.0136751
0.0127137
0.0117851
0.0109124
0.00999745
0.00911415
0.00857377
0.00821011
0.00784036
0.00748053
0.0138137
0.0110919
0.00929313
0.00833926
0.0082445
0.00801213
0.00888704
0.0112558
0.0142389
0.013199
0.012832
0.01667
0.0170699
0.0163656
0.015571
0.0144541
0.0131317
0.0124883
0.0121453
0.011863
0.0112886
0.0106206
0.0100066
0.00947999
0.00903804
0.00925265
0.00784461
0.00741778
0.00778907
0.00807711
0.00995477
0.0133564
0.0169886
0.0161314
0.0152597
0.0162011
0.015852
0.0154726
0.0150485
0.0145646
0.0140093
0.0133956
0.0127626
0.0121669
0.0116274
0.0111291
0.0106708
0.0102923
0.00671312
0.00650224
0.00722281
0.00877031
0.0118196
0.015608
0.0151739
0.0147779