/*--------------------------------*- C++ -*----------------------------------*\
  =========                 |
  \\      /  F ield         | OpenFOAM: The Open Source CFD Toolbox
   \\    /   O peration     | Website:  https://openfoam.org
    \\  /    A nd           | Version:  13
     \\/     M anipulation  |
\*---------------------------------------------------------------------------*/
FoamFile
{
    format      ascii;
    class       volScalarField;
    location    "200";
    object      omega;
}
// * * * * * * * * * * * * * * * * * * * * * * * * * * * * * * * * * * * * * //

dimensions      [0 0 -1 0 0 0 0];

internalField   nonuniform List<scalar> 
169916
(
18.8096
18.9984
19.2724
19.6389
20.0812
20.5515
20.9941
21.3643
21.6387
21.8138
21.9
21.9164
21.8815
21.8171
19.0706
19.4187
19.9448
20.684
21.5974
22.5522
23.4653
24.2553
24.8524
25.2332
25.4228
25.4731
25.4421
25.3946
19.4098
20.0141
20.9868
22.4248
24.2416
26.1431
28.1283
30.0221
31.4977
32.4118
32.8347
33.0171
33.095
33.222
33.5473
34.1242
34.9866
36.1558
37.6345
39.4018
41.4199
43.642
19.2642
19.8255
20.8275
22.5475
25.1702
28.664
29.6458
33.6728
38.8704
43.4575
46.503
48.0833
63.4075
63.2939
64.9023
67.5781
71.134
75.3966
80.0812
84.9089
89.5896
93.8766
97.6351
19.465
20.2747
21.8558
24.7086
29.3001
31.3961
40.8774
57.6815
77.1964
93.5275
102.556
105.877
107.292
109.314
164.562
171.138
176.758
180.178
181.382
180.534
177.975
174.112
169.337
19.5807
20.6368
22.9192
27.4784
30.0937
43.0238
67.1153
131.618
162.962
229.73
265.581
320.731
318.245
326.217
382.747
345.41
311.514
282.068
256.943
235.119
216.286
200.051
186.022
173.847
19.5352
20.6961
23.3536
25.5788
36.6819
68.8657
105.525
272.477
462.638
677.049
735.59
824.773
662.32
511.89
431.084
345.745
297.745
261.829
233.772
211.239
192.849
177.625
164.897
154.122
144.641
19.309
20.3382
22.9735
25.3208
40.5583
94.0653
186.11
782.625
1041.83
962.984
756.713
632.462
428.805
331.225
254.57
224.037
199.801
180.488
165.302
153.151
143.228
134.985
128.039
122.113
18.9768
19.672
21.5712
22.5257
31.4477
59.8094
93.9884
241.986
332.252
347.255
339.466
266.766
218.631
176.689
153.061
161.117
149.516
140.043
132.27
125.775
120.26
115.53
111.446
107.905
104.834
102.187
18.6589
19.0058
19.929
21.7626
22.7024
27.5429
36.6315
48.9736
58.9845
70.5595
80.3714
83.6595
84.3403
82.8548
84.71
84.151
83.1207
82.0383
81.022
80.095
79.2621
78.525
77.8934
77.375
76.978
76.717
18.4259
18.563
18.924
19.634
20.8744
22.2562
22.9862
25.7701
29.2068
33.1137
36.9629
40.0296
40.618
41.2516
41.8099
41.9546
41.9668
42.0081
42.1525
42.4329
42.857
43.416
44.0963
44.8864
45.7826
46.7919
18.2773
18.3167
18.4734
18.8003
19.3578
20.1452
21.1658
22.3891
23.6909
24.8503
25.7602
26.4163
26.9014
27.1327
27.1812
27.144
27.0869
27.0501
27.0582
27.1284
27.273
27.5011
27.8218
28.2449
28.7803
29.4386
18.1885
18.1858
18.2643
18.4566
18.7902
19.2821
19.933
20.6819
21.4135
21.991
22.3768
22.5945
22.6855
22.6883
22.643
22.5777
22.5109
22.455
22.4205
22.415
22.445
22.5166
22.6354
22.8072
23.0385
23.3356
18.1416
18.1218
18.1679
18.3009
18.5349
18.8724
19.2988
19.77
20.2054
20.5291
20.7193
20.7976
20.8069
20.778
20.7294
20.6726
20.6162
20.5681
20.5346
20.521
20.5309
20.5671
20.6319
20.7272
20.8546
21.0143
18.1265
18.1044
18.141
18.2503
18.4361
18.69
18.9871
19.2876
19.5457
19.728
19.8264
19.8528
19.8345
19.7939
19.7441
19.6932
19.6473
19.6112
19.5883
19.5804
19.5887
19.6138
19.6557
19.7138
19.7867
18.1376
18.1245
18.1676
18.2749
18.4413
18.6484
18.8685
19.0709
19.233
19.3443
19.4015
19.4093
19.3845
19.3446
19.3013
19.2614
19.2287
19.2055
19.1927
19.1903
19.198
19.2153
19.2411
19.2738
19.3107
18.1703
18.176
18.2392
18.3614
18.5285
18.7146
18.8911
19.037
19.1443
19.2142
19.2477
19.2475
19.2235
19.1885
19.1525
19.1203
19.0942
19.0744
19.0604
19.051
19.0454
19.0428
19.0422
19.0424
19.0435
18.2514
18.3466
18.4979
18.6807
18.8625
19.0174
19.1343
19.215
19.2658
19.2902
19.2905
19.2721
19.2436
19.2129
19.1837
19.157
19.1325
19.109
19.0851
19.0605
19.0354
19.01
18.9843
18.9585
18.4719
18.6619
18.8711
19.0601
19.2071
19.3109
19.3805
19.4244
19.4477
19.4522
19.4405
19.4169
19.3872
19.3549
19.3215
19.2871
19.251
19.2128
19.173
19.1327
19.0929
19.0534
19.0145
18.5834
18.8106
19.049
19.2511
19.3989
19.4987
19.5647
19.6074
19.6325
19.6417
19.6348
19.6129
19.5805
19.5422
19.501
19.4577
19.4125
19.3654
19.3172
19.2694
19.2229
19.1777
19.134
18.9012
19.1581
19.3696
19.5199
19.6192
19.6846
19.7279
19.7555
19.7691
19.7667
19.7477
19.7157
19.6764
19.6332
19.5878
19.5404
19.4913
19.4413
19.392
19.3444
19.2987
19.2551
18.9002
19.1564
19.3671
19.5166
19.6154
19.6802
19.7231
19.7502
19.7632
19.7604
19.7409
19.7085
19.6688
19.6254
19.5797
19.5321
19.4827
19.4327
19.3835
19.336
19.2904
19.2469
18.8088
19.0456
19.2459
19.3919
19.4903
19.5549
19.5962
19.6198
19.6274
19.6189
19.5957
19.5621
19.5228
19.4806
19.4366
19.3907
19.3432
19.2948
19.2469
19.2003
19.1552
19.1117
19.0704
18.66
18.8677
19.0547
19.1998
19.3017
19.3695
19.4115
19.4327
19.435
19.421
19.3954
19.3638
19.3297
19.2947
19.2588
19.2216
19.1826
19.1421
19.1014
19.0614
19.0218
18.983
18.9454
18.4964
18.678
18.8582
19.011
19.1256
19.2038
19.2519
19.2738
19.2717
19.251
19.2206
19.188
19.1571
19.1287
19.1027
19.0778
19.0529
19.0275
19.0018
18.9761
18.9501
18.924
18.8983
18.3604
18.5266
18.7112
18.8855
19.0285
19.1322
19.1981
19.2279
19.2247
19.1981
19.1611
19.1233
19.0895
19.0618
19.0405
19.0252
19.0149
19.0084
19.005
19.0039
19.0035
19.004
19.0046
18.4401
18.6461
18.8641
19.0633
19.2211
19.3277
19.3806
19.3851
19.3579
19.3161
19.2712
19.2297
19.1954
19.1705
19.1562
19.1521
19.1579
19.1731
19.1967
19.227
19.2613
19.3001
19.3411
18.435
18.6876
18.9822
19.2793
19.5335
19.7117
19.8072
19.8323
19.8136
19.773
19.7231
19.6722
19.6261
19.5896
19.5661
19.5575
19.5649
19.5888
19.6292
19.6855
19.7566
19.838
19.936
18.5333
18.8686
19.2905
19.7597
20.193
20.5156
20.7087
20.7923
20.8074
20.7838
20.7396
20.6865
20.6334
20.588
20.5569
20.5454
20.557
20.5948
20.661
20.7578
20.887
21.0493
21.2348
18.7878
19.2757
19.9159
20.6867
21.4342
22.0235
22.4236
22.6591
22.7676
22.7851
22.7511
22.6949
22.6362
22.5889
22.5633
22.5681
22.6103
22.6962
22.8321
23.0247
23.2814
23.61
24.0192
23.6774
24.8428
25.7769
26.4818
27.0285
27.32
27.421
27.43
27.4168
27.4256
27.4846
27.6141
27.8285
28.1389
28.5553
29.0883
29.7492
30.5499
31.5049
26.1702
28.4798
30.5218
32.0311
40.2333
40.846
41.4695
41.7287
41.8753
42.0575
42.3428
42.7605
43.3171
44.0031
44.8034
45.7065
46.7079
47.8133
49.0416
45.8182
51.7297
55.5947
56.5673
55.8028
81.3723
80.4626
79.3256
78.2775
77.3358
76.4888
75.7417
75.1079
74.5991
74.2021
73.9156
73.7507
73.7286
106.398
157.969
137.106
123.136
113.751
158.35
146.226
136.425
128.44
121.806
116.192
111.387
107.246
103.659
100.547
97.8588
95.567
352.252
384.666
294.367
231.954
259.134
227.028
201.808
181.567
165.484
152.619
142.141
133.462
126.171
119.974
114.657
110.069
841.505
578.16
459.653
351.408
301.584
264.566
235.743
212.699
193.853
178.218
165.108
154.032
144.603
136.223
128.815
385.994
347.795
313.02
282.944
257.398
235.369
216.375
200.007
185.861
173.584
162.872
153.429
145.035
18.834
19.0417
19.3465
19.7512
20.2215
20.708
21.159
21.5339
21.8116
21.9889
22.0743
22.0864
22.0542
22.0095
19.13
19.5353
20.1643
21.03
22.025
23.0967
24.1462
25.0464
25.7067
26.1006
26.2579
26.2621
26.2398
26.1877
19.5454
20.31
21.5868
23.4127
25.529
28.1915
31.0547
33.5561
35.2921
36.1517
36.3144
36.315
36.269
36.1818
36.0999
36.0499
36.0501
36.1506
36.5036
37.0527
37.7755
38.6513
19.3869
20.1154
21.5246
24.0308
27.9851
29.2051
35.2913
44.2249
53.1485
59.394
62.2752
62.4196
61.7219
76.9961
75.4128
74.1679
73.306
73.1446
73.9187
75.2081
76.8191
78.6035
80.4566
19.6774
20.8396
23.2773
28.1309
30.6382
45.6629
78.3875
124.851
156.191
168.197
166.774
159.761
151.382
142.625
173.584
167.314
163.643
162.115
161.174
160.016
158.534
156.618
154.266
19.8971
21.5633
25.348
27.9637
45.4036
100.969
193.515
455.271
523.291
508.377
497.142
428.403
364.307
360.809
328.519
344.102
316.196
291.251
268.987
249.037
231.282
215.673
202.002
190.02
19.9313
21.7415
23.2281
32.9561
71.7961
172.583
1013.92
961.871
667.605
509.364
430.635
358.913
316.679
284.307
258.814
238.146
221.066
206.725
194.525
184.032
19.6957
21.4052
22.8999
34.498
64.1474
363.739
659.993
505.518
412.732
342.976
306.058
277.621
254.616
235.434
219.348
205.769
194.243
184.431
19.2417
20.5421
23.9104
27.1401
54.6523
160.658
1014.55
896.14
573.659
412.962
320.062
281.882
253.723
231.971
214.581
200.388
188.633
178.768
170.401
163.257
157.148
18.8037
19.4059
20.9175
22.1456
28.5626
45.835
87.2031
230.311
306.158
312.41
302.116
283.969
221.046
204.587
192.817
177.637
171.432
165.598
160.149
155.05
150.314
145.973
142.038
138.51
135.387
132.678
18.4952
18.7187
19.2894
20.3486
21.0632
23.5967
27.8573
33.7358
40.6392
47.4605
54.4544
61.2343
66.6672
69.849
75.0526
75.9761
76.6017
77.4458
78.62
80.1116
81.71
83.3314
84.9242
86.4657
87.9694
89.4803
18.3097
18.3766
18.5869
19.0048
19.6611
20.5282
21.6966
23.4043
25.681
27.894
29.6949
31.6688
33.024
33.7768
34.254
34.5889
34.9377
35.4036
36.0646
36.9558
38.1041
39.5229
41.2247
43.2007
45.4391
47.9246
18.2067
18.2125
18.3064
18.5228
18.8845
19.4192
20.1434
21.101
22.1155
22.9169
23.4294
23.802
24.041
24.1623
24.2203
24.2612
24.3262
24.4471
24.6495
24.951
25.372
25.9272
26.6352
27.5161
28.5889
29.8721
18.1575
18.1418
18.1946
18.3381
18.5892
18.9609
19.4482
20.0041
20.5237
20.9128
21.1292
21.2261
21.2595
21.2575
21.2408
21.227
21.2325
21.2721
21.3601
21.5072
21.7214
22.0127
22.3901
22.862
23.4352
24.1048
18.1475
18.1309
18.1755
18.2964
18.4996
18.7819
19.1144
19.455
19.754
19.9752
20.0923
20.125
20.1116
20.0788
20.0429
20.0156
20.0067
20.0251
20.0787
20.173
20.312
20.5005
20.7416
21.0355
21.3791
18.1689
18.1662
18.2241
18.3509
18.5411
18.7756
19.0253
19.2532
19.4391
19.5711
19.642
19.6563
19.6376
19.6082
19.5833
19.5722
19.5814
19.6158
19.6783
19.7717
19.8986
20.0606
20.257
20.4827
20.732
18.2159
18.2403
18.3301
18.4857
18.6893
18.9099
19.1147
19.2797
19.4026
19.4917
19.5472
19.5662
19.5589
19.5439
19.535
19.5389
19.5588
19.5957
19.6493
19.7188
19.8041
19.9055
20.0209
20.1462
20.2785
18.345
18.4841
18.6897
18.9287
19.1586
19.3498
19.4928
19.5974
19.6769
19.7354
19.7715
19.7879
19.7965
19.8074
19.8256
19.8522
19.8863
19.9254
19.9666
20.0089
20.0533
20.0996
20.1447
20.1878
18.6636
18.9369
19.2313
19.4917
19.6946
19.8454
19.9625
20.0594
20.1423
20.2096
20.2587
20.2934
20.3212
20.347
20.3723
20.3966
20.4182
20.4343
20.4456
20.4551
20.4621
20.4644
20.4611
18.8273
19.1697
19.5263
19.8292
20.0581
20.2287
20.367
20.4884
20.5992
20.6976
20.7761
20.8299
20.8639
20.887
20.9044
20.9173
20.9249
20.9253
20.9197
20.9111
20.8998
20.8835
20.8613
19.3104
19.7095
20.0453
20.2981
20.489
20.6477
20.7917
20.9304
21.0625
21.1747
21.2555
21.3072
21.3421
21.368
21.3871
21.3991
21.4021
21.3974
21.3888
21.3771
21.3592
21.3338
19.3088
19.7065
20.0406
20.2919
20.4818
20.6395
20.7825
20.9201
21.051
21.1621
21.2419
21.2929
21.327
21.3523
21.3708
21.3824
21.385
21.3805
21.3723
21.361
21.3437
21.319
19.1671
19.5212
19.821
20.0472
20.2159
20.3525
20.472
20.5804
20.6765
20.7526
20.8044
20.8366
20.858
20.8738
20.8853
20.8918
20.8914
20.885
20.8759
20.8644
20.8481
20.8261
20.7992
18.9346
19.2269
19.4848
19.6853
19.8342
19.9493
20.0441
20.1244
20.1885
20.2342
20.2658
20.2905
20.3133
20.3356
20.3572
20.3763
20.3905
20.4002
20.4081
20.414
20.4154
20.4116
20.4034
18.6882
18.9259
19.1541
19.3433
19.4841
19.5861
19.6627
19.7189
19.7528
19.7672
19.774
19.7832
19.7994
19.8238
19.8555
19.8923
19.9312
19.9711
20.0128
20.0563
20.0986
20.1388
20.1769
18.4849
18.6876
18.9068
19.1097
19.2716
19.3901
19.474
19.5244
19.5393
19.5287
19.5111
19.4997
19.501
19.5181
19.5522
19.6031
19.6698
19.7524
19.8512
19.9642
20.0872
20.2166
20.3475
18.5406
18.7745
19.0226
19.2474
19.4285
19.5546
19.6201
19.6302
19.6077
19.5745
19.5456
19.5297
19.533
19.5605
19.6152
19.6991
19.8148
19.964
20.146
20.3564
20.5904
20.8419
21.0962
18.4993
18.7806
19.1107
19.4493
19.7447
19.9612
20.075
20.106
20.0915
20.0573
20.0191
19.9885
19.9751
19.9876
20.0334
20.1188
20.2469
20.4223
20.6482
20.9248
21.2499
21.6234
22.0485
18.5881
18.9568
19.4413
20.0078
20.5356
20.9275
21.148
21.2501
21.2878
21.2887
21.2738
21.2614
21.2675
21.307
21.3929
21.5367
21.7462
22.0318
22.403
22.8689
23.4375
24.1035
24.8575
18.8827
19.4119
20.1528
21.0975
22.1515
22.9615
23.4846
23.8703
24.1307
24.2771
24.363
24.4368
24.5377
24.6984
24.9402
25.2864
25.7562
26.3701
27.1495
28.1174
29.2968
30.7078
32.3523
25.6229
27.8555
29.7487
32.0124
33.6766
34.6924
35.3932
35.9325
36.4921
37.1794
38.0829
39.2524
40.7115
42.4635
44.5002
46.8124
49.3858
52.2054
55.2666
29.7393
33.7389
37.5357
41.0652
44.0399
45.8909
73.9659
75.5965
76.8913
78.2862
79.8954
81.7254
83.6511
85.5336
87.3291
89.0232
90.637
92.2193
93.8438
85.4782
95.8026
103.13
107.964
109.962
109.5
166.19
161.122
156.409
151.998
147.844
143.963
140.384
137.125
134.188
131.574
129.294
127.375
553.484
568.045
462.271
351.381
348.521
297.451
317.577
277.594
248.549
226.486
209.133
195.167
183.732
174.224
166.22
159.425
153.636
148.722
1190.87
668.565
499.234
393.266
345.809
306.317
276.146
252.15
232.4
216.035
202.369
190.876
181.162
172.931
165.956
671.612
544.682
446.653
363.304
319.616
285.775
259.425
238.296
220.959
206.456
194.174
183.664
174.592
166.713
451.991
340.278
313.727
289.639
267.712
247.702
229.936
214.352
200.723
188.789
178.305
169.054
160.862
18.7254
18.8737
19.1127
19.4584
19.8908
20.3714
20.8489
21.2746
21.6181
21.8693
22.0286
22.1037
22.11
22.1072
22.0848
18.9346
19.2335
19.736
20.4889
21.4234
22.5259
23.6876
24.7585
25.6178
26.2145
26.5408
26.6371
26.6912
26.6959
26.6606
19.2245
19.7948
20.8232
22.4153
24.4741
27.4319
30.7625
33.8152
36.1415
37.5636
38.0816
38.1608
38.1181
37.9619
37.8304
37.6548
37.4733
37.3096
37.1706
37.0666
37.0039
36.9859
37.0148
19.6134
20.6646
22.6623
26.1228
27.5837
35.0248
45.8809
56.312
64.1685
68.6722
69.9438
69.1748
67.5089
65.6827
78.2153
75.8899
73.8627
72.1625
70.7994
69.7467
68.9642
68.4111
68.0522
20.0809
21.883
25.5643
27.9317
44.3958
87.9311
132.835
177.149
198.679
201.799
194.149
183.499
169.722
155.53
143.945
160
152.314
146.108
141.04
136.832
133.259
130.145
127.357
20.5193
23.1448
25.1034
39.2104
101.35
269.757
516.039
1315.36
663.358
750.788
713.121
555.712
441.623
343.601
328.071
290.42
289.791
265.376
245.444
228.622
214.282
201.842
190.934
181.289
20.7347
23.9314
27.4188
53.366
152.454
893.875
642.531
477.51
373.374
326.049
291.453
264.72
243.397
225.95
211.373
198.994
188.228
20.4767
23.4373
27.3731
57.5524
319.828
656.288
465.776
323.234
268.616
234.999
211.236
193.878
180.407
169.52
160.389
152.482
19.7641
21.7941
24.0509
45.7892
129.495
782.451
559.759
418.474
303.082
268.458
242.918
223.281
207.731
194.984
184.246
175.016
166.981
159.904
19.0627
20.2521
22.9958
26.1972
47.0724
141.634
355.27
662.778
809.063
469.435
664.924
474.812
425.482
409.329
360.702
294.456
270.322
250.03
232.455
217.117
203.841
192.357
182.432
173.832
166.429
160.008
18.6161
18.9956
19.9577
21.684
23.3883
29.0739
38.3412
50.0276
68.2107
92.3047
116.051
143.327
166.573
179.838
184.612
177.953
172.313
167.633
163.64
160.094
156.769
153.578
150.495
147.532
144.758
142.248
18.3664
18.483
18.7885
19.3598
20.1456
21.1484
22.5704
23.8935
29.4911
38.679
47.2129
62.7156
66.6931
68.1712
68.8245
69.224
69.9426
71.3677
73.5004
76.2313
79.4287
82.9767
86.6905
90.36
93.9242
97.3382
18.2406
18.2637
18.3872
18.6504
19.0593
19.6609
20.491
21.0841
23.1525
25.7696
27.7729
30.7397
32.0835
32.8773
33.4352
34.0233
34.7761
35.7694
37.115
38.83
40.9117
43.3346
46.0985
49.2078
52.6544
18.19
18.1847
18.2546
18.4242
18.7152
19.1489
19.7826
20.6355
21.5599
22.4087
22.9348
23.2132
23.6698
24.057
24.4366
24.8753
25.4281
26.1324
27.0256
28.1403
29.4891
31.0713
32.8847
34.9246
37.1818
18.1923
18.1903
18.2573
18.4104
18.6605
18.9979
19.4352
19.902
20.3222
20.6874
20.9273
21.0345
21.1756
21.3356
21.5264
21.7793
22.1277
22.6014
23.2247
24.012
24.9766
26.1154
27.4169
28.8486
30.3782
18.2367
18.2612
18.3591
18.5396
18.7955
19.1012
19.4265
19.7072
19.9397
20.1434
20.2804
20.3401
20.4153
20.5212
20.6849
20.9322
21.2868
21.7637
22.3729
23.1222
23.9909
24.9854
26.0876
27.2515
28.4619
18.3167
18.3902
18.5521
18.8014
19.1079
19.4207
19.6958
19.9038
20.0749
20.2322
20.3705
20.4684
20.5397
20.6403
20.7971
21.0157
21.3009
21.6571
22.0873
22.5919
23.1755
23.8427
24.5754
25.3402
26.113
18.5688
18.8312
19.1948
19.6002
19.9683
20.2611
20.4799
20.6718
20.8588
21.0443
21.2118
21.3583
21.509
21.6842
21.8936
22.1429
22.4333
22.7574
23.1002
23.4568
23.8347
24.2291
24.6096
24.9799
19.1678
19.7014
20.2751
20.7878
21.2056
21.5469
21.8483
22.1379
22.4306
22.7111
22.9626
23.1911
23.411
23.6321
23.8559
24.0814
24.3008
24.4983
24.6791
24.8535
25.0173
25.1534
25.2616
19.4819
20.2019
20.9794
21.6689
22.2314
22.6959
23.1183
23.5274
23.941
24.347
24.7075
24.994
25.219
25.4141
25.5917
25.7545
25.8971
26.0059
26.087
26.158
26.215
26.2436
26.2437
20.5113
21.4414
22.28
22.9753
23.5582
24.1063
24.6653
25.2617
25.8688
26.4075
26.8195
27.1173
27.3575
27.5664
27.7511
27.9058
28.0151
28.0902
28.1538
28.1981
28.2051
28.1738
20.5077
21.4333
22.2665
22.9569
23.5368
24.0823
24.6385
25.2318
25.8358
26.3722
26.7827
27.0794
27.3185
27.5266
27.7111
27.8659
27.9771
28.0551
28.1217
28.1695
28.1799
28.1517
20.1973
20.969
21.6525
22.2106
22.6736
23.0956
23.5039
23.9159
24.3199
24.6789
24.9638
25.1865
25.3789
25.554
25.7147
25.8548
25.9604
26.0391
26.1078
26.1631
26.1898
26.1881
26.1686
19.6987
20.2687
20.7771
21.1916
21.5318
21.8326
22.1212
22.4111
22.6868
22.9331
23.1561
23.3695
23.5832
23.7986
24.0153
24.2258
24.4143
24.5857
24.7507
24.9056
25.0333
25.1332
25.216
19.194
19.598
19.9643
20.2553
20.4732
20.6636
20.8554
21.0474
21.2189
21.3679
21.5199
21.6941
21.8997
22.1413
22.42
22.7282
23.0508
23.3839
23.7343
24.0966
24.4479
24.7921
25.1252
18.8014
19.1066
19.4177
19.6907
19.8949
20.0594
20.2076
20.3365
20.4272
20.4928
20.5886
20.74
20.9518
21.2277
21.5745
21.995
22.4891
23.0631
23.7235
24.4517
25.2119
25.9776
26.7249
18.7966
19.1027
19.4275
19.7059
19.9323
20.1259
20.2526
20.304
20.3643
20.4499
20.5878
20.8033
21.1157
21.5457
22.1046
22.7983
23.6059
24.5365
25.5739
26.6802
27.8403
29.011
30.0926
18.6616
18.9986
19.4345
19.9057
20.3256
20.6804
20.9082
21.0069
21.1326
21.2705
21.4337
21.6532
21.96
22.3848
22.9526
23.6807
24.5797
25.647
26.8745
28.2327
29.6916
31.2671
32.9058
18.715
19.1441
19.7915
20.6521
21.5937
22.4367
22.9664
23.2466
23.7004
24.0814
24.4503
24.8738
25.4066
26.0906
26.9628
28.0526
29.3677
30.9162
32.6995
34.717
36.9619
39.3414
41.9075
19.0609
19.6572
20.6368
22.1611
22.5005
23.5578
24.4986
30.6156
32.0727
33.0145
33.7314
34.4757
35.3687
36.5075
37.9957
39.8621
42.0974
44.7016
47.672
51.0145
54.7291
58.7498
62.8681
26.1056
30.6396
34.6524
65.5003
71.0259
73.664
75.0011
75.8162
76.9521
78.6937
81.0929
84.0778
87.5362
91.0638
94.5612
97.9711
101.233
104.336
107.316
41.3211
56.962
73.9056
93.4447
109.244
117.306
182.84
177.424
172.724
168.712
165.182
161.896
158.718
155.563
152.429
149.376
146.487
143.844
141.516
151.865
201.419
204.679
236.88
244.779
241.948
288.016
265.078
245.745
228.979
214.327
201.57
190.51
180.917
172.574
165.308
158.979
153.453
1843.92
1007
597.641
541.484
496.451
393.48
307.979
271.835
245.262
224.79
208.606
195.441
184.427
175.063
166.958
159.836
153.521
607.058
437.729
323.702
271.21
238.42
214.849
197.247
183.399
172.115
162.638
154.467
147.265
140.799
654.841
488.75
373.607
325.539
290.071
262.475
240.47
222.534
207.625
194.898
183.909
174.359
166.018
522.694
412.005
291.676
267.296
247.463
230.718
216.442
204.045
193.162
183.522
174.928
167.24
160.361
18.745
18.9148
19.185
19.5528
19.9975
20.4715
20.9196
21.3067
21.6137
21.8367
21.9767
22.0432
22.0724
22.0979
22.105
18.9905
19.3528
19.9417
20.7392
21.7795
22.9621
24.1175
25.2037
26.043
26.5888
26.8372
26.8961
26.9589
26.9896
26.9833
19.3556
20.092
21.2933
23.0208
25.8719
29.3422
32.655
36.8836
39.4209
40.6093
40.5431
40.6208
40.5557
40.3299
39.9877
39.5935
39.192
38.8084
38.4594
38.1479
37.8726
37.6328
37.4271
19.8864
21.2913
23.6872
24.9193
31.7037
43.1439
54.6322
86.722
89.5764
89.3192
87.5029
85.5439
81.037
75.6819
70.8057
73.4655
71.0891
68.9598
67.0861
65.4533
64.033
62.797
61.7217
20.5811
23.0514
24.579
35.0278
72.1563
122.985
173.82
194.857
201.1
197.989
188.927
176.944
162.742
147.462
133.64
123.53
134.417
127.857
122.115
117.09
112.688
108.808
105.365
21.3072
25.3416
29.6408
59.597
179.498
488.104
550.911
514.41
433.362
416.423
446.309
549.021
547.575
396.279
340.722
281.201
271.757
241.98
219.469
201.61
187.023
174.845
164.499
155.586
21.367
23.079
36.7401
71.249
715.362
940.599
502.133
385.034
310.454
275.894
249.323
228.159
210.897
196.526
184.362
173.924
21.0371
22.7998
37.5749
88.1752
1004.55
452.42
375.35
289.09
259.848
238.448
221.506
207.546
195.704
185.427
176.363
20.2021
21.3925
31.0595
87.5371
739.583
342.274
279.141
259.662
232.929
212.34
200.316
191.908
183.788
176.231
169.285
162.948
157.087
19.4652
21.0551
22.9446
36.2215
88.6404
353.211
1009.55
441.878
490.568
612.958
667.222
733.732
553.869
524.796
386.254
324.78
274.443
253.761
236.004
220.109
206.358
194.459
184.087
174.974
166.946
159.945
18.7702
19.3909
20.7084
22.227
28.1815
39.5854
53.7299
70.4571
112.233
249.57
409.542
444.778
425.244
386.89
345.935
281.847
262.626
246.305
232.135
219.543
208.103
197.864
188.608
180.146
172.548
165.823
18.4391
18.6228
19.0576
19.7497
20.6213
21.7142
22.8824
28.4756
51.9907
130.148
211.553
225.053
249.134
232.73
216.72
203.218
192.307
183.689
177.005
171.791
167.572
164.038
160.985
158.281
155.759
153.189
18.2889
18.3393
18.5073
18.8204
19.2672
19.8456
20.3941
23.1448
30.2406
46.1805
57.1973
63.4725
91.7959
92.4337
92.194
92.0903
92.5813
93.784
95.646
98.0542
100.56
103.032
105.469
107.88
110.242
18.2425
18.2589
18.3626
18.5767
18.9171
19.3704
19.7358
21.2726
23.9128
27.6125
31.1247
32.8487
43.1333
46.3198
49.0412
51.5119
54.0723
56.8462
59.8554
63.0885
66.5116
70.0461
73.6375
77.1898
80.6027
18.2687
18.2987
18.4143
18.6349
18.9665
19.3608
19.563
20.425
21.4522
22.6744
24.1693
25.1053
28.575
30.3782
32.2241
34.2096
36.4812
39.1012
42.0797
45.3418
48.8919
52.5971
56.3546
59.9535
63.3981
18.3555
18.4384
18.6248
18.9254
19.3087
19.7728
20.3122
20.7946
21.1968
21.279
21.6842
22.0711
24.1941
25.7604
27.5438
29.6501
32.1443
35.0162
38.2494
41.5414
44.871
48.2748
51.694
55.0144
58.304
18.4989
18.6791
19.008
19.4794
20.0062
20.5403
20.9923
21.3053
21.7479
22.2081
22.7122
23.1368
23.5415
24.6327
26.0242
27.4697
29.0624
30.8784
32.9761
35.3635
38.0672
41.0419
44.1537
47.155
49.9558
19.0202
19.5856
20.3347
21.1437
21.8768
22.4363
22.8539
23.4601
24.0503
24.6605
25.2535
25.8133
26.4498
27.2485
28.2675
29.551
31.0995
32.846
34.6418
36.4271
38.2355
40.0378
41.6311
20.3364
21.5781
22.9751
24.3155
25.4828
26.4553
27.2846
28.0569
28.8905
29.7505
30.5506
31.3286
32.1283
32.9704
33.8476
34.7696
35.6961
36.4956
37.2289
37.9749
38.6815
39.2443
21.07
22.8973
25.0576
27.0804
28.7872
30.201
31.421
32.5205
33.661
34.8396
35.8928
36.6803
37.2733
37.7869
38.2475
38.6763
39.0467
39.2677
39.4238
39.592
39.7256
39.7636
23.7202
26.503
29.1694
31.4222
33.3263
35.2011
37.18
39.3427
41.3674
42.9441
43.9698
44.611
45.1094
45.5274
45.8951
46.1823
46.3115
46.364
46.4333
46.4568
46.36
46.1728
23.7101
26.4767
29.1229
31.3594
33.2551
35.1234
37.0937
39.2488
41.2705
42.8493
43.8796
44.5244
45.0282
45.4546
45.84
46.1464
46.2921
46.3621
46.4505
46.4925
46.4096
46.2352
22.8884
25.0429
27.0659
28.7755
30.2031
31.4389
32.5522
33.7051
34.8957
35.957
36.7468
37.3342
37.843
38.3008
38.7232
39.0838
39.293
39.4373
39.5926
39.7133
39.7363
39.6983
21.576
22.9686
24.3069
25.4731
26.4544
27.2953
28.0748
28.9144
29.7736
30.5634
31.3242
32.0981
32.9095
33.7494
34.627
35.5104
36.2653
36.9489
37.6386
38.291
38.8037
39.2252
39.6678
20.3357
21.1439
21.8759
22.4351
22.8582
23.4774
24.1614
24.8575
25.4846
26.0488
26.6748
27.4453
28.4142
29.6132
31.0386
32.6255
34.2373
35.8427
37.4836
39.1198
40.5914
41.9914
43.3504
19.4785
20.0003
20.531
20.9809
21.2888
21.7112
22.1439
22.6137
23.0188
23.41
24.4943
25.8799
27.3111
28.8769
30.6672
32.7516
35.1284
37.8332
40.8309
43.9692
47.0027
49.8252
52.4139
19.3111
19.7768
20.3207
20.8069
21.1981
21.2147
21.4494
21.7552
23.8874
25.2375
26.8178
28.7408
31.0159
33.706
36.7935
39.9472
43.1654
46.4885
49.8633
53.2
56.5387
59.6954
62.2664
18.97
19.3673
19.5624
20.1725
20.7871
21.4408
22.2169
22.7569
28.1647
29.7503
31.3929
33.1876
35.2511
37.6792
40.4754
43.592
47.0225
50.6259
54.3314
57.8876
61.3235
64.6908
67.8243
18.9187
19.3734
19.6551
20.7519
22.3224
24.2886
26.3988
27.6543
43.0382
45.9761
48.5492
50.9144
53.398
56.1218
59.1036
62.3244
65.7396
69.2811
72.9003
76.5664
80.1199
83.3362
86.8453
19.2692
19.8615
20.2417
22.1097
26.7034
33.7584
39.935
43.0113
90.8231
92.0182
92.3415
92.7224
93.6361
95.2133
97.4146
100.144
102.849
105.457
107.984
110.462
112.874
115.227
117.268
38.5505
57.7391
100.974
117.36
258.347
241.558
225.078
210.785
199.059
189.695
182.358
176.531
171.737
167.657
164.106
160.967
157.846
154.958
152.331
73.3377
171.704
335.127
381.954
371.565
335.357
298.25
278.269
259.938
244.259
230.408
217.661
206.353
196.127
186.76
178.329
170.854
164.252
158.372
318.436
535.814
511.263
467.576
410.4
358.743
311.365
274.237
252.16
233.923
218.189
204.589
192.747
182.41
173.365
165.401
158.148
150.918
824.678
764.909
1123.57
1364.04
709.282
478.629
323.982
276.119
227.671
207.446
194.869
186.289
178.793
171.641
164.987
158.89
153.302
148.1
445.597
282.525
273.207
285.772
257.018
235.965
219.248
205.459
193.768
183.634
174.703
166.74
159.583
1059.96
486.132
397.119
311.686
277.286
250.719
229.507
212.194
197.789
185.601
175.155
166.112
158.234
873.804
425.78
277.592
247.255
224.344
206.175
191.335
178.944
168.413
159.339
151.444
144.537
138.488
18.7459
18.9306
19.2258
19.6221
20.0872
20.5604
20.9913
21.3468
21.6223
21.8202
21.9413
21.9977
22.0404
22.0874
22.1214
19.0216
19.4316
20.1114
21.0252
22.1803
23.4031
24.6325
25.6409
26.3627
26.8012
26.9657
27.0144
27.0704
27.1186
27.1393
19.4525
20.3224
21.8156
23.9741
27.3486
30.9407
35.7341
38.9497
40.7233
41.4021
41.2679
41.1532
41.078
40.8711
40.5188
40.1086
39.6276
39.1528
38.7214
38.3297
37.979
37.6677
37.3938
20.1188
21.8347
25.1369
26.9845
36.6982
49.3612
82.8379
86.8456
87.8022
87.0867
85.2544
82.6197
80.2562
75.2305
70.0014
71.0578
68.5164
66.1701
64.0693
62.2068
60.5589
59.0986
57.8015
21.0426
24.101
26.5681
45.3659
96.7129
152.375
182.912
195.217
193.453
186.882
178.335
165.844
154.197
140.3
126.513
113.782
125.765
117.84
111.031
105.153
100.052
95.5956
91.6792
21.8694
23.6023
36.5216
102.54
370.324
984.262
467.741
378.249
384.722
382.46
369.564
387.374
541.102
465.953
305.131
273.428
224.053
216.042
194.273
177.031
162.967
151.26
141.353
132.86
22.391
25.2255
46.0872
142.399
559.182
394.627
301.613
261.782
233.152
211.052
193.286
178.611
166.239
155.65
21.9966
25.0235
49.8339
243.51
560.79
393.451
302.15
265.678
239.241
218.558
201.758
187.769
175.853
165.49
20.8618
22.9214
40.7399
123.468
357.851
353.764
287.228
257.965
235.558
217.249
201.997
189.023
177.794
167.969
159.241
19.8597
22.0752
25.2482
47.8561
236.841
619.554
219.232
261.291
478.856
574.12
641.825
697.583
584.51
442.528
322.044
280.579
254.901
240.948
226.579
213.005
200.612
189.392
179.27
170.136
161.817
18.9167
19.7714
21.5936
23.933
33.2202
51.4323
64.364
81.1243
125.376
883.749
560.129
434.079
362.6
320.015
300.562
280.373
260.42
242.71
227.562
214.988
204.077
191.909
180.608
171.22
163.012
18.5121
18.7702
19.3469
20.1963
21.1751
22.4569
24.0005
32.5808
142.179
1000.33
552.229
422.957
366.243
322.635
289.745
264.377
244.68
229.502
217.13
206.765
198.057
190.499
183.494
176.721
169.804
18.3458
18.4361
18.6708
19.0514
19.4909
19.8728
21.2895
28.2405
114.739
266.303
352.857
452.537
386.844
334.745
295.315
265.038
241.342
222.435
207.083
194.415
183.89
175.167
167.997
162.145
157.256
18.315
18.371
18.5369
18.8282
19.1909
19.4722
20.6887
26.4903
62.6239
86.5611
125.282
178.28
179.464
256.774
236.696
219.168
204.268
191.748
181.269
172.405
164.854
158.279
152.45
148.009
143.916
18.3831
18.476
18.6886
19.0423
19.4568
19.7059
20.8315
24.4277
32.6112
49.4368
61.2698
73.9321
75.396
128.806
126.464
125.137
124.835
125.439
126.738
127.643
129.596
130.716
131.093
128.735
125.227
18.5438
18.7451
19.121
19.6735
20.2499
20.4734
21.4118
23.1392
25.0558
28.5024
34.5565
39.5546
43.3793
79.139
84.4526
90.0179
96.1801
102.663
109.425
107.935
107.037
108.174
110.739
114.371
118.469
18.8041
19.2124
19.9255
20.9044
21.8946
22.0398
22.8581
23.7873
28.2089
28.3161
29.9941
32.3702
34.0728
51.1071
58.1189
58.1886
60.4318
65.0007
71.607
80.3051
90.2752
100.44
109.933
117.709
123.419
19.9088
21.1741
22.844
24.7623
24.8884
25.7072
26.5718
32.9808
32.7574
33.1511
34.2755
35.5203
37.4602
40.5881
45.2515
51.3607
58.7428
67.1631
75.6514
83.3762
90.1991
96.1538
101.002
22.9707
26.1282
30.3697
34.6455
38.274
41.0087
40.6914
40.8452
41.9024
44.0162
46.2943
48.8782
52.2815
56.4991
61.2014
66.1924
71.2686
75.7
79.1198
82.4314
85.5119
87.9259
37.068
43.7118
48.931
52.8447
52.3466
52.4242
53.5683
55.8064
58.3592
60.4291
61.8682
63.0246
63.9956
64.9064
65.8344
66.4733
66.6214
66.988
67.4672
67.8435
41.8318
51.0138
58.1081
63.6335
69.2545
74.9811
81.1426
80.2074
80.1977
80.7318
80.7599
80.6862
80.6355
80.7017
80.9018
80.8306
80.3376
80.0139
79.8227
79.4691
78.7487
41.7479
50.8619
57.8889
63.3905
68.9933
74.7014
80.863
80.3982
81.3429
82.8144
83.6906
84.4051
85.1271
85.9791
86.9475
87.5358
87.6775
87.962
88.3932
88.5325
88.2015
37.161
43.9147
49.1854
53.2005
53.1254
54.0728
56.1462
59.5454
63.2629
66.0167
67.5379
68.5661
69.3447
70.0271
70.682
70.9557
70.7221
70.6431
70.6421
70.4516
69.911
26.1443
30.4235
34.7428
38.3793
41.17
41.3279
42.2792
44.0247
46.6941
49.4251
51.8789
54.2076
56.5027
58.7531
61.0723
63.585
65.7581
67.2961
68.9971
70.7475
72.2494
73.1537
74.2062
22.8539
24.7774
25.4087
26.9126
28.3711
33.2059
35.3095
35.5459
37.0652
39.005
41.4793
44.8896
49.5486
55.4566
62.301
69.5515
75.9418
81.0213
85.3986
89.2574
92.1938