/*--------------------------------*- C++ -*----------------------------------*\
  =========                 |
  \\      /  F ield         | OpenFOAM: The Open Source CFD Toolbox
   \\    /   O peration     | Website:  https://openfoam.org
    \\  /    A nd           | Version:  13
     \\/     M anipulation  |
\*---------------------------------------------------------------------------*/
FoamFile
{
    format      ascii;
    class       volScalarField;
    location    "200";
    object      p;
}
// * * * * * * * * * * * * * * * * * * * * * * * * * * * * * * * * * * * * * //

dimensions      [0 2 -2 0 0 0 0];

internalField   nonuniform List<scalar> 
169916
(
9.87704
7.12876
3.83037
0.131005
-3.65657
-7.08619
-9.7441
-11.4243
-12.1816
-12.1688
-11.5186
-10.3435
-8.78922
-7.06528
11.2594
8.04966
3.9746
-0.82571
-5.91002
-10.5416
-14.0883
-16.0924
-16.7102
-16.2525
-14.9465
-12.9708
-10.5286
-7.97548
13.3242
9.66337
4.63626
-1.70897
-8.67533
-14.9631
-19.7194
-22.1861
-22.6346
-21.5241
-19.218
-16.0872
-12.3679
-8.66621
-5.62644
-3.36699
-1.78248
-0.74051
-0.123067
0.177198
0.25411
0.184226
18.7494
16.3827
12.4452
6.35803
-2.16591
-12.415
-18.8317
-25.6121
-28.8737
-29.367
-27.5016
-23.9427
-18.8207
-13.3667
-8.37165
-4.78633
-2.29765
-0.658199
0.327175
0.828578
0.992742
0.941124
0.765247
22.5244
20.8072
17.2373
10.6716
-0.0398637
-11.6066
-26.1334
-38.0772
-43.5402
-42.8692
-37.7941
-30.5641
-22.2521
-14.3331
-6.44313
-3.15182
-0.967849
0.418243
1.17468
1.44225
1.38167
1.13509
0.805045
26.9479
26.6005
24.6937
19.8541
9.0015
-8.18171
-34.226
-59.4174
-66.084
-64.857
-52.5213
-36.6978
-23.8333
-11.9864
-2.61964
-0.0529778
0.877716
1.30711
1.4354
1.29802
0.984802
0.59218
0.186993
-0.181701
31.2391
32.6265
33.5349
29.6293
24.4078
8.60992
-19.3332
-68.3469
-92.4887
-129.029
-77.0318
-42.6824
-23.44
-10.0941
-4.73458
-2.68792
-0.839142
0.114929
0.421453
0.328366
0.0161221
-0.378169
-0.774116
-1.1203
-1.36611
34.3212
36.8069
39.5076
39.5786
39.6984
34.203
16.1294
-28.12
-50.3188
-91.9021
-45.1621
-27.0494
-12.495
-6.90244
-5.21352
-3.2946
-1.8571
-1.09448
-0.875182
-0.987525
-1.25102
-1.55864
-1.84528
-2.04739
35.6683
38.1598
40.7186
42.2085
42.8864
38.9768
29.0638
7.11466
-18.4778
-70.0807
-80.9159
-59.5887
-30.4612
-15.8145
-10.2618
-6.69336
-4.61351
-2.83766
-1.74388
-1.31123
-1.28274
-1.45616
-1.72318
-2.01155
-2.24904
-2.3598
35.5882
37.3576
38.7296
38.904
38.4199
32.8794
21.955
5.70045
-12.5223
-29.4515
-38.6714
-35.9987
-26.2131
-16.9942
-10.5622
-8.00969
-5.58023
-3.49224
-2.17917
-1.57573
-1.42482
-1.53473
-1.79371
-2.11983
-2.43698
-2.67113
34.7685
35.7416
36.0669
35.1306
32.1042
26.6462
20.0321
8.99277
-2.66327
-14.128
-22.0602
-23.8364
-18.5303
-14.7534
-11.6659
-8.93881
-6.37744
-4.30168
-2.9405
-2.22493
-1.97573
-2.04189
-2.31289
-2.69926
-3.12227
-3.51082
33.72
34.0488
33.6838
32.2171
29.1999
24.4387
17.8311
9.95085
1.29691
-7.07945
-13.2004
-15.7833
-15.4865
-13.3693
-10.9453
-8.58854
-6.46666
-4.76781
-3.61044
-2.97336
-2.75574
-2.84733
-3.15401
-3.59949
-4.12108
-4.66462
32.7099
32.5544
31.7299
29.9764
27.0475
22.8191
17.306
10.7114
3.53276
-3.3231
-8.58212
-11.39
-11.912
-10.994
-9.51419
-7.90975
-6.40125
-5.15178
-4.27431
-3.79608
-3.67455
-3.8413
-4.22874
-4.7782
-5.43938
-6.16732
31.8543
31.337
30.1836
28.2376
25.3615
21.486
16.6488
11.0284
5.04051
-0.638692
-5.19906
-8.05534
-9.18107
-9.07731
-8.3268
-7.32771
-6.32057
-5.47002
-4.88532
-4.61139
-4.63848
-4.92831
-5.4363
-6.11897
-6.93532
-7.84647
31.1926
30.3968
28.99
26.8811
24.0027
20.3382
15.952
11.0271
5.91472
1.11095
-2.86876
-5.62855
-7.07014
-7.46514
-7.24248
-6.74522
-6.19368
-5.73444
-5.46394
-5.43101
-5.6432
-6.08534
-6.73424
-7.56102
-8.53024
30.7239
29.7084
28.094
25.8301
22.9018
19.349
15.2798
10.8869
6.46026
2.34363
-1.15003
-3.7648
-5.38743
-6.14778
-6.35121
-6.27933
-6.12432
-6.01475
-6.03668
-6.2373
-6.63233
-7.2228
-8.00403
-8.95875
-10.0559
30.4272
29.2382
27.4491
25.0334
22.0202
18.5087
14.6564
10.6618
6.75197
3.14881
0.0329478
-2.44235
-4.17691
-5.21456
-5.75449
-6.02108
-6.18518
-6.36292
-6.63073
-7.03167
-7.58473
-8.3006
-9.18766
-10.239
-11.4303
28.9479
27.0129
24.4518
21.3325
17.8142
14.1071
10.4126
6.89422
3.67211
0.836408
-1.52349
-3.328
-4.57548
-5.38063
-5.91123
-6.31974
-6.71692
-7.17415
-7.73089
-8.40504
-9.21079
-10.167
-11.2805
-12.5316
26.7414
24.052
20.8228
17.2683
13.6492
10.1687
6.93113
3.97598
1.33232
-0.948684
-2.80623
-4.21342
-5.21863
-5.93741
-6.50987
-7.05087
-7.63172
-8.28901
-9.03901
-9.89874
-10.8973
-12.0509
-13.3389
26.5914
23.8062
20.4865
16.8893
13.3159
9.97026
6.91356
4.1297
1.60807
-0.624983
-2.52148
-4.03815
-5.17516
-6.00688
-6.66841
-7.28605
-7.93556
-8.65155
-9.44798
-10.343
-11.3704
-12.5497
-13.8609
23.6809
20.3109
16.687
13.1325
9.85212
6.88449
4.18579
1.72652
-0.481156
-2.39621
-3.9668
-5.16752
-6.05132
-6.7523
-7.40485
-8.0874
-8.83234
-9.65177
-10.5643
-11.6054
-12.7961
-14.1171
23.6725
20.3014
16.6774
13.1238
9.84469
6.87824
4.18082
1.72337
-0.481986
-2.39452
-3.96282
-5.16183
-6.04445
-6.74449
-7.39633
-8.07853
-8.82355
-9.64345
-10.5567
-11.5986
-12.7904
-14.1131
23.7817
20.4589
16.8607
13.2887
9.94585
6.89223
4.11212
1.59591
-0.630368
-2.5194
-4.02921
-5.16085
-5.9888
-6.64738
-7.26274
-7.91114
-8.6274
-9.42536
-10.3228
-11.3531
-12.536
-13.8521
-15.2683
24.0142
20.7804
17.2238
13.6059
10.1287
6.89624
3.94834
1.31456
-0.95541
-2.80165
-4.19837
-5.19497
-5.90732
-6.47463
-7.01156
-7.59024
-8.24787
-9.00045
-9.8645
-10.8682
-12.0277
-13.3237
-14.7238
24.4041
21.2791
17.7575
14.05
10.3585
6.84666
3.63601
0.816415
-1.52643
-3.31579
-4.55075
-5.34588
-5.86907
-6.27182
-6.66461
-7.11998
-7.67828
-8.35684
-9.1689
-10.1329
-11.2551
-12.5163
-13.887
24.9791
21.9592
18.4432
14.5893
10.5968
6.69392
3.10452
0.00949829
-2.44294
-4.15734
-5.1791
-5.70635
-5.96353
-6.12099
-6.29421
-6.5609
-6.96529
-7.5252
-8.24971
-9.14705
-10.2101
-11.414
-12.7333
22.8378
19.2808
15.21
10.8193
6.39907
2.29541
-1.1768
-3.76711
-5.36824
-6.1103
-6.29717
-6.21204
-6.04905
-5.93657
-5.9604
-6.16831
-6.5742
-7.1769
-7.97083
-8.93895
-10.0501
-11.2767
-12.5971
23.9392
20.2717
15.8856
10.966
5.859
1.0644
-2.89589
-5.63221
-7.05405
-7.42878
-7.18275
-6.66417
-6.09983
-5.63781
-5.3723
-5.35003
-5.5766
-6.03456
-6.6994
-7.54146
-8.52612
-9.61754
-10.7855
25.3008
21.4241
16.59
10.9843
4.99692
-0.695257
-5.24503
-8.07963
-9.18728
-9.05925
-8.27349
-7.24066
-6.21528
-5.36452
-4.79172
-4.5354
-4.58218
-4.89156
-5.41772
-6.11652
-6.94736
-7.8733
-8.85194
26.9916
22.7636
17.253
10.6878
3.53126
-3.38291
-8.66146
-11.4649
-11.9761
-11.0193
-9.47082
-7.80036
-6.25665
-5.00507
-4.14656
-3.69571
-3.60365
-3.79837
-4.21074
-4.78167
-5.46145
-6.20671
-6.97733
1.20292
-7.21287
-13.3372
-15.9358
-15.6602
-13.4913
-10.9499
-8.49105
-6.32124
-4.62096
-3.48711
-2.88172
-2.69625
-2.81757
-3.15062
-3.61893
-4.16081
-4.72359
-5.2603
0.333908
-9.69112
-17.0738
-19.881
-18.9478
-15.034
-11.665
-8.73947
-6.10601
-4.05199
-2.75279
-2.1037
-1.91363
-2.0301
-2.34335
-2.76518
-3.21931
-3.63801
-3.96105
-20.3939
-29.0801
-29.6731
-23.7979
-17.2843
-10.9309
-8.01651
-5.38538
-3.28015
-2.03669
-1.51801
-1.44509
-1.62232
-1.93632
-2.3057
-2.65758
-2.92303
-3.03587
-48.6275
-46.1885
-29.8922
-17.3812
-11.238
-6.62891
-4.3009
-2.51736
-1.51444
-1.17724
-1.23403
-1.48452
-1.81716
-2.1589
-2.44097
-2.59259
-2.54235
-68.1695
-32.1986
-14.8017
-8.91138
-5.19461
-2.88602
-1.42732
-0.782288
-0.668165
-0.862072
-1.20009
-1.57353
-1.91494
-2.16463
-2.25863
-2.13053
-27.2023
-10.9599
-5.15437
-2.68712
-0.579785
0.458568
0.721802
0.567032
0.194067
-0.263439
-0.720117
-1.12096
-1.41701
-1.55635
-1.48572
-2.68939
0.12435
1.19002
1.6118
1.67965
1.47794
1.1035
0.652153
0.192896
-0.224372
-0.555724
-0.759029
-0.794279
9.84737
7.05696
3.69695
-0.0665638
-3.8712
-7.21952
-9.71459
-11.2488
-11.9476
-11.9754
-11.4317
-10.3736
-8.89291
-7.17477
11.219
7.92679
3.71429
-1.25068
-6.40549
-10.938
-14.1035
-15.7752
-16.2775
-15.9351
-14.8838
-13.1497
-10.8369
-8.2483
13.2915
9.48024
4.16243
-2.51302
-9.63123
-15.8201
-19.8267
-21.6335
-21.8608
-21.0383
-19.2998
-16.5768
-13.1122
-9.31584
-5.96896
-3.46412
-1.77184
-0.699761
-0.080769
0.209079
0.270876
0.18445
18.8568
16.4228
12.2333
5.59275
-3.78673
-10.8494
-20.1544
-25.7337
-28.1005
-28.1698
-26.7788
-24.1658
-20.0316
-14.5914
-9.43894
-5.23461
-2.33561
-0.547381
0.475382
0.966097
1.09679
1.00509
0.791619
22.8165
21.102
17.2429
9.91211
-0.111756
-15.0535
-30.556
-40.1472
-41.7387
-39.9353
-36.78
-31.9939
-24.7343
-15.8272
-7.75997
-3.15482
-0.627616
0.724837
1.42668
1.65856
1.56282
1.27998
0.914287
27.555
27.4633
25.7415
18.5145
7.13913
-17.7135
-41.8734
-63.6664
-66.8808
-57.3831
-46.7887
-40.9895
-28.1791
-13.3809
-4.96263
1.18841
2.45929
2.59751
2.33018
1.85903
1.30942
0.754214
0.233362
-0.216906
32.176
34.1557
32.4881
32.7112
24.9312
4.38445
-46.1985
-29.4414
-8.47628
-1.31823
-1.06348
-0.69975
0.482208
0.609288
0.230162
-0.262973
-0.756406
-1.21717
-1.60817
-1.87841
35.4056
38.6609
39.712
44.1854
41.4546
35.4906
-10.5396
-6.43365
-5.89967
-4.09817
-1.90917
-1.15092
-1.118
-1.3348
-1.64783
-1.98858
-2.30207
-2.52103
36.6441
39.8223
43.5603
45.899
47.0529
43.8501
19.8712
-49.2639
-17.7943
-11.7692
-10.0176
-5.95442
-3.32224
-2.10559
-1.76354
-1.80708
-2.0117
-2.29329
-2.58779
-2.8186
-2.90874
36.3319
38.5242
40.4597
41.5168
40.6583
33.1272
22.3911
5.61126
-12.3388
-27.1807
-39.9451
-46.2494
-30.7862
-18.4486
-13.3482
-9.88933
-6.49233
-3.80794
-2.33346
-1.74391
-1.6379
-1.79072
-2.0909
-2.4558
-2.80752
-3.0668
35.3009
36.5052
37.0774
36.2464
34.7338
28.977
20.6297
10.1581
-1.33867
-13.7743
-22.9665
-25.7808
-22.873
-17.5529
-12.9876
-9.97078
-6.78728
-4.29212
-2.77531
-2.04428
-1.84229
-1.98281
-2.33508
-2.79829
-3.28736
-3.72721
34.1114
34.5735
34.3378
32.9357
29.8262
25.1003
18.7423
10.8727
1.81674
-7.61227
-14.3592
-17.203
-16.6496
-14.3136
-11.7385
-9.03587
-6.55521
-4.62704
-3.37349
-2.72293
-2.53383
-2.6707
-3.02609
-3.5206
-4.09437
-4.6939
33.0253
32.9527
32.21
30.517
27.6069
23.3995
17.9341
11.2181
3.66107
-3.85536
-9.55888
-12.5127
-12.8182
-11.6902
-9.98712
-8.13092
-6.41432
-5.02536
-4.07469
-3.57353
-3.46067
-3.65329
-4.07517
-4.66492
-5.37293
-6.15618
32.1398
31.6754
30.5734
28.6684
25.8147
21.9409
17.0556
11.2386
4.8674
-1.23482
-6.07892
-8.95968
-9.86294
-9.50696
-8.55118
-7.3898
-6.26124
-5.32863
-4.69961
-4.41361
-4.45114
-4.76648
-5.31002
-6.03512
-6.90105
-7.86957
31.4782
30.7149
29.3315
27.2309
24.3426
20.64
16.1553
11.0306
5.64958
0.618284
-3.53019
-6.32029
-7.60062
-7.76441
-7.36796
-6.7545
-6.12376
-5.61461
-5.32118
-5.28754
-5.51489
-5.9847
-6.67223
-7.54747
-8.57047
31.0302
30.031
28.4114
26.1142
23.1269
19.4899
15.3038
10.7624
6.19528
1.98387
-1.6213
-4.28807
-5.81237
-6.38215
-6.43394
-6.26737
-6.05667
-5.91985
-5.93706
-6.14937
-6.56647
-7.18608
-8.00825
-9.01466
-10.1686
30.7697
29.5838
27.7589
25.2623
22.1341
18.4945
14.5186
10.4239
6.46073
2.84007
-0.31607
-2.82845
-4.51266
-5.42012
-5.84025
-6.03332
-6.16171
-6.32851
-6.60365
-7.02313
-7.59739
-8.33764
-9.2622
-10.3648
-11.6105
29.3289
27.3273
24.6334
21.3386
17.652
13.8262
10.0839
6.57868
3.38944
0.556473
-1.82236
-3.6083
-4.78188
-5.50199
-5.97334
-6.3539
-6.74749
-7.21876
-7.79772
-8.48799
-9.30399
-10.2842
-11.4419
-12.7379
27.0675
24.1965
20.7308
16.9691
13.2431
9.76127
6.58329
3.6904
1.07676
-1.2086
-3.07255
-4.45562
-5.40563
-6.06618
-6.60386
-7.1359
-7.72496
-8.39721
-9.15181
-10.0065
-11.0188
-12.2121
-13.5408
26.9311
23.9264
20.3201
16.4826
12.8094
9.49588
6.53191
3.83253
1.35755
-0.874584
-2.79831
-4.32938
-5.4299
-6.19003
-6.79697
-7.39357
-8.04513
-8.77211
-9.56824
-10.452
-11.4881
-12.7045
-14.0536
23.7866
20.1035
16.2213
12.5697
9.33873
6.4812
3.88115
1.47797
-0.727305
-2.68191
-4.28509
-5.45613
-6.25854
-6.89352
-7.51975
-8.20249
-8.95684
-9.77374
-10.6724
-11.7202
-12.9459
-14.304
23.7772
20.0928
16.211
12.5613
9.3321
6.47551
3.8763
1.47482
-0.728005
-2.67973
-4.28028
-5.44969
-6.25106
-6.88496
-7.51027
-8.19251
-8.94682
-9.764
-10.6633
-11.712
-12.9392
-14.299
23.8993
20.289
16.4512
12.7812
9.47134
6.50994
3.81358
1.34405
-0.880766
-2.79565
-4.31837
-5.41354
-6.17024
-6.77385
-7.36757
-8.01758
-8.74464
-9.54225
-10.4284
-11.4678
-12.6881
-14.0426
-15.493
24.1554
20.6841
16.9208
13.1971
9.71947
6.5464
3.66066
1.05756
-1.21693
-3.0677
-4.43751
-5.37829
-6.03264
-6.5646
-7.09139
-7.67757
-8.35015
-9.10781
-9.96711
-10.9847
-12.1845
-13.5216
-14.9594
24.5824
21.2808
17.5905
13.7641
10.0246
6.52653
3.35156
0.538983
-1.82295
-3.59295
-4.75204
-5.4623
-5.92731
-6.30195
-6.68961
-7.15795
-7.73862
-8.43369
-9.25651
-10.2449
-11.4116
-12.7187
-14.1354
25.2044
22.068
18.4228
14.4438
10.35
6.39466
2.79191
-0.336453
-2.82066
-4.48225
-5.3735
-5.78281
-5.96885
-6.09153
-6.25265
-6.52525
-6.94908
-7.53125
-8.28067
-9.21626
-10.3314
-11.5907
-12.9713
23.0583
19.4156
15.2258
10.6852
6.12485
1.93034
-1.64286
-4.27713
-5.77827
-6.33102
-6.36937
-6.1925
-5.97657
-5.83746
-5.85535
-6.07642
-6.50628
-7.13878
-7.97388
-8.99367
-10.1617
-11.4587
-12.8758
24.2744
20.5673
16.0814
10.9656
5.59009
0.570353
-3.54431
-6.30424
-7.56753
-7.7127
-7.29446
-6.66234
-6.02226
-5.51265
-5.22517
-5.20414
-5.44775
-5.93469
-6.63876
-7.52949
-8.5676
-9.72096
-10.9715
25.7483
21.8714
16.9887
11.2062
4.81587
-1.27782
-6.08091
-8.94292
-9.84434
-9.46953
-8.48261
-7.29285
-6.15241
-5.22502
-4.61141
-4.34478
-4.40267
-4.73741
-5.29816
-6.03798
-6.9164
-7.89784
-8.93796
27.5417
23.3282
17.8536
11.2317
3.61175
-3.91623
-9.57885
-12.5412
-12.8543
-11.6858
-9.91349
-7.99536
-6.25272
-4.87235
-3.94913
-3.48125
-3.40096
-3.62226
-4.06829
-4.67736
-5.40131
-6.19906
-7.02492
1.74077
-7.70575
-14.4131
-17.2767
-16.7952
-14.4275
-11.7341
-8.93454
-6.41734
-4.49664
-3.26868
-2.64793
-2.48832
-2.65255
-3.03219
-3.54741
-4.13947
-4.75641
-5.34572
1.2483
-9.7309
-17.941
-21.1969
-20.2281
-16.7793
-12.8807
-9.67417
-6.49135
-4.07348
-2.64296
-1.98436
-1.83943
-2.02527
-2.41434
-2.90777
-3.42369
-3.89047
-4.24268
-19.3839
-29.7266
-32.386
-27.3994
-18.8932
-13.6574
-9.73393
-6.16825
-3.54746
-2.20207
-1.72729
-1.71104
-1.93279
-2.28383
-2.68534
-3.06403
-3.34822
-3.46479
-43.4099
-63.7906
-56.2557
-37.8263
-17.8156
-13.2784
-9.94268
-5.53871
-2.91321
-1.82041
-1.60047
-1.74988
-2.0433
-2.39506
-2.74438
-3.02021
-3.14967
-3.0605
-62.3249
-15.5275
-10.394
-8.023
-3.47876
-1.36009
-0.740925
-0.830573
-1.15927
-1.56484
-1.97784
-2.34782
-2.61271
-2.70649
-2.562
-8.83163
-2.70905
-2.36068
-0.250058
0.928566
1.00603
0.556227
-0.014589
-0.581748
-1.10719
-1.55465
-1.87587
-2.01856
-1.92908
-2.00006
1.37481
2.77705
2.92042
2.59554
2.05201
1.43068
0.809897
0.232187
-0.267175
-0.650154
-0.877732
-0.911478
12.0304
9.79373
6.92798
3.4566
-0.410269
-4.20253
-7.36051
-9.56814
-10.8625
-11.4686
-11.5649
-11.202
-10.3585
-9.02645
-7.33905
13.6395
11.1386
7.68903
3.21664
-2.01037
-7.22882
-11.3695
-13.9071
-15.0626
-15.3989
-15.2488
-14.6243
-13.3511
-11.3041
-8.72963
15.8886
13.2081
9.08895
3.24961
-4.0243
-11.3389
-16.7804
-19.5982
-20.3754
-20.2913
-19.9061
-19.102
-17.3341
-14.2379
-10.4056
-6.66563
-3.78716
-1.8863
-0.735475
-0.0979779
0.187922
0.236892
0.133856
19.028
16.443
11.7266
4.06488
-3.44581
-14.2815
-21.8609
-25.4596
-26.0724
-25.5868
-25.0501
-24.1615
-21.7427
-17.1209
-11.2778
-6.38446
-2.92128
-0.857851
0.286106
0.830499
0.982096
0.895495
0.678916
23.3226
21.5741
17.1953
9.05541
-4.69564
-23.841
-36.8213
-39.944
-36.3441
-33.3653
-32.6509
-32.7026
-29.4789
-21.4529
-11.8648
-4.79629
-1.22053
0.384256
1.12216
1.36046
1.27545
1.01129
0.668011
28.644
29.0828
24.7274
19.0527
-2.81308
-35.3051
-63.5637
-70.0646
-53.1748
-39.7178
-43.1749
-45.8449
-38.7367
-23.867
-9.39678
-2.58971
1.17734
2.24624
2.1938
1.72212
1.15266
0.584967
0.0497169
-0.418047
33.8753
37.2712
36.8711
37.5031
25.2287
-28.3998
-4.41731
-2.33094
-2.40838
0.348987
0.776606
0.251076
-0.326402
-0.809593
-1.24332
-1.62099
-1.88798
37.3559
42.3841
45.8873
53.6285
56.2616
-14.0616
-12.1219
-6.79079
-2.89269
-1.70262
-1.84427
-2.24071
-2.56364
-2.84488
-3.08136
-3.20912
38.3298
42.7406
46.7301
54.242
58.9872
-33.7095
-20.82
-14.3753
-7.66194
-3.87666
-2.37445
-2.12006
-2.27922
-2.5516
-2.8934
-3.25301
-3.53175
-3.64262
37.6156
40.5353
43.3623
46.045
43.0722
32.6086
16.117
7.7351
-1.32845
-22.9944
-41.5941
-44.3707
-41.074
-24.3838
-18.1909
-11.886
-7.19837
-4.01658
-2.45437
-1.89567
-1.82403
-1.99995
-2.32389
-2.72092
-3.12601
-3.45389
36.2229
37.8326
38.8087
38.1163
36.5037
29.2137
21.5764
14.1407
2.61451
-14.4891
-24.9363
-27.8414
-25.8681
-20.7637
-15.1439
-11.0091
-6.88069
-3.88964
-2.19136
-1.4714
-1.39671
-1.7057
-2.22007
-2.81763
-3.41144
-3.93082
34.7999
35.5003
35.494
34.2189
31.1408
26.6499
21.0869
14.4967
4.56777
-8.3911
-16.9645
-19.1474
-18.6884
-16.1966
-13.0233
-9.56052
-6.43362
-4.11622
-2.69526
-2.02894
-1.91032
-2.1475
-2.60319
-3.19686
-3.87884
-4.59891
33.5957
33.6786
33.096
31.5453
28.7741
24.7799
19.6855
13.8125
5.30537
-4.1645
-11.2779
-14.1466
-14.2526
-12.8893
-10.6742
-8.29252
-6.18117
-4.55548
-3.49896
-2.97983
-2.8999
-3.15025
-3.64058
-4.306
-5.10388
32.675
32.3164
31.3232
29.525
26.7781
23.0098
18.1054
11.9377
4.65017
-2.3227
-7.81273
-10.6101
-11.1098
-10.3426
-8.93592
-7.39859
-6.01378
-4.92771
-4.22425
-3.92029
-3.97906
-4.34491
-4.95768
-5.76471
-6.72743
32.0341
31.3422
30.016
27.953
25.0846
21.3639
16.6994
11.2199
5.27311
-0.215632
-4.82764
-7.71014
-8.66791
-8.36948
-7.59047
-6.70069
-5.88965
-5.27827
-4.94233
-4.90792
-5.1651
-5.69628
-6.46845
-7.44209
-8.57208
31.6486
30.6934
29.0737
26.7231
23.6345
19.8472
15.4181
10.5481
5.70862
1.37674
-2.46154
-5.28268
-6.61359
-6.78361
-6.52942
-6.165
-5.84222
-5.66139
-5.68256
-5.92195
-6.38072
-7.07489
-8.00035
-9.12485
-10.3975
31.4845
30.3185
28.4309
25.7735
22.4099
18.5107
14.2624
9.92994
5.88566
2.31273
-0.927051
-3.58656
-5.17017
-5.77188
-5.93328
-5.97913
-6.04798
-6.21634
-6.52892
-7.00025
-7.62027
-8.41713
-9.43192
-10.652
-11.9992
30.1603
28.0322
25.0551
21.3758
17.3382
13.2595
9.41696
5.97289
2.90472
0.0725701
-2.38909
-4.15152
-5.15198
-5.68931
-6.04871
-6.38999
-6.79932
-7.32191
-7.96318
-8.67999
-9.498
-10.5235
-11.778
-13.1494
27.8214
24.5491
20.5383
16.3248
12.4083
8.97061
5.96523
3.20855
0.646775
-1.68043
-3.59385
-4.94186
-5.77389
-6.31055
-6.78205
-7.30118
-7.91423
-8.6276
-9.3789
-10.1954
-11.2297
-12.5163
-13.9148
27.733
24.2341
19.9477
15.5751
11.7492
8.58413
5.87203
3.34433
0.950272
-1.31359
-3.35035
-4.96555
-5.98655
-6.5636
-7.04159
-7.58765
-8.24471
-9.00578
-9.79132
-10.6246
-11.6751
-12.982
-14.3981
24.0675
19.6335
15.1688
11.3784
8.34815
5.78133
3.40059
1.1037
-1.12829
-3.2452
-5.00095
-6.11283
-6.69935
-7.17324
-7.73286
-8.41355
-9.19492
-9.99287
-10.8348
-11.8933
-13.2055
-14.6265
24.0556
19.6199
15.1574
11.3718
8.3441
5.77671
3.39563
1.10028
-1.12886
-3.24198
-4.99456
-6.1057
-6.69165
-7.16427
-7.72301
-8.40348
-9.18456
-9.98206
-10.8244
-11.8844
-13.1983
-14.621
24.2006
19.9075
15.5372
11.7202
8.56087
5.84828
3.32126
0.932792
-1.32237
-3.34657
-4.95069
-5.96842
-6.54303
-7.01661
-7.55933
-8.21518
-8.97616
-9.76251
-10.5979
-11.6521
-12.9634
-14.3854
-15.871
24.5004
20.4812
16.268
12.3576
8.92622
5.92347
3.17225
0.623738
-1.69432
-3.59029
-4.91894
-5.74191
-6.27319
-6.73713
-7.24794
-7.85677
-8.57085
-9.3261
-10.147
-11.1871
-12.4818
-13.8914
-15.3719
24.9965
21.3078
17.2663
13.1859
9.34551
5.90866
2.85956
0.0697159
-2.38186
-4.13104
-5.11354
-5.64383
-5.99996
-6.33365
-6.73174
-7.24809
-7.89046
-8.61241
-9.43701
-10.4709
-11.7359
-13.1215
-14.6002
25.7076
22.3326
18.426
14.1694
9.83208
5.79664
2.25292
-0.940493
-3.56086
-5.11743
-5.70237
-5.86013
-5.90529
-5.97002
-6.12694
-6.43238
-6.9091
-7.53739
-8.34461
-9.37259
-10.6068
-11.9713
-13.4635
23.5565
19.7601
15.3194
10.4412
5.61001
1.30579
-2.48132
-5.25677
-6.55944
-6.70867
-6.44774
-6.07953
-5.75912
-5.57513
-5.58919
-5.83718
-6.30733
-7.01479
-7.95498
-9.09379
-10.381
-11.8443
-13.5105
25.0078
21.2779
16.6041
11.1321
5.2064
-0.269243
-4.82076
-7.66453
-8.60719
-8.29223
-7.49608
-6.59235
-5.77868
-5.16781
-4.83625
-4.8141
-5.08679
-5.63651
-6.42667
-7.41733
-8.56077
-9.87166
-11.3498
26.7009
22.9206
18.0028
11.9217
4.54846
-2.39896
-7.76906
-10.5399
-11.0671
-10.2915
-8.85949
-7.29783
-5.9054
-4.82533
-4.13523
-3.84837
-3.9255
-4.30878
-4.93716
-5.75647
-6.72967
-7.83591
-9.02896
28.691
24.6627
19.4286
12.8998
5.4624
-2.9636
-9.16566
-14.094
-14.2364
-12.831
-10.5593
-8.13482
-6.01567
-4.40967
-3.38271
-2.89542
-2.8462
-3.12302
-3.63425
-4.3152
-5.12533
-6.03525
-6.98774
4.76998
-6.34178
-14.0582
-19.1575
-18.8363
-16.2624
-12.9025
-9.34961
-6.22137
-3.93803
-2.55326
-1.92171
-1.83857
-2.11036
-2.59702
-3.21732
-3.92269
-4.66332
-5.37449
3.91189
-11.3257
-20.5353
-22.9948
-22.5667
-19.0009
-14.8667
-10.53
-6.48693
-3.65293
-2.08821
-1.4643
-1.45857
-1.81783
-2.36883
-2.99503
-3.61352
-4.15699
-4.55808
-15.4182
-31.1589
-32.2474
-30.6783
-22.5073
-16.8165
-11.2512
-6.50636
-3.55532
-2.24569
-1.89169
-1.96625
-2.24025
-2.62743
-3.06218
-3.48261
-3.82214
-3.99803
-47.8323
-65.7276
-47.9333
-25.22
-20.8354
-13.2361
-7.04869
-3.29152
-1.95475
-1.89517
-2.21736
-2.61113
-3.03801
-3.45914
-3.78928
-3.94093
-3.83699
-20.8975
-14.0141
-6.25377
-2.49685
-1.38375
-1.62711
-2.13428
-2.55243
-2.90682
-3.20043
-3.37448
-3.36198
-3.09849
-11.1575
-6.74374
-1.80057
0.931049
1.29802
0.678364
-0.0153827
-0.607001
-1.12871
-1.57666
-1.90119
-2.04313
-1.94113
-5.43851
-2.14529
1.56127
2.64221
2.54983
2.0056
1.35465
0.711197
0.110826
-0.412838
-0.815285
-1.04975
-1.07055
12.0151
9.73875
6.79082
3.19312
-0.751961
-4.4631
-7.37013
-9.25635
-10.2989
-10.816
-10.9862
-10.8153
-10.2175
-9.089
-7.47593
13.6266
11.0442
7.40376
2.62745
-2.8381
-7.93828
-11.5712
-13.4532
-14.0964
-14.2918
-14.3125
-14.072
-13.3162
-11.6825
-9.19061
15.9179
13.0975
8.60883
2.08651
-5.66659
-12.8609
-17.3774
-19.0176
-18.7978
-18.5421
-18.555
-18.5317
-17.8722
-15.5066
-11.5104
-7.36632
-4.059
-1.86617
-0.579153
0.0989885
0.383881
0.413814
0.28232
19.2041
16.4497
11.2377
4.20701
-6.77328
-17.1909
-23.2441
-25.3216
-23.1201
-22.217
-22.6041
-22.8234
-23.0646
-20.109
-14.1901
-7.51794
-3.40484
-0.914477
0.433799
1.05134
1.22131
1.1286
0.89244
23.8656
22.1938
16.4945
7.07917
-12.4416
-33.2346
-40.4934
-35.1471
-29.0354
-26.3911
-26.3905
-30.4772
-34.4388
-29.6236
-17.7626
-8.05091
-1.61325
0.674493
1.6244
1.88341
1.77643
1.48314
1.10732
29.7776
30.8851
26.8011
15.6238
-14.8837
-64.9736
-83.388
-52.4313
-23.0503
-21.2116
-20.0168
-39.8748
-60.6565
-40.8923
-18.5356
-6.58971
0.401371
2.71374
3.053
2.62584
2.02107
1.413
0.831764
0.308464
35.6089
36.6317
42.9366
39.6869
18.2657
-15.1887
-5.75461
-1.69203
1.44892
2.07004
1.33778
0.501968
-0.157859
-0.716333
-1.19179
-1.53089
39.4156
43.3887
54.5087
64.6869
-21.133
-15.4922
-8.16107
-2.7774
-0.683288
-0.921125
-1.55861
-2.07687
-2.5475
-2.98014
-3.28074
40.1549
44.5793
54.3428
64.4371
65.1072
-22.2045
-16.4812
-9.78171
-3.95056
-1.94962
-1.72243
-1.94846
-2.2198
-2.55383
-2.9408
-3.29648
-3.50949
39.0848
42.8963
47.3572
50.5872
45.8121
23.6284
14.9687
23.558
13.7497
-41.9519
-32.2604
-37.0672
-36.2213
-25.6899
-21.1966
-15.1443
-6.90165
-3.49273
-2.10199
-1.7902
-1.92918
-2.25641
-2.6823
-3.12894
-3.54459
-3.86426
37.2939
39.3805
40.7794
41.7042
37.2552
29.8466
25.782
23.3493
10.7779
-19.4979
-28.4985
-30.7432
-29.4551
-24.6782
-18.7534
-10.8424
-6.0037
-2.77243
-0.947288
-0.295849
-0.506339
-1.19187
-2.0826
-3.00508
-3.85151
-4.56722
35.6275
36.6141
36.8622
35.6411
32.9215
29.278
25.5879
21.0284
8.52387
-14.7597
-23.3074
-24.0025
-20.8165
-17.9431
-13.6506
-9.37461
-5.61779
-2.92111
-1.31263
-0.651778
-0.681415
-1.12412
-1.78695
-2.59556
-3.5302
-4.53429
34.319
34.6003
34.227
32.8798
30.4282
27.0664
23.4901
17.7401
5.67829
-8.58194
-17.025
-16.9387
-16.1815
-14.4712
-11.4864
-8.31791
-5.63445
-3.6689
-2.45261
-1.89385
-1.85044
-2.18245
-2.77524
-3.55925
-4.50636
33.3959
33.1832
32.3461
30.7291
28.2461
24.8998
21.3353
15.0686
5.62494
-3.23462
-10.756
-13.0357
-12.1391
-11.181
-9.30875
-7.29781
-5.55187
-4.24224
-3.43178
-3.09846
-3.18285
-3.61844
-4.32488
-5.23465
-6.30908
32.8272
32.2427
31.0055
29.0226
26.2656
22.6952
19.0699
13.1267
6.04741
-0.246746
-6.32045
-9.83244
-9.66141
-8.92188
-7.76115
-6.54099
-5.48819
-4.74357
-4.3582
-4.33021
-4.61681
-5.23561
-6.13901
-7.26309
-8.40092
32.5764
31.6944
30.0785
27.6572
24.4502
20.4769
15.6812
10.1329
5.05689
1.36256
-3.30603
-6.84901
-7.52103
-7.11787
-6.46473
-5.83636
-5.36625
-5.15629
-5.22845
-5.56439
-5.9893
-6.76347
-7.86403
-9.19686
-10.5973
32.597
31.4725
29.4886
26.5679
22.8314
18.5246
13.881
9.09639
5.01904
1.67696
-1.75432
-4.86184
-6.1227
-6.16321
-5.93563
-5.76764
-5.71831
-5.90762
-6.31903
-6.91615
-7.57108
-8.45221
-9.65372
-11.1223
-12.6037
31.5077
29.1774
25.7019
21.338
16.7072
12.2939
8.34282
5.10208
2.34599
-0.493871
-3.21686
-4.93291
-5.59231
-5.83959
-6.04278
-6.327
-6.794
-7.45852
-8.26754
-9.01555
-9.81333
-10.9445
-12.4151
29.0807
25.0779
20.0168
14.9575
10.8217
7.61072
5.10754
2.66555
0.218824
-2.2538
-4.32037
-5.63968
-6.28179
-6.64866
-7.05161
-7.57023
-8.25704
-9.09873
-9.80483
-10.5114
-11.6083
-13.0992
29.0966
24.6823
19.0449
13.6467
9.68897
6.98292
4.94205
2.79543
0.573272
-1.79025
-4.12231
-6.01833
-6.86729
-7.12536
-7.43286
-7.91473
-8.61107
-9.48207
-10.1945
-10.8872
-11.9903
-13.4984
24.4682
18.5336
12.9343
9.04939
6.58569
4.69764
2.80659
0.748211
-1.5237
-3.98514
-6.17209
-7.13505
-7.33889
-7.59879
-8.07548
-8.79091
-9.67204
-10.3854
-11.0788
-12.1875
-13.6943
-15.1413
24.4516
18.514
12.9223
9.04974
6.5894
4.6946
2.79944
0.742079
-1.526
-3.97866
-6.16073
-7.12564
-7.32876
-7.58484
-8.05926
-8.77542
-9.65604
-10.3679
-11.0629
-12.1744
-13.683
-15.1303
24.6377
18.9847
13.5972
9.66462
6.96994
4.91486
2.76182
0.543485
-1.80805
-4.11258
-5.99197
-6.8453
-7.09936
-7.39572
-7.87005
-8.56635
-9.43705
-10.1511
-10.8484
-11.9567
-13.4686
-14.9176
25.0164
19.9392
14.8866
10.7674
7.5688
5.0569
2.61162
0.174042
-2.28481
-4.3119
-5.60167
-6.23918
-6.60203
-6.99204
-7.49472
-8.17608
-9.01917
-9.73226
-10.4427
-11.5444
-13.043
-14.4868
-15.9291
25.6311
21.252
16.6194
12.2007
8.25158
5.00803
2.26319
-0.500127
-3.20946
-4.89594
-5.52989
-5.78068
-5.99026
-6.26387
-6.70815
-7.3631
-8.1736
-8.92699
-9.72912
-10.8684
-12.3485
-13.8008
-15.2946
26.4874
22.7333
18.4224
13.7567
8.94989
4.87603
1.58239
-1.75514
-4.79807
-6.02553
-6.04295
-5.83518
-5.68193
-5.62732
-5.78439
-6.1895
-6.79915
-7.45938
-8.35122
-9.56743
-11.0516
-12.5591
-14.1957
24.3606
20.3745
15.5477
9.95396
4.87689
1.74272
-2.17766
-5.49815
-7.43842
-7.00732
-6.35087
-5.72572
-5.28001
-5.04663
-5.12825
-5.49248
-5.91294
-6.69285
-7.80626
-9.1531
-10.5678
-12.3022
-14.4777
26.1815
22.5983
17.6965
12.0107
5.91445
0.59309
-4.6217
-8.24454
-9.53717
-8.7822
-7.61099
-6.39088
-5.35973
-4.61572
-4.24736
-4.23798
-4.54006
-5.17903
-6.1037
-7.25516
-8.394
-9.90079
-11.8015
28.1646
24.8061
19.9397
13.7537
5.67212
-1.65216
-8.32156
-11.4349
-12.0343
-11.0898
-9.21291
-7.19741
-5.46316
-4.16946
-3.37744
-3.06306
-3.16486
-3.61433
-4.32916
-5.2436
-6.31629
-7.59034
-9.0081
30.3431
26.9616
22.1945
16.0644
5.64165
-5.8213
-13.7141
-14.8598
-15.9389
-14.1703
-11.1848
-8.05485
-5.43497
-3.53767
-2.37569
-1.85867
-1.84796
-2.20123
-2.80358
-3.58878
-4.5359
-5.63538
-6.81199
6.79189
-8.86888
-19.6029
-19.7063
-21.1938
-18.0718
-13.5609
-9.19914
-5.50608
-2.8866
-1.32
-0.682484
-0.731486
-1.19041
-1.86011
-2.67349
-3.61584
-4.62597
-5.60537
10.3821
-15.9905
-22.3998
-26.28
-25.8742
-22.4935
-16.7101
-10.6321
-5.99297
-2.94957
-1.23288
-0.619291
-0.830423
-1.49913
-2.36545
-3.27241
-4.1174
-4.82988
-5.33189
-22.416
-34.7828
-33.1498
-31.4889
-25.6881
-19.7335
-13.2149
-6.72184
-3.60228
-2.42958
-2.29001
-2.53005
-2.8935
-3.32215
-3.75375
-4.13125
-4.40819
-4.52821
-54.1464
-26.9848
-37.2288
-38.2697
-26.9641
-23.6362
-15.708
-9.1724
-3.86742
-2.01249
-1.95452
-2.3128
-2.66121
-3.02716
-3.41451
-3.7565
-3.95943
-3.9328
-22.6372
-15.4351
-9.11878
-2.63201
-0.544969
-0.845367
-1.57171
-2.16078
-2.67698
-3.1433
-3.48151
-3.60654
-3.44971
-20.2218
-10.3054
-4.72264
1.69509
2.23888
1.40294
0.462302
-0.282778
-0.898634
-1.41272
-1.78088
-1.94421
-1.84199
-15.4128
-4.83622
0.711185
2.9717
3.2461
2.74356
2.06566
1.39535
0.76462
0.201242
-0.246377
-0.525531
-0.584798
12.0043
9.70865
6.71544
3.05186
-0.916682
-4.52171
-7.19456
-8.78563
-9.61513
-10.0731
-10.3073
-10.2837
-9.88625
-8.95951
-7.45852
13.6054
10.9659
7.20274
2.23548
-3.36425
-8.30917
-11.5072
-12.7378
-13.029
-13.1927
-13.3496
-13.3653
-12.987
-11.772
-9.46131
15.9084
12.9661
8.21775
1.19658
-6.91665
-13.8769
-17.6916
-17.7858
-17.0864
-16.9296
-17.185
-17.6101
-17.7495
-16.2241
-12.3694
-7.90379
-4.22958
-1.78355
-0.392096
0.30166
0.564233
0.554911
0.375732
19.2653
16.2927
10.6003
2.36024
-9.48353
-19.6081
-26.1807
-22.7295
-20.3098
-19.6286
-20.131
-22.0078
-22.9704
-22.4578
-16.6918
-8.54432
-3.73628
-0.819448
0.682042
1.33302
1.48983
1.35856
1.06951
24.1468
22.264
15.8709
4.0704
-20.3345
-39.6847
-40.0005
-29.8757
-24.8376
-22.9605
-22.4661
-25.4128
-34.2296
-36.8181
-23.8791
-10.7887
-1.82071
1.21587
2.31535
2.54424
2.36745
1.99271
1.52933
30.6908
29.1718
28.19
9.66649
-37.7727
-79.1799
-79.1991
-21.4877
-21.3569
-21.4145
-18.5715
-18.1495
-56.1404
-76.0802
-35.1903
-9.52355
-1.27283
3.39492
4.24327
3.85591
3.12894
2.38473
1.67237
1.01883
37.3994
40.2456
47.4095
45.457
-8.8891
-0.254401
3.08585
4.34888
3.70375
2.62533
1.67395
0.844818
0.116946
-0.457894
41.5015
47.985
62.5464
80.5169
-14.2136
-5.5119
-1.23771
1.01365
0.835026
0.0810888
-0.570493
-1.16167
-1.71874
-2.167
41.9333
48.6017
60.8428
76.0973
-16.0369
-8.73084
-2.61415
-0.544575
-0.683002
-1.28734
-1.82263
-2.34311
-2.86167
-3.31546
-3.60891
40.3755
44.9983
51.3
52.8243
39.3848
19.3221
27.0591
43.5882
48.9588
-42.8774
-37.7299
-33.8099
-26.922
-21.8119
-13.2912
-3.50599
-0.356055
0.968789
1.01328
0.434392
-0.391202
-1.346
-2.3157
-3.17883
-3.86418
38.2276
40.7278
42.4351
43.5144
37.4787
31.4067
32.6224
38.3717
44.1445
-42.3733
-32.5957
-30.9378
-25.4466
-18.6679
-8.38245
-3.53559
-0.903334
0.853498
1.57471
1.32379
0.521177
-0.522573
-1.63052
-2.69237
-3.65063