/*--------------------------------*- C++ -*----------------------------------*\
  =========                 |
  \\      /  F ield         | OpenFOAM: The Open Source CFD Toolbox
   \\    /   O peration     | Website:  https://openfoam.org
    \\  /    A nd           | Version:  13
     \\/     M anipulation  |
\*---------------------------------------------------------------------------*/
FoamFile
{
    format      ascii;
    class       volScalarField;
    location    "400";
    object      nut;
}
// * * * * * * * * * * * * * * * * * * * * * * * * * * * * * * * * * * * * * //

dimensions      [0 2 -1 0 0 0 0];

internalField   nonuniform List<scalar> 
171247
(
0.00115821
0.000182894
0.00668006
0.00669958
0.00664038
0.00647496
0.00617155
0.00572609
0.00516361
0.00446555
0.00565509
0.00398242
0.0033606
0.00358853
0.00191342
0.00180368
0.000826113
0.00207784
0.00731176
0.00716914
0.00697524
0.00670947
0.0063745
0.00598549
0.00562867
0.00538554
0.00496204
0.00718622
0.00584254
0.00535404
0.00369107
0.00263156
0.00228962
0.00179637
0.00176081
0.00869154
0.00835197
0.00800002
0.00763213
0.00727843
0.00699616
0.00681764
0.00689986
0.00756505
0.00928796
0.00898687
0.00869608
0.00639644
0.00487083
0.00410558
0.00380171
0.00341874
0.00394537
0.0101858
0.00981178
0.00947697
0.00916903
0.00889068
0.00873597
0.00884257
0.00939088
0.0106504
0.0134178
0.0132113
0.0128148
0.0124311
0.0107721
0.00892785
0.00770506
0.0073548
0.00733991
0.00713836
0.00659383
0.00579444
0.00521637
0.0116976
0.0115318
0.0114225
0.011335
0.0113374
0.011554
0.0121067
0.0131517
0.0148768
0.0161875
0.0157694
0.0153582
0.0149617
0.0145724
0.0141575
0.0124219
0.0108865
0.0105414
0.0111196
0.0107348
0.0101924
0.0097739
0.013772
0.0138345
0.0140766
0.0144303
0.0148338
0.0153182
0.0159452
0.0167316
0.0176222
0.0182436
0.0180101
0.0177497
0.0174741
0.0171922
0.0169078
0.0166221
0.0161794
0.0146013
0.0139183
0.0139707
0.0146576
0.0144571
0.0141164
0.0138172
0.0163004
0.0169189
0.0178173
0.018722
0.0193286
0.0193212
0.019292
0.0192497
0.0191821
0.0188249
0.0186128
0.0187148
0.0187852
0.0186457
0.0184971
0.0183434
0.0181865
0.0175023
0.0167917
0.0168058
0.017336
0.01734
0.0171706
0.0170068
0.019501
0.0195039
0.0195031
0.0195022
0.0195033
0.0195064
0.0194119
0.018548
0.0176733
0.017035
0.0167219
0.0167395
0.0170073
0.0173957
0.0177547
0.0179615
0.0179628
0.0178096
0.0176987
0.0178647
0.018378
0.0188731
0.0188044
0.0187328
0.0193801
0.0193823
0.0193872
0.0193967
0.0194122
0.0194362
0.0177776
0.0164884
0.0156404
0.0151757
0.0150203
0.0150874
0.0153281
0.0156916
0.0161222
0.0165406
0.0168545
0.0170372
0.017191
0.017481
0.0179989
0.0187401
0.0194767
0.0194586
0.0191641
0.0191621
0.0191656
0.0191754
0.0191951
0.0183264
0.0164634
0.0151978
0.0144397
0.0140762
0.0139836
0.0140811
0.0143037
0.0146189
0.0150164
0.0154459
0.0158155
0.0160755
0.0162934
0.0166027
0.0170807
0.0177242
0.0184994
0.0193731
0.0189551
0.0189484
0.0189471
0.0189532
0.0189701
0.0174428
0.0156458
0.0144473
0.0137607
0.0134413
0.0133902
0.0135171
0.0137407
0.0140265
0.0143871
0.0147911
0.015144
0.0153928
0.0155989
0.0158817
0.0163087
0.0168734
0.017542
0.0182847
0.018809
0.0187978
0.0187917
0.0187934
0.018806
0.016902
0.0151457
0.0140007
0.0133369
0.0130481
0.0130376
0.0132104
0.0134718
0.0137784
0.0141456
0.0145475
0.0148881
0.0151183
0.0153066
0.0155695
0.0159704
0.0164996
0.0171207
0.017807
0.0188087
0.0187973
0.0187909
0.0187923
0.0188047
0.0168552
0.0150942
0.0139355
0.0132655
0.0129792
0.0129844
0.0131886
0.0134966
0.0138605
0.0142856
0.0147296
0.0150843
0.0153027
0.0154697
0.0157141
0.0161018
0.0166218
0.0172374
0.0179233
0.0189438
0.0189424
0.0189484
0.0189653
0.0173151
0.0155071
0.014286
0.013591
0.0132923
0.0133023
0.0135365
0.0139111
0.0143792
0.0149309
0.0154806
0.0158924
0.0161178
0.0162626
0.0164858
0.016869
0.017404
0.0180543
0.0187901
0.0191522
0.0191559
0.0191658
0.0191858
0.0181653
0.0162685
0.0149741
0.0141953
0.0138738
0.0138887
0.0141666
0.0146359
0.0152438
0.0159786
0.0167043
0.017243
0.0175219
0.0176629
0.0178755
0.0182761
0.0188704
0.0195532
0.0195591
0.0193699
0.0193754
0.0193856
0.0194022
0.0194249
0.0175548
0.0162099
0.0153521
0.0149133
0.0148956
0.0151999
0.015787
0.0165983
0.0175699
0.0184999
0.0191669
0.0194657
0.0195352
0.0195249
0.0195115
0.0194944
0.0194735
0.0194485
0.0195005
0.0195012
0.0195019
0.019505
0.0195108
0.0192717
0.0182628
0.0173785
0.016806
0.0165966
0.0168707
0.0175618
0.0185981
0.0193359
0.0192779
0.0192147
0.0191496
0.0190845
0.0190201
0.0189559
0.0188915
0.0188263
0.01876
0.0179311
0.0188316
0.0193645
0.0193467
0.01932
0.0192801
0.01915
0.0188404
0.0187315
0.0189433
0.0188139
0.0186707
0.0185183
0.0183615
0.0182048
0.0180518
0.0179036
0.0177605
0.017623
0.0174916
0.0173662
0.0172459
0.0141359
0.0144842
0.0148938
0.0154016
0.0160739
0.0169384
0.0179348
0.0182511
0.0180052
0.0177337
0.0174495
0.0171635
0.0168801
0.0166054
0.01634
0.0160816
0.0158197
0.0155555
0.0152992
0.0150605
0.0148443
0.0146506
0.0115114
0.0113913
0.0112866
0.011272
0.01148
0.0120413
0.0131242
0.014974
0.0160633
0.0156284
0.0152094
0.0148178
0.0144546
0.0141062
0.0137536
0.0133737
0.0128682
0.012334
0.0118477
0.0114391
0.0111102
0.010852
0.00956797
0.00922403
0.00891255
0.00864932
0.00850349
0.00862044
0.00918834
0.0105066
0.0130744
0.0129128
0.0125224
0.0121752
0.0118301
0.0114457
0.0101165
0.00907235
0.00856866
0.00821362
0.00765496
0.00729715
0.00708563
0.00660202
0.0078997
0.00758836
0.00727094
0.00696594
0.00674488
0.0066477
0.00680235
0.0075022
0.00775019
0.0103713
0.0103528
0.0102305
0.00903302
0.00737863
0.00617631
0.00562406
0.00488315
0.00441971
0.00377614
0.00341216
0.00343596
0.00349756
0.0070181
0.00685926
0.00663745
0.00634751
0.00600914
0.00567103
0.00542461
0.00496999
0.00751215
0.00701367
0.00576702
0.00488499
0.00408332
0.00366868
0.00327743
0.00278668
0.00272656
0.00248079
0.00301881
0.00342319
0.00406662
0.0047982
0.00690568
0.00683752
0.00665932
0.00634301
0.00586626
0.00526324
0.00449976
0.00647315
0.00454922
0.0042552
0.00401654
0.00279342
0.00208356
0.00203913
0.00155638
0.00180908
0.00279936
0.00489492
0.00630467
0.0065965
0.00700061
0.00741727
0.00651779
0.00667868
0.00683531
0.00642875
0.00586523
0.00498527
0.00396983
0.00520452
0.00332814
0.00255039
0.00211911
0.00166415
0.000573841
0.00081636
0.00156723
0.00533174
0.00679955
0.00644095
0.00630622
0.00645408
0.00709178
0.00750505
0.0050237
0.00520648
0.0053846
0.00555945
0.00573605
0.00592759
0.00605781
0.00336804
0.00243493
0.00302409
0.0011374
0.000342157
0.000524159
0.00389813
0.00771794
0.00770516
0.00803319
0.00834006
0.00855775
0.00880467
0.00384673
0.003998
0.00415013
0.00430459
0.00447393
0.00468062
0.00493319
0.00512544
0.00304869
0.00278873
0.00223636
0.00148788
0.0007932
0.000695874
0.00297285
0.00722526
0.00788728
0.00904712
0.00926678
0.00962125
0.00998332
0.0104322
0.00298853
0.00310581
0.00322745
0.00335425
0.00349132
0.00365115
0.00386707
0.00413051
0.0043614
0.00475735
0.0048628
0.00332392
0.00260801
0.00228759
0.00187559
0.00192338
0.00216216
0.00261968
0.00328405
0.00374261
0.00436233
0.00524348
0.00296865
0.00306818
0.00320303
0.00338405
0.00358028
0.0037581
0.00410318
0.00431555
0.00425367
0.00379311
0.00326378
0.0029416
0.00294857
0.00308397
0.00323804
0.00295623
0.00301062
0.00306117
0.00359109
0.00355508
0.00355048
0.00357682
0.00361691
0.00367883
0.0037496
0.00380442
0.00382094
0.00378891
0.00371719
0.00358077
0.00351252
0.00349876
0.00352225
0.00357305
0.00364465
0.00544602
0.00553262
0.0055528
0.00548447
0.00530776
0.00500004
0.00458639
0.00478344
0.00347711
0.00300367
0.00171512
0.000482146
0.00549498
0.00548572
0.00543245
0.00532629
0.00516251
0.00496433
0.00473676
0.00416623
0.00512839
0.00453925
0.00443985
0.00312885
0.00264549
0.00190729
0.00170248
0.00175164
0.00167553
0.00640905
0.0061329
0.0058658
0.00560145
0.00537452
0.0052217
0.00516103
0.00535137
0.00514671
0.00676692
0.00721171
0.00721811
0.00679569
0.00611443
0.00561879
0.00492062
0.00431692
0.00406168
0.00856728
0.00805245
0.00758897
0.00716784
0.00680924
0.0066103
0.00663631
0.00699726
0.00809773
0.00912641
0.00898386
0.00883988
0.00871226
0.00857532
0.00839875
0.00815722
0.00769884
0.00743739
0.00692642
0.00663143
0.00648159
0.0064296
0.0106794
0.0102538
0.00985167
0.00942994
0.00909192
0.00898568
0.00918572
0.00984465
0.0112525
0.0113975
0.0110535
0.0107683
0.0105362
0.0103399
0.0101628
0.0099898
0.00980893
0.00956893
0.00936569
0.00914225
0.00895679
0.00881214
0.0129077
0.0127052
0.0126103
0.0124965
0.0123281
0.0122054
0.0122581
0.0125828
0.0132766
0.0145592
0.0142328
0.0138298
0.0134627
0.0131378
0.0128522
0.0126015
0.0123819
0.0121895
0.0120182
0.0118611
0.0117202
0.0115964
0.0114897
0.011399
0.0149371
0.0153086
0.0158234
0.0160748
0.0159245
0.0155978
0.0153033
0.0151785
0.015265
0.0156759
0.0164942
0.0162196
0.0159431
0.0156747
0.0154213
0.0151865
0.0149731
0.0147835
0.0146179
0.0144751
0.0143526
0.0142473
0.0141559
0.0140757
0.0186461
0.0185537
0.0184722
0.0184102
0.0183549
0.0172519
0.0162443
0.0155598
0.0151969
0.015129
0.0153761
0.0158777
0.0165764
0.0174065
0.0172614
0.0171179
0.0169801
0.0168517
0.0167351
0.0166316
0.0165395
0.0164571
0.0163825
0.0163139
0.0185443
0.0184994
0.018471
0.0184533
0.0184429
0.0169671
0.0155255
0.0146306
0.0141786
0.0140557
0.0141951
0.0144954
0.0149198
0.0154526
0.0161199
0.0168215
0.0174119
0.0178081
0.0177894
0.0178989
0.0178561
0.0178149
0.0177748
0.017735
0.0180917
0.0180694
0.018063
0.0180662
0.0180816
0.016611
0.0150838
0.0140942
0.0135513
0.0133572
0.0134203
0.0136392
0.0139186
0.0142636
0.0147387
0.0152888
0.0157511
0.0160262
0.0162173
0.0165123
0.0169958
0.0176368
0.0182557
0.0182539
0.0176092
0.0175911
0.0175835
0.0175871
0.0176048
0.0162268
0.0146935
0.013691
0.0131299
0.0129238
0.0129767
0.0132002
0.01344
0.0136893
0.0140491
0.0144849
0.0148321
0.0150143
0.0151433
0.0153838
0.0158097
0.0163835
0.0170448
0.017756
0.0171814
0.0171602
0.0171478
0.017147
0.0171608
0.0158696
0.0143208
0.0133098
0.0127489
0.0125579
0.0126458
0.0129226
0.0132012
0.0134502
0.0137845
0.0141664
0.0144475
0.0145685
0.0146506
0.0148483
0.0152256
0.0157453
0.0163493
0.0170022
0.0171821
0.0171599
0.0171465
0.0171447
0.0171576
0.0158307
0.0142703
0.0132416
0.0126662
0.0124692
0.0125646
0.0128681
0.013196
0.0135119
0.0139161
0.0143581
0.0146238
0.0147196
0.014775
0.0149543
0.01532
0.0158308
0.0164266
0.0170717
0.0175872
0.0175791
0.0175823
0.0175997
0.0161203
0.0145679
0.0135323
0.0129494
0.0127479
0.012848
0.0131758
0.0135798
0.0140302
0.0145866
0.0151605
0.0155334
0.0156481
0.0156883
0.015858
0.0162326
0.0167647
0.0173893
0.0180658
0.0180632
0.0180572
0.0180609
0.0180771
0.0164819
0.0149192
0.0138849
0.0133164
0.013139
0.0132884
0.0136796
0.0142044
0.0147912
0.0156044
0.0164497
0.0170444
0.017265
0.0173181
0.0174807
0.0178635
0.0182679
0.0182647
0.0182577
0.0184945
0.0184685
0.0184535
0.0184462
0.0168743
0.0153589
0.0143843
0.0138752
0.0137461
0.0139636
0.0144538
0.0151886
0.0160698
0.0172311
0.0181411
0.0180869
0.0180321
0.0179802
0.0179313
0.0178847
0.0178396
0.0177954
0.0177514
0.0185725
0.0184958
0.0184396
0.0183909
0.0171839
0.01606
0.0152567
0.0147931
0.0146645
0.014927
0.0155745
0.0166179
0.0175028
0.0173557
0.0172086
0.0170664
0.0169337
0.0168135
0.0167078
0.0166139
0.0165301
0.0164544
0.0163846
0.0159494
0.016171
0.0159787
0.0155723
0.0151658
0.014917
0.0148701
0.0151486
0.0158988
0.0163352
0.0160497
0.0157726
0.0155119
0.0152715
0.0150548
0.0148646
0.014702
0.0145658
0.0144539
0.0143623
0.014286
0.0142204
0.0126953
0.0125385
0.0123305
0.0121599
0.0121484
0.0123905
0.0129705
0.0140814
0.0142593
0.0138318
0.0134488
0.0131159
0.0128286
0.0125816
0.0123714
0.0121963
0.012054
0.0119385
0.0118466
0.0117757
0.0117216
0.0116793
0.0102116
0.00976817
0.00930243
0.00892039
0.00876518
0.00890413
0.00946396
0.0106909
0.011231
0.0108835
0.0106016
0.0103794
0.0101972
0.0100434
0.00990893
0.00978989
0.00967789
0.00955635
0.00944562
0.00935796
0.00929367
0.00924867
0.00767321
0.00721508
0.006808
0.00647738
0.00629501
0.0063302
0.00667421
0.00763089
0.00861836
0.00874456
0.00861538
0.00850664
0.00839933
0.0082796
0.00813993
0.00797526
0.00775833
0.00738753
0.00713246
0.00697713
0.00689421
0.00686096
0.00573847
0.00552479
0.00532037
0.00513414
0.00503317
0.00502554
0.00523214
0.00544232
0.0076384
0.00764581
0.00761255
0.0075072
0.0073291
0.00707864
0.00676289
0.0063685
0.00584093
0.00463504
0.00467804
0.00480198
0.00474485
0.00447921
0.00532205
0.00528717
0.00519907
0.00507135
0.00489346
0.00470094
0.00415278
0.00666563
0.00523564
0.00569437
0.00479017
0.00505174
0.00449937
0.00396175
0.00359628
0.00329366
0.00325166
0.00359049
0.00437182
0.00505788
0.00561688
0.00591356
0.00548777
0.00549965
0.00542779
0.0052523
0.00494634
0.00454451
0.00697049
0.00384068
0.00357963
0.0045636
0.00164904
0.00199302
0.00123816
0.00181288
0.00140937
0.00127802
0.001854
0.00261028
0.00312376
0.00591858
0.00585721
0.00639671
0.00581411
0.00581855
0.00571805
0.00548005
0.00500891
0.00416798
0.00584865
0.00318768
0.00346039
0.00199086
9.26777e-05
0.000900872
0.00379417
0.00343938
0.00423652
0.0058424
0.0065011
0.00532944
0.00535817
0.00531037
0.00515776
0.00476669
0.00395188
0.00502623
0.00283143
0.00209176
0.00100939
0.00330534
0.00405959
0.00601729
0.00844773
0.00915298
0.00452726
0.00473081
0.00493273
0.00514116
0.00536962
0.0052176
0.00522548
0.00341234
0.00278119
0.00194889
0.000132309
0.00251284
0.00696121
0.00809711
0.00921711
0.00733505
0.00802541
0.0033105
0.00346527
0.00363203
0.0038221
0.00404675
0.00432916
0.004644
0.00424049
0.00402681
0.00445746
0.00237855
0.00177325
0.00122168
0.00112409
0.00136242
0.00166925
0.00236695
0.00384235
0.00427297
0.00495208
0.00529762
0.00558031
0.00347481
0.00363314
0.00385321
0.00373907
0.00415524
0.00458882
0.00446225
0.00390493
0.0035079
0.00317232
0.00290036
0.00266324
0.0025727
0.00292328
0.00307014
0.00324337
0.00341206
0.00346409
0.00435794
0.00419411
0.00424097
0.00408804
0.00445927
0.00448534
0.00446326
0.0044138
0.00434429
0.00426532
0.00418942
0.00412051
0.0040563
0.00403108
0.00404445
0.00407854
0.00412945
0.00671885
0.00689826
0.00697186
0.00674086
0.00640337
0.00578319
0.0048515
0.00405669
0.002998
0.00166524
0.000124119
0.00599443
0.00602885
0.00599779
0.00591539
0.00573691
0.00547167
0.00523083
0.00505016
0.00414003
0.0042022
0.00284388
0.0021724
0.00189963
0.00174036
0.00163797
0.00156835
0.00164195
0.00179835
0.00472215
0.00477226
0.00478096
0.0047573
0.00475997
0.00477254
0.00488881
0.00494701
0.00583869
0.00631375
0.00689057
0.00622467
0.00572914
0.0053163
0.00489504
0.00447446
0.00408882
0.0038008
0.00572998
0.00544217
0.00519255
0.0049689
0.00477821
0.00467266
0.00471207
0.00489431
0.00535623
0.00589817
0.00708185
0.00713671
0.00714957
0.00715438
0.00710939
0.00701408
0.00688156
0.00673203
0.00657052
0.00813493
0.00764946
0.00720192
0.006707
0.00621554
0.00586847
0.00575028
0.00582642
0.00617034
0.00681808
0.00752357
0.00752222
0.00753952
0.00757072
0.00759872
0.00736008
0.00764259
0.00764184
0.0076392
0.00763072
0.00761549
0.0076052
0.00760435
0.0104946
0.0101833
0.00973049
0.00908089
0.00843506
0.00793747
0.00769388
0.00774968
0.00789583
0.00834836
0.00891336
0.00885025
0.00874272
0.00867156
0.00862552
0.00859952
0.00858879
0.00859451
0.00861628
0.00841234
0.00817891
0.00805244
0.00797018
0.00790935
0.0124659
0.0126353
0.0125808
0.0118723
0.0110109
0.0103258
0.00988935
0.01012
0.0103687
0.010685
0.0110935
0.0108763
0.010689
0.0105331
0.0104055
0.0103064
0.0102327
0.0101851
0.0101613
0.0101593
0.0100871
0.00980722
0.00962889
0.00949694
0.014982
0.0146602
0.0144283
0.0142855
0.0136306
0.0124827
0.0116503
0.011448
0.0117545
0.0120041
0.0125966
0.0129823
0.0128147
0.0126613
0.0125232
0.0124009
0.0122969
0.0122139
0.0121542
0.0121173
0.0120983
0.0120922
0.0120955
0.0121049
0.0154943
0.0153177
0.015212
0.0151217
0.0150387
0.0141703
0.0128892
0.0122627
0.0120174
0.0120615
0.0125218
0.0131071
0.0136557
0.0141725
0.0142536
0.014177
0.0141065
0.0140475
0.0140032
0.0139729
0.0139535
0.0139415
0.0139346
0.0139313
0.015025
0.014964
0.0149398
0.0149306
0.014928
0.0149397
0.0137733
0.0129049
0.0123523
0.0122225
0.0124082
0.0128607
0.0132268
0.0135694
0.0141013
0.0148208
0.0150543
0.0150578
0.0150663
0.0150798
0.0150957
0.0151121
0.0151279
0.0151422
0.0142439
0.0142219
0.0142194
0.0142354
0.0142694
0.0143219
0.0136253
0.0125856
0.0119853
0.0118159
0.0119333
0.0123416
0.0126309
0.012846
0.0132535
0.0138124
0.0142227
0.0143146
0.0142772
0.0143091
0.0145711
0.0150308
0.0153588
0.0154061
0.0132488
0.013238
0.0132426
0.0132657
0.0133074
0.01337
0.0133361
0.0121926
0.0115311
0.0113302
0.0114717
0.0119517
0.0123177
0.0125289
0.01287
0.0133205
0.0135832
0.0135691
0.0134826
0.0135016
0.0137464
0.014183
0.0147249
0.0149036
0.0132422
0.0132295
0.0132322
0.0132535
0.0132935
0.0133543
0.0133011
0.0121319
0.0114435
0.0112165
0.0113422
0.0118223
0.0122318
0.0125321
0.0129493
0.0134447
0.0136863
0.0136237
0.0135053
0.0135086
0.0137463
0.014176
0.0147098
0.014893
0.014212
0.0142097
0.0142264
0.0142615
0.0143148
0.0135668
0.0124697
0.0118141
0.0116052
0.0117198
0.0121922
0.0126711
0.0132081
0.013845
0.0145315
0.0148836
0.0148048
0.014618
0.0145471
0.0147399
0.0151426
0.0153575
0.0154026
0.0149817
0.0149601
0.0149541
0.0149582
0.0149761
0.0137142
0.0127506
0.0121451
0.011966
0.01218
0.012708
0.0133574
0.0140766
0.0149194
0.0151191
0.015111
0.0151067
0.0151085
0.015116
0.015127
0.0151382
0.0151484
0.0151568
0.0153841
0.0152811
0.0151944
0.0151141
0.0142665
0.0129321
0.0121585
0.0118074
0.0117314
0.0121158
0.0127465
0.0135452
0.0144091
0.0143785
0.0142923
0.0142103
0.0141394
0.0140838
0.0140429
0.0140136
0.0139925
0.0139769
0.0139645
0.014717
0.0144901
0.0143581
0.0138784
0.0126707
0.01174
0.0113222
0.0115069
0.0115394
0.0119184
0.012416
0.0129948
0.0128385
0.0126911
0.012556
0.0124379
0.0123404
0.0122673
0.0122178
0.0121879
0.0121725
0.0121665
0.0121661
0.0129258
0.0121827
0.011269
0.0105058
0.00997307
0.00996796
0.010154
0.0102126
0.0105161
0.0108886
0.0108652
0.0106943
0.0105511
0.0104341
0.0103449
0.0102839
0.0102489
0.0102381
0.00993434
0.00952297
0.00921747
0.009028
0.00993928
0.0092308
0.00853105
0.00797561
0.00766505
0.00756546
0.00769305
0.00793698
0.00839034
0.00871192
0.00872727
0.00863567
0.00866573
0.00863199
0.00861476
0.00861553
0.00857082
0.00816242
0.00784116
0.00757793
0.0074095
0.00734665
0.00713814
0.00662139
0.00611661
0.00575233
0.00560789
0.00564587
0.00590692
0.00644871
0.00712197
0.00750865
0.00752463
0.0074233
0.00754575
0.00692244
0.0074539
0.00764616
0.00766676
0.00759187
0.00734047
0.00712357
0.0069937
0.00695187
0.0049669
0.00476581
0.00460436
0.0045196
0.00457002
0.00476099
0.00513676
0.00597183
0.006704
0.00709076
0.00709959
0.00702343
0.00707906
0.00700768
0.00691025
0.00681031
0.00671393
0.00661665
0.00648189
0.0064061
0.00637543
0.00637645
0.00470132
0.00472966
0.0047159
0.00472891
0.00474983
0.00486816
0.0049615
0.00514245
0.00713752
0.00705376
0.00684743
0.00663529
0.00641744
0.00616874
0.00589871
0.00563309
0.00538675
0.00509331
0.00421322
0.00426664
0.00437401
0.00452447
0.00594405
0.00592245
0.00583469
0.00567432
0.00543617
0.0052062
0.00637343
0.00487187
0.0051842
0.00578438
0.0046943
0.00419548
0.0038312
0.00349517
0.00321618
0.00301856
0.00291828
0.00294365
0.00328324
0.00350225
0.00388876
0.00433135
0.0067352
0.00683803
0.0066408
0.00632179
0.00573565
0.00481539
0.00490452
0.00368541
0.00381522
0.00248245
0.0017607
0.00136534
0.00131553
0.0012772
0.00126787
0.00143567
0.00138909
0.00202861
0.00373487
0.00459204
0.00472378
0.00505923
0.00685874
0.00700949
0.00718486
0.0073448
0.00664919
0.00690868
0.00382478
0.00258937
0.00199013
0.000453896
0.0021623
0.00307054
0.00461504
0.0052996
0.00605901
0.00613373
0.00621464
0.00630104
0.00640012
0.00462046
0.00316765
0.00244873
0.000407266
0.000989057
0.00348538
0.00673506
0.009183
0.0041605
0.00429464
0.00444114
0.00462039
0.00486661
0.00425841
0.00309338
0.00220071
0.0016719
0.00151085
0.00375872
0.00582385
0.00857117
0.00990627
0.0032267
0.00333467
0.00345115
0.00358374
0.00376467
0.00402709
0.00421539
0.00270606
0.00266797
0.00189757
0.000826524
0.00130465
0.00124804
0.00124382
0.00128421
0.00165107
0.0014629
0.0020832
0.00263095
0.00331887
0.00391322
0.00458119
0.00405411
0.00415925
0.00388559
0.00431161
0.00344183
0.00397757
0.00404711
0.0038263
0.00360601
0.00340197
0.00323678
0.00315847
0.00312485
0.00313494
0.00377946
0.00385848
0.00396395
0.00410055
0.00560995
0.00535654
0.00495308
0.00526552
0.0055189
0.00543534
0.00536803
0.00530741
0.00525052
0.00520131
0.00517747
0.00518625
0.00521554
0.00525431
0.00530294
0.0053642
0.00543995
0.00610284
0.00613476
0.00614671
0.00613486
0.00611893
0.00610496
0.00602754
0.00298136
0.00210507
0.000284673
0.00604594
0.00622437
0.00640992
0.00658617
0.00675436
0.00691656
0.00534861
0.00406736
0.00331812
0.00234002
0.00179436
0.0016823
0.00169735
0.00202087
0.00201157
0.00170415
0.00154726
0.0015123
0.00501644
0.00523572
0.00548442
0.00577569
0.00611761
0.0060794
0.00568982
0.00509442
0.00508833
0.00587318
0.00482397
0.00433376
0.00411208
0.00393466
0.00373592
0.00354662
0.00337564
0.00323512
0.00465853
0.00468744
0.00476832
0.00491604
0.00513321
0.00537566
0.00502747
0.00494306
0.00519164
0.00550943
0.00671259
0.00653032
0.00627822
0.00609923
0.00581187
0.00558097
0.00539914
0.0052689
0.00503335
0.00554273
0.00503093
0.00497301
0.00528774
0.00529893
0.00459329
0.00467399
0.00473856
0.00520658
0.00575917
0.00645143
0.00658301
0.006647
0.00642016
0.00664533
0.00667859
0.00661
0.00646492
0.00640014
0.00637275
0.00637323
0.00639186
0.00642697
0.00598361
0.00579467
0.00552593
0.0052593
0.00507453
0.0049847
0.00503968
0.00545014
0.00594492
0.00629384
0.00643426
0.00657565
0.00670873
0.00683513
0.00694062
0.00627653
0.00698254
0.00712319
0.00716502
0.00721686
0.00727981
0.00735277
0.00743329
0.00747196
0.00736498
0.00719054
0.00703939
0.0069637
0.00634075
0.00582626
0.00546839
0.00532031
0.0055588
0.00589473
0.00626821
0.0065159
0.00663241
0.00672393
0.00694087
0.00609075
0.00664268
0.00706079
0.00757966
0.00768116
0.00752319
0.00736423
0.00723789
0.0071672
0.00870373
0.0084104
0.00823938
0.00812745
0.00805351
0.00793708
0.0071761
0.00664122
0.00636945
0.00632416
0.0064967
0.00677553
0.00681681
0.00691391
0.00701594
0.00722039
0.00757243
0.00783952
0.00790439
0.00780339
0.00767754
0.00758092
0.00751126
0.00746532
0.010007
0.00971665
0.00948866
0.00935347
0.00924284
0.0091424
0.0090815
0.00862124
0.00807723
0.00771872
0.00762907
0.00782707
0.00826699
0.00834685
0.00832375
0.0083826
0.00863691
0.00896558
0.00904476
0.00888617
0.00872418
0.00863803
0.00861447
0.00862214
0.00864908
0.0100816
0.00995136
0.00985685
0.00980725
0.00977814
0.00974344
0.00973536
0.00975289
0.00937907
0.00883755
0.00870475
0.00896091
0.00947799
0.00962371
0.00963485
0.00981741
0.0101613
0.0102166
0.01028
0.0103518
0.0101675
0.0101252
0.0102026
0.0103375
0.0104948
0.0096534
0.0096081
0.00958126
0.00957809
0.00959923
0.00963568
0.00969345
0.00977274
0.00986916
0.0094437
0.00921671
0.00937395
0.00992696
0.0101227
0.0101395
0.0104104
0.010646
0.0107391
0.0108388
0.0108703
0.0108444
0.0109202
0.0111306
0.0113467
0.0114386
0.00843034
0.00842817
0.00844647
0.00849104
0.00855634
0.00864684
0.00876355
0.00890132
0.00883595
0.00855437
0.00870571
0.00930799
0.00962668
0.00976194
0.0098965
0.0100288
0.0101612
0.0103005
0.0103977
0.0103924
0.0104997
0.01074
0.0109871
0.0111101
0.00840279
0.00839872
0.00841551
0.00845868
0.00852268
0.00861223
0.00872806
0.00886551
0.00876653
0.0084456
0.00855666
0.00910562
0.00952017
0.00972076
0.00987142
0.0100037
0.0101363
0.0102763
0.0103984
0.0103786
0.0104745
0.0107009
0.0109689
0.0110932
0.00958484
0.0095611
0.00956113
0.00958585
0.00962769
0.0096914
0.00977594
0.00987893
0.00941641
0.00907624
0.00912465
0.00957603
0.00986992
0.0101767
0.0105868
0.0106708
0.0107552
0.0108481
0.0109468
0.0108974
0.0109181
0.0110737
0.0113148
0.0114241
0.00992185
0.0098785
0.00985493
0.00983326
0.00983467
0.00986013
0.00955527
0.00892051
0.00865624
0.00877724
0.00921298
0.00953023
0.00928117
0.0101767
0.0102391
0.010276
0.0103239
0.0103827
0.0103378
0.0101046
0.0101008
0.0101608
0.0102478
0.00964949
0.00950857
0.00938923
0.00927365
0.00920017
0.00893152
0.00835333
0.00789578
0.00764122
0.00764001
0.00795137
0.00812013
0.00796186
0.0085274
0.00895408
0.00919647
0.00923424
0.00900367
0.00869978
0.00854147
0.00845707
0.00843034
0.00838411
0.00842378
0.00825161
0.00814606
0.00807926
0.00803983
0.00752431
0.00689076
0.00649006
0.00628209
0.00626192
0.00643631
0.006484
0.00675626
0.00704018
0.00730293
0.0076396
0.00793325
0.00782843
0.00764405
0.00749477
0.00736663
0.00726033
0.00719334
0.00721175
0.00712374
0.00670673
0.00612151
0.00567527
0.00545031
0.00543769
0.00567068
0.00593151
0.00610013
0.00631652
0.00656352
0.00681326
0.00681619
0.00631389
0.00674089
0.00760837
0.00751842
0.00733572
0.00716824
0.00703547
0.00693973
0.00573074
0.00532791
0.00508171
0.00495493
0.004983
0.00532929
0.00577136
0.00620594
0.00655308
0.0066998
0.00683398
0.00695516
0.0070186
0.00612663
0.00668632
0.00719255
0.00722667
0.00727438
0.00733775
0.00741625
0.00741106
0.00724637
0.00492454
0.00533098
0.00522556
0.00454953
0.00462583
0.00468176
0.00512226
0.00565228
0.00652086
0.00664675
0.00669886
0.00620042
0.00647039
0.00674302
0.00676214
0.00640653
0.00633743
0.00631383
0.00632619
0.00636464
0.0064261
0.00650691
0.00482793
0.00497914
0.00520002
0.00537751
0.00498865
0.00490759
0.00511073
0.00543734
0.00662911
0.00649479
0.00620965
0.00621019
0.00615554
0.00606462
0.0059552
0.00586272
0.00486433
0.00487606
0.00491172
0.00494769
0.00503861
0.00517722
0.0051662
0.0054256
0.00572736
0.00607248
0.00604247
0.00566243
0.00501999
0.00691023
0.00622168
0.00595095
0.00539226
0.00504279
0.00477005
0.0045266
0.00432564
0.00417596
0.00407729
0.00401802
0.00396122
0.00356057
0.00390814
0.00432164
0.00607815
0.00626605
0.00644863
0.00662997
0.00681246
0.00511755
0.00477832
0.00386681
0.0047524
0.00346464
0.00314659
0.00304473
0.00291776
0.00275493
0.00263685
0.00253883
0.00247318
0.00248433
0.00258864
0.00283587
0.00489784
0.00565471
0.00608427
0.00611865
0.00613892
0.00615726
0.0061754
0.00630036
0.00317425
0.00252137
0.00169817
0.00158811
0.00125743
0.00113814
0.00170183
0.00136164
0.000742076
0.00076035
0.000512491
0.000711441
0.00224865
0.00476801
0.00493692
0.00476454
0.00545562
0.00542604
0.00540568
0.00542146
0.00544344
0.00512323
0.00289031
0.00138087
0.00126057
0.00363148
0.00422273
0.00524301
0.00453125
0.00463788
0.00475371
0.00487826
0.00500571
0.00432415
0.00269656
0.00129532
0.000654107
0.00311151
0.00483775
0.00709409
0.00380114
0.00394128
0.00409122
0.00425841
0.00445909
0.00411153
0.00232386
0.00157808
0.00172801
0.00383691
0.00448416
0.00535275
0.00375887
0.00388166
0.00400919
0.00414617
0.00431108
0.00352145
0.00444187
0.00202706
0.00131971
0.00165761
0.00128722
0.00169034
0.00178587
0.00183452
0.00126188
0.00125127
0.00154032
0.00148229
0.00244077
0.00280122
0.00367804
0.00403813
0.00531552
0.00511242
0.00394419
0.00437827
0.00349457
0.00408155
0.00442112
0.00437178
0.0043299
0.00429781
0.00421664
0.00419277
0.00385355
0.00321544
0.00366143
0.00506196
0.00529329
0.00541862
0.00725672
0.00721048
0.00701213
0.00727515
0.00712545
0.007025
0.00693954
0.00686464
0.00680445
0.00676008
0.00674868
0.00679213
0.0058138
0.00576734
0.00632595
0.0067618
0.00709573
0.00447101
0.0044471
0.0044364
0.00444482
0.00446812
0.00451915
0.00416536
0.00237
0.00104868
0.00542822
0.00532175
0.00520344
0.00508655
0.00498213
0.00489937
0.00486727
0.00337004
0.00257011
0.00149966
0.00145519
0.00145901
0.0017772
0.00202274
0.00200012
0.00166924
0.000791471
0.000784973
0.00504817
0.00523644
0.00534237
0.00536212
0.00533772
0.00528379
0.00521962
0.00441
0.00399865
0.00379515
0.00319438
0.00287409
0.00270503
0.00261319
0.00257068
0.00254428
0.00248723
0.00253165
0.00331017
0.00358048
0.00390236
0.0042577
0.00460632
0.00479503
0.00470524
0.00423081
0.0039548
0.00364882
0.00397282
0.00479437
0.00438907
0.00405337
0.00375646
0.00351832
0.00341687
0.0033516
0.0034279
0.00358516
0.00332594
0.00336377
0.00346492
0.00358132
0.00383845
0.00403577
0.00414793
0.00398699
0.00417582
0.00432621
0.00539086
0.00537681
0.00524452
0.00521497
0.00509635
0.0049415
0.00478471
0.00469326
0.00470499
0.00443886
0.00455178
0.00469024
0.0048513
0.0039896
0.00394277
0.00388063
0.00384711
0.00388655
0.0039764
0.00411303
0.00423152
0.00449837
0.00476657
0.00503756
0.00525011
0.00538964
0.00550364
0.00554059
0.00559321
0.00565772
0.00569868
0.00539074
0.00540634
0.0054592
0.00554083
0.00564538
0.00576825
0.00400334
0.00421786
0.00420731
0.00418775
0.00421482
0.00426711
0.00435287
0.00434978
0.00443334
0.00463021
0.0048414
0.00505695
0.00525874
0.00544975
0.00562455
0.00571152
0.00586865
0.00601251
0.00593407
0.00601446
0.00610478
0.00620547
0.00631615
0.00643575
0.00421768
0.00441691
0.00482101
0.00483386
0.004572
0.00447422
0.00444166
0.00435905
0.00423657
0.00448634
0.00490849
0.00518662
0.00529423
0.00542839
0.00574104
0.00544794
0.0058128
0.00610909
0.0062349
0.00636319
0.00649361
0.00662696
0.00676343
0.00690274
0.00542532
0.00520413
0.00538594
0.00548246
0.00549636
0.00506729
0.00517186
0.00527642
0.00549181
0.00569889
0.0055352
0.00558802
0.00565321
0.00584976
0.00581475
0.00593488
0.00621989
0.00633049
0.00644639
0.00658148
0.0067221
0.00686439
0.00700765
0.00715184
0.00729668
0.00554917
0.00553171
0.00552346
0.00552992
0.0055696
0.00506478
0.00517563
0.00530625
0.00545105
0.00560496
0.0057587
0.00590005
0.00601343
0.0061233
0.00624488
0.00636779
0.00648426
0.00659832
0.0067207
0.00686238
0.00701463
0.00716723
0.00731843
0.0074677
0.00761493
0.00595802
0.00593565
0.00591108
0.00590738
0.00593958
0.00521177
0.00528976
0.00539727
0.00553246
0.00568992
0.00575288
0.00540161
0.00611776
0.00624687
0.00638337
0.00652219
0.00665052
0.00677638
0.00691096
0.00706265
0.00722504
0.00738625
0.00754435
0.0076987
0.00784897
0.00557776
0.00560492
0.00564138
0.00570114
0.00529242
0.00536575
0.00546531
0.0055915
0.00573828
0.00573488
0.00512333
0.00570326
0.00625165
0.00637665