/*--------------------------------*- C++ -*----------------------------------*\
  =========                 |
  \\      /  F ield         | OpenFOAM: The Open Source CFD Toolbox
   \\    /   O peration     | Website:  https://openfoam.org
    \\  /    A nd           | Version:  13
     \\/     M anipulation  |
\*---------------------------------------------------------------------------*/
FoamFile
{
    format      ascii;
    class       volScalarField;
    location    "400";
    object      omega;
}
// * * * * * * * * * * * * * * * * * * * * * * * * * * * * * * * * * * * * * //

dimensions      [0 0 -1 0 0 0 0];

internalField   nonuniform List<scalar> 
171247
(
831.375
328.74
77.0804
77.202
77.6142
78.4471
79.9131
82.3768
85.8389
91.4864
92.802
101.39
120.91
144.379
325.784
679.22
1081.06
237.161
48.289
49.6331
51.2134
53.1309
55.3374
57.8353
61.3127
66.0692
72.0741
75.0149
83.3516
96.2439
122.095
210.309
369.29
532.29
550.342
30.3488
31.3171
32.4243
33.6472
35.2013
37.2898
39.9999
43.3609
47.2339
50.7734
53.8747
60.17
67.9732
82.3202
112.932
164.867
230.273
228.22
23.732
24.159
24.6856
25.3821
26.2903
27.4557
28.9123
30.668
32.6805
34.7698
36.6054
38.4721
40.5968
43.3652
47.4923
53.9344
63.319
80.7239
95.9435
109.12
120.697
131.142
21.1985
21.4295
21.7128
22.0614
22.4927
23.0248
23.6748
24.4544
25.3623
26.3575
27.371
28.4203
29.522
30.7534
32.254
34.2136
36.8377
40.5748
44.7517
48.8716
52.7083
56.1697
19.8616
19.9636
20.0798
20.212
20.3656
20.5484
20.7693
21.0383
21.3641
21.7505
22.1887
22.6681
23.1769
23.712
24.2825
24.9164
25.6423
26.4876
27.4888
28.5995
29.7338
30.8257
31.838
32.7468
19.3358
19.3785
19.4214
19.4661
19.5171
19.5794
19.6585
19.7623
19.8949
20.0583
20.2501
20.4639
20.693
20.9339
21.1876
21.4587
21.7515
22.0668
22.4059
22.7585
23.111
23.4465
23.7573
24.0393
19.0248
19.0249
19.024
19.0248
19.0331
19.0539
19.089
19.1374
19.2009
19.2792
19.3699
19.4696
19.5753
19.685
19.7975
19.9137
20.0346
20.1603
20.2896
20.419
20.5441
20.6601
20.7643
20.8563
18.912
18.8867
18.8622
18.8428
18.8337
18.8381
18.8562
18.8872
18.9294
18.9797
19.0348
19.0921
19.1495
19.2055
19.2598
19.3126
19.3648
19.4172
19.4694
19.5197
19.5661
19.6068
19.6405
19.6666
18.9548
18.9184
18.8843
18.8577
18.843
18.8425
18.8563
18.8833
18.9203
18.9629
19.0075
19.0514
19.0929
19.1309
19.1648
19.1948
19.2217
19.247
19.271
19.2928
19.3111
19.3247
19.3331
19.3359
19.0707
19.0316
18.9974
18.9718
18.959
18.9609
18.9779
19.0084
19.0484
19.0933
19.1387
19.1818
19.2212
19.2562
19.2863
19.3113
19.3324
19.3511
19.3679
19.3823
19.3928
19.3987
19.3996
19.3954
19.1923
19.1542
19.1225
19.1004
19.0919
19.099
19.1221
19.1593
19.2063
19.2578
19.3089
19.3563
19.3987
19.4357
19.467
19.4925
19.5136
19.5319
19.5482
19.5616
19.571
19.5753
19.5745
19.5684
19.1855
19.1478
19.1165
19.0947
19.0868
19.0944
19.1182
19.1566
19.205
19.258
19.3102
19.3579
19.3997
19.4351
19.4638
19.4863
19.5043
19.5197
19.5332
19.5442
19.5513
19.5536
19.5507
19.5427
19.0117
18.9782
18.9532
18.9412
18.944
18.9624
18.995
19.0376
19.0847
19.1312
19.1734
19.2094
19.2384
19.2602
19.2759
19.2875
19.2972
19.3059
19.313
19.317
19.3171
19.3127
19.3038
18.8887
18.8552
18.829
18.8148
18.815
18.8301
18.8591
18.8986
18.9432
18.988
19.0291
19.0643
19.0926
19.1139
19.1294
19.1413
19.1518
19.1619
19.171
19.1777
19.1809
19.1795
19.1734
18.851
18.8262
18.8064
18.7969
18.8011
18.8195
18.8514
18.8947
18.9458
18.9996
19.0525
19.1014
19.1451
19.1833
19.2168
19.2473
19.2767
19.306
19.3343
19.3597
19.3808
19.3968
19.4077
18.9799
18.9777
18.9769
18.9836
19.003
19.0365
19.0841
19.1468
19.2235
19.3116
19.4062
19.5029
19.5982
19.6898
19.7779
19.8646
19.9517
20.0394
20.1256
20.2068
20.2805
20.3456
20.4021
19.3559
19.398
19.4466
19.5068
19.5847
19.688
19.8208
19.9843
20.176
20.3885
20.6109
20.8348
21.0568
21.2781
21.502
21.7311
21.9651
22.1972
22.4181
22.6209
22.8028
22.9645
20.0266
20.156
20.3081
20.491
20.7144
20.9893
21.3256
21.7266
22.1798
22.6721
23.1806
23.6877
24.1863
24.6909
25.2164
25.7777
26.3938
27.036
27.6605
28.2356
28.7457
29.1904
21.442
21.7302
22.0905
22.5425
23.1064
23.8006
24.635
25.6021
26.6521
27.7102
28.7563
29.7646
30.7754
31.8484
33.0711
34.542
36.5783
38.8637
41.0978
43.1075
44.8048
46.1987
24.4701
25.0318
25.7867
26.7787
28.0525
29.632
31.501
33.5857
35.7257
37.762
39.5439
41.2941
43.2448
45.7326
49.2012
54.1047
64.7927
74.7067
83.2643
90.4114
96.223
101.01
32.6329
33.9501
35.3962
37.0656
39.2392
41.9615
45.2105
48.823
52.4018
55.575
55.53
56.8315
60.0387
66.213
77.4475
95.6297
177.331
198.272
215.598
231.393
244.409
256.038
50.4832
52.0988
54.0184
56.2998
58.826
62.0242
66.2807
71.6924
71.8515
73.8958
79.2965
90.0291
116.618
165.736
239.265
322.787
385.393
419.861
397.694
383.798
371.033
355.48
73.9953
74.4108
75.1883
76.5088
78.6913
81.9338
87.1715
87.2796
90.8043
100.527
123.713
145.331
272.2
473.51
706.854
566.413
266.808
144.515
144.966
165.056
192.5
207.085
93.8532
92.4015
91.4957
91.2888
92.083
94.8856
101.873
102.608
112.836
145.373
200.895
562.705
648.088
444.812
265.143
132.501
115.444
125.042
138.089
155.904
154.218
157.797
106.196
102.837
100.048
97.911
96.6768
97.0926
96.9926
101.314
121.692
148.531
382.448
845.248
630.982
216.537
123.803
124.991
123.982
121.49
123.036
127.149
122.287
116.499
111.375
106.848
103.173
100.858
100.578
99.9611
108.053
134.622
188.874
384.406
720.616
562.552
220.348
136.408
117.899
113.33
122.146
122.694
125.934
133.231
137.471
130.596
124.32
118.499
113.112
108.307
104.818
103.497
102.749
106.736
118.465
161.805
253.981
394.335
520.379
571.936
517.418
441.848
417.507
401.244
391.018
379.4
119.462
114.902
110.846
107.59
105.387
104.048
103.879
108.608
121.435
149.325
190.192
236.643
228.079
238.79
248.056
257.551
265.797
274.559
106.807
105.723
104.513
103.209
102.159
101.337
101.119
101.863
103.916
107.466
112.401
121.907
129.036
134.329
138.239
140.957
142.77
131.059
129.297
128.156
127.83
128.641
130.891
135.365
137.609
153.458
194.431
473.272
743.301
91.9328
93.7333
95.8584
98.5048
101.453
105.065
110.2
118.184
122.289
137.23
166.861
242.41
436.521
574.998
642.012
628.196
650.348
51.0956
54.1221
57.2622
60.4742
64.2638
68.8833
74.4019
80.7703
87.5315
91.9635
101.437
111.216
124.605
139.581
158.827
185.24
219.434
255.157
31.4674
33.0966
35.0348
37.4188
40.331
43.8076
47.8148
52.2046
56.6179
60.1662
63.1533
65.8983
68.62
71.5423
74.9712
79.2394
84.6491
91.6367
101.855
109.847
116.173
121.334
24.8995
25.8076
26.8681
28.1244
29.6304
31.4193
33.4894
35.7826
38.1552
40.3276
42.3154
44.1744
45.9317
47.6507
49.4138
51.3147
53.4247
55.79
58.4116
60.9018
63.098
64.9776
21.767
22.2127
22.6948
23.214
23.7887
24.4442
25.2044
26.0844
27.0799
28.158
29.2674
30.3599
31.4191
32.4388
33.4256
34.3941
35.3605
36.3434
37.3393
38.3182
39.2257
40.034
40.7381
41.3407
20.9742
21.236
21.4799
21.7018
21.9141
22.1376
22.4038
22.7365
23.1374
23.6002
24.1049
24.6232
25.1362
25.6372
26.1275
26.6062
27.0734
27.5302
27.9759
28.4016
28.7929
29.1413
29.447
29.7139
20.3836
20.5069
20.6108
20.6939
20.7832
20.8909
21.0205
21.1761
21.3586
21.5655
21.7919
22.0286
22.2671
22.5012
22.7265
22.9438
23.1526
23.3535
23.5464
23.7297
23.8981
24.0488
24.1817
24.2982
20.1994
20.2313
20.2498
20.2694
20.3035
20.3528
20.4183
20.4997
20.5938
20.6973
20.8066
20.9188
21.0308
21.1402
21.2435
21.34
21.4302
21.5148
21.5956
21.6702
21.7365
21.7934
21.8408
21.8798
20.422
20.4053
20.3815
20.3645
20.3593
20.3687
20.3925
20.4294
20.4759
20.528
20.582
20.6353
20.6867
20.735
20.7785
20.817
20.8506
20.881
20.9089
20.9333
20.9526
20.966
20.9729
20.9733
20.8025
20.7662
20.7311
20.7018
20.6827
20.677
20.6848
20.7039
20.731
20.7618
20.7925
20.8203
20.8451
20.8664
20.8831
20.8945
20.9022
20.9078
20.912
20.9136
20.9113
20.9042
20.8917
20.874
21.2681
21.2258
21.1867
21.1533
21.1302
21.1211
21.1269
21.1437
21.1681
21.1953
21.2206
21.2411
21.2569
21.2683
21.2743
21.2747
21.271
21.2654
21.2584
21.2488
21.2352
21.2166
21.1928
21.1635
21.258
21.2167
21.1787
21.1465
21.1244
21.1165
21.1237
21.1423
21.1689
21.1982
21.2252
21.2466
21.262
21.2718
21.275
21.2719
21.265
21.2564
21.2466
21.2345
21.2185
21.1977
21.1718
21.1405
20.7364
20.7023
20.6741
20.6561
20.6514
20.6606
20.6818
20.7114
20.7445
20.7762
20.803
20.824
20.8391
20.8476
20.8501
20.8488
20.8463
20.8431
20.8384
20.8305
20.8186
20.8021
20.7808
20.3588
20.3355
20.3187
20.3136
20.3229
20.3468
20.3844
20.4319
20.4845
20.5371
20.5862
20.6303
20.6693
20.7011
20.7253
20.7445
20.7613
20.7771
20.791
20.8014
20.8071
20.8078
20.8041
20.1752
20.1918
20.209
20.2401
20.2863
20.3491
20.4281
20.5202
20.621
20.726
20.8314
20.9339
21.0319
21.1206
21.1994
21.2694
21.3332
21.3941
21.4507
21.5019
21.5468
21.5856
21.619
20.4267
20.5248
20.601
20.6829
20.7823
20.9039
21.0518
21.2278
21.429
21.65
21.8821
22.1158
22.3406
22.5495
22.7448
22.9265
23.0959
23.2544
23.4047
23.5421
23.6661
23.7774
23.8783
21.2787
21.4899
21.6922
21.9059
22.1712
22.5051
22.9118
23.3859
23.9081
24.4495
24.98
25.4874
25.968
26.4166
26.8326
27.2181
27.5762
27.9066
28.2043
28.4657
28.6943
28.8977
22.4741
22.9794
23.5464
24.2033
24.978
25.89
26.9402
28.0992
29.3023
30.4736
31.5899
32.6295
33.5876
34.4664
35.2753
36.0281
36.7371
37.3899
37.9641
38.4505
38.8594
39.2099
25.7423
26.8285
28.139
29.736
31.6597
33.9094
36.4205
39.0311
41.4323
43.5226
45.4135
47.1105
48.6459
50.052
51.3882
52.6967
54.023
55.4083
56.656
57.6729
58.4702
59.0906
34.1072
36.1956
38.7968
41.9898
45.7966
50.1435
54.8304
59.4393
63.1122
66.0049
68.5325
70.8423
73.0736
75.2957
77.6477
80.2981
83.6226
89.1906
93.5173
96.6134
98.7708
100.211
58.6512
62.1576
65.7083
69.5869
74.1684
79.4514
85.3355
91.0282
90.4317
91.1806
93.6418
97.1122
101.145
105.893
111.824
120.018
133.734
185.346
192.118
196.168
198.895
201.044
95.7923
97.8509
100.363
103.302
106.645
111.262
118.446
118.029
121.738
133.619
161.025
190.43
216.673
240.63
261.897
294.376
337.074
365.318
390.079
369.818
348.575
328.589
126.026
125.064
124.807
125.552
127.776
132.007
131.099
139.402
164.204
205.826
405.845
592.79
948.968
645.831
786.009
758.66
551.239
302.097
264.602
256.338
261.003
247.105
144.669
141.385
139.023
137.87
138.739
144.316
144.302
164.304
194.851
618.932
2441.15
548.531
157.003
174.762
203.925
196.228
189.071
160.027
155.182
151.363
148.702
147.899
151.792
151.854
181.279
256.983
882.951
196.263
194.794
179.553
164.578
160.821
159.725
153.762
148.685
144.606
141.774
140.943
141.546
154.378
188.574
564.077
1933.45
372.59
217.304
215.172
256.384
287.095
280.787
153.467
147.028
141.424
136.799
133.185
131.074
130.449
132.622
146.605
192.327
325.908
545.899
757.676
780.218
642.779
626.33
562.055
530.421
405.063
389.497
375.822
362.225
126.42
124.365
123.173
123.148
124.733
131.612
147.021
172.453
189.939
203.795
214.8
227.961
237.817
198.608
200.046
200.556
199.311
198.811
99.0012
100.92
102.888
104.798
106.339
107.841
109.343
110.818
112.185
113.338
114.248
115.157
116.208
116.229
115.06
113.501
111.888
154.659
149.862
145.86
142.768
140.645
140.043
142.817
148.005
186.299
483.081
2399.13
140.774
139.031
137.82
137.125
136.826
137.391
139.372
141.529
156.56
206.847
343.375
552.599
604.233
608.308
601.922
589.347
572.234
592.899
101.448
104.671
107.495
110.121
113.055
116.44
120.239
124.434
127.44
137.381
150.388
164.75
175.766
185.045
194.509
204.299
215.378
229.032
56.7999
60.6515
64.4416
68.5766
73.1724
78.2804
83.7222
89.2964
94.5897
98.7648
101.759
104.029
105.708
107.444
108.852
110.048
111.108
112.296
113.902
39.7091
42.2913
45.062
48.0477
51.3579
55.0716
59.1265
63.3885
67.6055
71.3584
74.4145
76.9499
78.904
80.4748
81.7201
82.9136
83.6026
83.9148
84.1974
84.5332
84.9072
85.21
85.4388
32.0433
33.7293
35.3973
37.0741
38.8363
40.7532
42.8615
45.1353
47.5252
49.9303
52.237
54.2953
56.0823
57.6255
58.9274
59.9733
60.7795
61.3646
61.8018
62.1445
62.4115
62.6147
62.7802
62.9366
29.6083
30.687
31.5716
32.2793
32.8845
33.536
34.3602
35.3173
36.4017
37.574
38.7654
39.9102
40.9753
41.9494
42.8213
43.5516
44.1588
44.6512
45.0556
45.3869
45.6547
45.8692
46.0465
46.2047
26.7772
27.4217
27.8854
28.1839
28.5203
28.8894
29.3074
29.7714
30.2737
30.8141
31.3715
31.9238
32.4472
32.9345
33.3794
33.7673
34.0932
34.3647
34.5928
34.7862
34.9481
35.0804
35.1902
35.2846
25.2483
25.5256
25.6814
25.8322
26.0073
26.1998
26.4197
26.6521
26.8914
27.1396
27.3928
27.6447
27.8841
28.1073
28.3071
28.4791
28.6208
28.734
28.8245
28.8983
28.9582
29.0036
29.037
29.0613
25.2796
25.3192
25.3074
25.292
25.2965
25.3165
25.3514
25.3994
25.4588
25.5277
25.6031
25.677
25.7479
25.8123
25.8668
25.9087
25.937
25.9531
25.9611
25.962
25.9546
25.9387
25.9157
25.8875
26.1634
26.1009
26.0181
25.9234
25.8262
25.7376
25.6624
25.6013
25.5526
25.5122
25.4769
25.4396
25.4024
25.3651
25.3229
25.2734
25.2188
25.1616
25.104
25.0458
24.9856
24.9224
24.855
24.7833
28.0446
27.9249
27.7846
27.6272
27.4646
27.307
27.1623
27.0315
26.9146
26.8049
26.6989
26.5884
26.4772
26.3673
26.2536
26.1344
26.0131
25.8928
25.7755
25.6606
25.5463
25.4312
25.3144
25.1954
28.0409
27.925
27.7882
27.6342
27.4745
27.3192
27.1766
27.0483
26.9338
26.8265
26.7223
26.612
26.5001
26.3873
26.2692
26.1452
26.0193
25.8952
25.7747
25.6569
25.5398
25.4222
25.3031
25.1821
26.0545
25.9718
25.877
25.7788
25.687
25.6082
25.5436
25.4918
25.4483
25.4095
25.3677
25.3244
25.2786
25.2279
25.1704
25.1094
25.0482
24.9881
24.9289
24.8688
24.8069
24.742
24.6746
25.188
25.1738
25.1553
25.1502
25.1597
25.1826
25.2197
25.2713
25.3335
25.4013
25.4681
25.5319
25.5886
25.6397
25.6753
25.6983
25.7124
25.7212
25.7267
25.7261
25.7198
25.7092
25.6958
25.3024
25.4549
25.5995
25.7683
25.9519
26.1619
26.3838
26.6112
26.8469
27.089
27.3327
27.5691
27.7928
27.9974
28.1761
28.3246
28.4463
28.547
28.6319
28.7053
28.7701
28.8283
28.8824
27.2247
27.6734
27.9435
28.248
28.5816
28.9589
29.3862
29.8554
30.3738
30.9237
31.4875
32.04
32.5642
33.0487
33.4747
33.8306
34.1285
34.3799
34.5959
34.7858
34.9555
35.11
35.2589
30.7806
31.4646
32.0427
32.6941
33.5145
34.487
35.5995
36.8384
38.1323
39.4077
40.6161
41.7329
42.7363
43.5863
44.2722
44.8289
45.2942
45.6747
45.9914
46.2654
46.5205
46.7746
34.4372
36.0959
37.8619
39.8092
41.9846
44.38
46.9318
49.6398
52.2703
54.6504
56.7361
58.5449
60.073
61.2892
62.2137
62.8668
63.3208
63.6472
63.8942
64.1075
64.3184
64.544
44.701
47.803
51.2886
55.2398
59.595
64.2049
68.8075
73.0338
76.4985
79.387
81.6166
83.3937
84.7799
86.0626
86.6919
86.7072
86.5393
86.3189
86.1238
85.9557
85.8254
85.7547
66.8707
71.2027
76.0258
81.3724
87.0365
92.7559
98.1407
102.801
105.989
108.158
109.621
111.144
112.218
112.831
112.939
112.719
112.47
112.5
113.446
113.857
113.917
113.831
110.441
113.079
115.423
117.979
120.862
124.011
127.456
132.196
130.962
131.333
133.499
135.815
138.225
140.759
143.081
145.16
147.411
152.958
180.727
179.754
177.965
176.081
139.761
138.294
137.405
136.853
137.08
138.706
138.06
143.665
161.341
200.305
236.159
253.029
263.502
271.485
276.034
277.925
281.857
291.642
300.333
321.501
304.602
289.651
148.735
144.728
141.552
139.381
138.742
141.546
144.321
170.133
216.386
484.886
700.409
955.382
967.608
947.833
921.834
785.534
727.399
638.651
485.659
404.049
304.16
264.37
147.799
142.796
138.451
134.948
132.386
131.703
142.912
206.88
550.688
470.291
212.355
280.527
231.867
209.09
134.708
129.27
124.433
120.127
116.043
117.753
131.739
174.814
1199.94
290.668
226.973
212.435
218.104
158.663
152.292
146.772
142.117
139.01
138.642
141.096
174.107
554.108
532.122
480.579
338.664
363.248
326.905
153.989
148.601
144.009
140.286
137.429
135.82
134.681
143.08
195.633
445.087
1046.83
745.065
810.632
814.788
794.248
602.351
510.548
405.652
381.815
283.237
274.548
265.891
113.85
114.096
115.619
117.137
125.192
140.837
155.042
164.728
171.625
175.936
177.418
175.671
174.325
173.013
143.345
142.181
140.599
138.873
76.4548
79.3835
82.7174
85.8501
88.4742
90.3769
91.6905
92.6152
93.2014
93.354
93.0299
92.5212
91.9482
91.1593
90.0171
88.5865
86.957
152.731
145.937
139.881
134.525
130.06
126.602
125.408
135.775
213.501
1261.96
160
154.578
149.528
144.601
139.983
136.058
134.143
136.256
171.704
319.627
576.349
595.839
556.81
455.965
443.269
487.563
496.571
501.513
151.425
148.976
146.431
144.03
141.915
140.737
139.394
139.982
143.56
165.482
195.463
211.597
218.581
223.239
227.934
230.425
230.942
231.422
113.072
115.065
117.001
119.127
121.454
124.389
127.137
129.521
131.404
133.209
135.471
137.673
139.957
141.407
144.043
145.799
146.245
145.317
143.521
84.0213
87.3992
90.523
93.398
96.6256
100.701
104.793
108.74
112.212
115.099
117.057
118.184
118.951
119.556
119.391
117.911
115.216
114.408
113.388
112.431
111.514
110.776
110.227
66.8749
69.9192
72.6406
75.1705
77.6966
80.3659
83.2652
86.1014
89.1149
91.9523
94.2629
96.0349
97.3534
98.3545
98.9036
99.1444
98.3803
97.257
95.9305
94.6482
93.4981
92.5186
91.7238
91.1229
61.1891
63.5684
65.0938
66.0169
66.8575
67.935
69.2613
70.7824
72.3374
73.8876
75.3161
76.5515
77.6097
78.5051
79.1734
79.8608
79.9787
79.66
78.9924
78.2629
77.5454
76.8891
76.321
75.849
52.1737
54.1129
55.0969
55.7443
56.2801
56.8
57.3998
58.1181
58.9201
59.7648
60.5622
61.2319
61.8333
62.3514
62.7764
63.0558
63.1425
63.0453
62.8131
62.5084
62.1749
61.8399
61.525
61.2445
42.8667
44.2146
45.2525
45.7461
46.1989
46.7857
47.2627
47.8797
48.3273
48.7053
49.0605
49.3789
49.6308
49.8422
50.0135
50.1446
50.2141
50.1911
50.0827
49.9191
49.723
49.5083
49.2838
49.0591
48.8424
39.5619
40.0212
40.3322
40.3833
40.3719
40.5437
40.685
40.8123
40.9356
41.0549
41.1742
41.2783
41.3324
41.3563
41.3474
41.3044
41.2182
41.0871
40.916
40.7233
40.5293
40.3298
40.1247
39.9166
39.7093
39.6519
39.6434
39.5346
39.3043
38.9975
38.7363
38.4652
38.1992
37.9643
37.7658
37.5954
37.4293
37.2556
37.081
36.9071
36.7152
36.4973
36.2591
36.0099
35.7633
35.5219
35.2859
35.0517
34.8186
34.587
45.8422
45.468
44.9403
44.3159
43.7116
43.0705
42.4163
41.791
41.2165
40.6837
40.1696
39.6683
39.186
38.7209
38.2576
37.787
37.3161
36.8522
36.4073
35.9849
35.5836
35.1979
34.8243
34.4625
45.9529
45.5859
45.0621
44.4402
43.8386
43.1972
42.5397
41.9092
41.3287
40.79
40.2695
39.7598
39.2707
38.7981
38.3217
37.8376
37.3554
36.8826
36.4312
36.0037
35.5984
35.21
34.8351
34.4732
39.5927
39.4674
39.2199
38.8935
38.6101
38.3018
37.9998
37.7252
37.4882
37.283
37.0926
36.9056
36.7331
36.5693
36.3917
36.1868
35.966
35.7365
35.5109
35.2934
35.0822
34.8747
34.6712
34.4722
39.7819
39.813
39.776
39.8842
39.9687
40.0426
40.1136
40.1946
40.2871
40.3825
40.4541
40.5151
40.6486
40.6597
40.6302
40.5565
40.4443
40.3115
40.18
40.0486
39.9142
39.7802
39.6519
44.1071
44.6266
45.1157
45.7655
46.2855
46.9228
47.3589
47.7031
48.031
48.3589
48.665
48.9685
49.3739
49.614
49.7954
49.8819
49.8813
49.8355
49.7615
49.6711
49.5736
49.4789
49.4023
53.9267
54.9402
55.5209
55.967
56.3502
56.783
57.3361
58.0076
58.7918
59.6257
60.4226
61.2183
61.9485
62.5906
63.0805
63.3694
63.4727
63.463
63.3801
63.2603
63.1379
63.0412
62.9876
63.4019
64.3513
65.1717
66.2197
67.5364
69.0963
70.8291
72.6286
74.387
76.0212
77.4883
78.7744
79.8327
80.5706
81.2255
81.3608
81.021
80.5875
80.1481
79.763
79.47
79.291
70.4941
73.1941
75.9114
78.7855
81.975
85.2202
88.6815
91.9255
94.6574
96.871
98.6502
100.106
101.085
101.814
101.521
100.776
99.6969
98.6221
97.6604
96.8819
96.3237
96.0068
90.1984
93.2948
96.7716
101.123
105.512
109.751
113.501
116.626
118.77
120.228
121.365
122.48
122.734
119.37
114.363
118.727
117.833
116.887
115.957
115.272
114.89
114.867
119.209
121.321
123.642
126.489
129.171
131.366
133.02
134.604
136.977
139.666
142.374
138.841
135.3
133.755
132.439
130.646
147.697
146.109
144.637
144.866
145.124
145.729
149.91
147.28
144.775
142.408
140.861
139.188
139.428
139
145.147
156.863
166.24
172.601
177.21
180.731
182.462
181.964
180.494
178.467
177.643
210.031
209.807
209.378
153.094
147.889
142.844
138.135
134.131
132.625
134.091
150.81
200.81
270.322
293.037
296.515
299.89
305.681
303.35
298.715
299.425
298.436
298.737
295.592
350.604
318.031
143.828
137.612
132.213
127.805
124.468
123.556
133.084
203.444
417.61
673.04
950.169
664.196
662.842
661.722
499.064
735.355
622.1
577.137
535.766
425.844
279.476
254.588
142.861
137.881
133.184
129.216
125.691
124.881
137.405
266.492
461.214
279.116
253.895
233.326
152.895
147.039
141.759
137.087
133.389
132.203
143.832
373.625
368.777
251.196
220.413
293.486
151.131
145.154
140.039
135.82
132.832
132.241
141.021
203.324
735.1
531.721
366.72
315.671
133.053
128.541
124.82
122.015
120.571
121.901
121.739
142.107
261.101
557.762
843.688
602.098
526.649
498.248
685.339
741.941
688.526
462.721
312.915
276.563
196.365
186.853
92.0248
92.564
94.8641
98.2611
111.391
127.5
131.413
132.108
131.964
131.468
132.582
132.199
129.874
127.822
125.289
102.383
100.738
98.7408
60.811
62.5688
64.8277
66.9907
68.4793
69.3555
69.9897
70.4034
70.5341
70.3672
69.9807
69.5772
69.2038
68.6293
67.8191
66.7463
65.4737
153.822
146.368
139.326
132.746
126.648
121.46
120.937
134.295
331.625
155.305
148.101
141.155
134.511
128.259
122.609
119.138
123.398
178.401
534.379
573.62
560.45
481.882
464.596
472.55
603.429
568.105
784.977
162.621
155.589
148.21
140.587
133.54
128.979
123.24
120.974
132.93
178.246
228.428
262.303
280.941
296.95
309.465
303.055
301.422
300.327
153.664
150.879
148.505
146.24
143.425
139.974
135.383
131.393
128.116
128.515
137.86
153.965
169.877
184.055
197.472
207.041
208.79
207.229
201.735
220.572
140.192
137.924
134.847
131.999
131.994
132.22
133.021
133.427
132.72
131.465
131.577
134.064
138.571
140.148
145.095
149.506
152.266
151.193
148.248
159.996
158.517
156.421
154.288
123.001
122.309
121.879
121.72
122.236
123.002
123.351
123.934
124.025
123.57
123.042
122.968
123.618
124.325
124.899
124.077
123.127
121.548
123.258
123.677
123.563
123.124
122.544
121.954
121.804
124.391
124.586
123.1
120.864
118.39
115.881
114.8
118.411
116.746
115.236
113.968
112.95
112.228
111.904
111.079
109.002
106.435
105.647
104.739
103.887
103.121
102.45
101.879
126.593
129.021
128.664
126.44
123.195
119.041
114.553
110.346
107.737
106.184
104.469
107.137
105.09
103.371
101.867
100.404
98.6298
96.6307
94.8468
93.2043
91.7142
90.4072
89.2792
88.3139
103.695
106.756
109.287
109.984
109.084
127.372
123.405
116.968
107.41
100.671
95.9101
92.3264
99.0215
96.5668
94.3147
92.2448
90.2589
88.2316
86.2066
84.3532
82.6002
80.9678
79.4813
78.1444
76.9491
88.8486
90.2084
91.4531
91.4404
90.1983
106.719
103.953
101.056
98.0606
95.2003
92.5687
90.0529
87.6004
85.2401
83.0511
80.9976
79.0028
77.0026
75.0565
73.2371
71.5817
70.0215
68.5731
67.2401
66.016
67.7793
68.014
68.3905
68.2022
67.3963
81.9671
80.7944
79.476
78.1334
76.8798
75.7195
74.7208
73.4382
71.9268
70.4021
68.878
67.2966
65.6581
64.0221
62.4698
61.0761
59.7524
58.5098
57.3494
56.2662
78.1788
77.6494
76.3674
74.3527
95.2304
92.2633
89.215
86.2647
83.5287
81.1217
79.1845
77.1296
74.8765
72.6668
70.5422
68.4035
66.2539
64.1579
62.1878
60.4281
58.7821
57.2548
55.8412
54.5304
87.8884
87.6001
86.1966
83.7598
96.1334
93.0672
89.9188
86.8674
84.0349
81.5429
79.5499
77.4457
75.16
72.9446
70.8076
68.6385
66.4585
64.3379
62.3483
60.572
58.9147
57.3807
55.9646
54.656
69.4102
69.0987
68.2179
66.7072
81.1992
79.5992
78.2662
76.8766
75.5537
74.3512
73.3682
72.1703
70.8283
69.5694
68.2027
66.7418
65.2069
63.6637
62.1976
60.8924
59.6543
58.4944
57.4154
56.4153
75.0298
75.2761
74.6475
103.997
101.423
98.6433
95.6977
92.8291
90.1966
87.7663
85.5527
83.5337
80.3313
79.3685
77.72
76.0165
74.3322
72.75
71.3146
69.9539
68.688
67.5264
66.4688
96.5319
96.8179
95.9406
125.999
122.377
116.066
105.812
97.826
91.7612
87.1794
98.2288
96.1637
92.5866
91.6608
90.0941
88.4153
86.6786
85.0704
83.5289
82.0788
80.7566
79.5772
78.5421
119.717
120.836
120.02
117.851
114.514
110.769
106.868
103.184
100.171
97.6658
107.608
105.895
104.569
103.256
101.975
100.504
98.6596
96.9706
95.4182
94.0231
92.8242
91.8256
91.0172
128.139
126.469
123.764
120.107
116.081
112.528
119.063
117.368
116.035
115.072
114.35
113.856
113.706
113.164
110.19
105.647
108.282
107.55
106.882
106.317
105.875
105.57
120.229
119.569
118.77
118.089
117.825
124.743
124.963
124.725
124.42
124.6
125.502
126.393
127.178
124.208
120.611
117.978
127.19
127.954
128.123
127.947
127.642
127.371
132.611
132.875
132.873
131.128
129.835
130.022
130.314
130.14
133.349
136.364
141.477
138.904
138.508
140.126
141.672
141.06
139.04
167.802
166.371
164.3
162.274
160.601
149.1
146.737
143.87
141.298
138.241
135.485
132.687
131.253
134.94
143.835
154.466
165.473
175.877
183.65
187.923
187.522
184.623
233.14
223.123
216.048
210.14
205.672
154.405
147.504
140.189
133.403
130.456
125.986
123.399
129.646
156.707
192.308
220.564
239.877
255.948
269.132
254.306
267.077
266.816
263.297
256.065
290.279
276.046
264.646
146.513
140.106
133.96
128.121
122.386
120.336
121.693
152.315
257.581
334.662
371.855
382.113
395.712
410.122
376.357
451.233
463.419
459.005
429.336
409.474
268.579
212.717
146.61
140.156
133.906
127.929
122.581
121.212
128.96
195.634
959.997
869.97
633.271
651.908
595.496
608.343
1043.62
437.854
516.765
391.435
273.874
241.093
258.069
274.449
145.447
138.984
133.056
127.624
123.13
122.893
142.681
641.842
595.927
333.882
319.009
307.562
142.763
136.382
130.811
126.03
122.475
123.454
141.102
361.741
388.164
318.741
133.867
127.807
122.65
118.565
116.088
117.476
144.756
457.406
789.274
540.727
405.2
265.214
110.837
106.627
103.158
100.573
99.2147
99.6315
106.983
140.225
638.444
819.276
630.082
398.806
351.024
321.249
328.037
625.068
819.143
605.458
311.839
246.798
153.374
141.046
74.653
75.4096
76.3413
83.4099
97.5565
104.068
104.625
103.559
102.217
100.926
99.8961
99.4508
98.7572
96.3918
93.7357
76.6776
75.1288
73.2412
52.7167
53.5507
54.6873
55.6023
56.0282
56.2475
56.2293
56.0592
55.7393
55.2812
54.7667
54.343
54.0031
53.5427
52.9064
52.0175
50.9767
144.543
137.847
131.709
126.039
120.882
116.543
115.982
136.319
838.699
143.624
136.685
130.456
124.857
119.773
116.825
113.378
117.533
188.203
523.324
626.356
734.348
780.348
520.608
747.186
447.319
317.937
348.239
287.53
152.48
144.018
136.366
130.817
122.844
117.27
113.032
114.551
148.453
213.233
382.146
515.421
569.349
800.077
667.966
466.571
413.979
382.008
158.812
155.089
151.34
146.301
138.666
131.399
124.75
122.055
127.424
131.96
168.794
222.859
279.784
335.931
451.324
568.128
635.436
576.172
417.525
306.632
144.09
141.416
140.747
140.931
140.476
139.67
137.58
134.792
133.589
135.924
142.846
192.861
191.595
204.794
224.022
244.835
268.455
284.819
308.669
264.926
239.159
219.288
204.088
144.246
142.971
143.315
140.388
137.197
135.577
134.306
132.972
146.317
147.097
151.688
153.816
155.001
158.517
163.011
168.747
175.226
179.941
198.63
189.726
180.807
172.584
165.286
204.918
202.85
195.376
182.146
166.974
153.461
143.14
135.385
132.951
133.316
133.88
133.94
132.442
131.645
131.068
131.401
130.504
129.637
140.089
140.491
139.395
137.44
135.043
234.637
232.99
222.378
209.391
197.044
184.576
172.398
161.475
151.265
142.302
135.082
128.716
124.756
122.728
120.796
118.294
116.056
113.381
110.921
113.048
113.107
112.791
112.171
111.317
249.156
242.584
238.585
229.551
216.41
201.865
187.583
176.411
167.58
159.789
152.968
145.839
137.289
128.938
122.351
117.216
112.985
109.221
105.546
106.707
104.494
102.541
100.792
99.2102
97.7598
253.753
247.973
244.471
237.105
223.937
207.378
189.867
174.461
161.634
151.336
143.314
136.795
130.726
124.395
118.52
113.424
108.768
104.279
99.9148
96.4566
99.5934
96.88
94.3463
92.0133
89.8778
173.049
175.325
179.119
179.399
174.656
167.237
208.11
195.388
183.094
171.688
161.95
150.957
135.535
124.076
114.709
107.382
101.451
96.1773
91.2394
86.952
93.7191
91.0282
88.4119
85.9134
83.5543
196.266
195.153
196.999
192.845
184.363
174.859
223.97
208.144
192.846
179.226
168.029
157.424
142.376
130.63
120.189
111.505
104.469
98.1327
92.2155
86.9727
95.4779
92.521
89.6048
86.7806
84.0817
226.139
226.651
219.452
208.323
194.694
224.412
208.685
193.485
179.879
168.584
158
143.09
131.414
121.111
112.708
105.828
99.4548
93.4722
88.1371
95.9793
93.0761
90.1963
87.3956
84.7107
172.014
174.639
173.434
167.603
160.22
151.735
198.469
186.585
174.989
164.781
154.438
138.996
127.224
117.385
109.531
103.11
97.208
91.6746
86.8209
95.8721
93.1536
90.4792
87.9096
85.4789
218.062
214.975
205.811
193.436
179.601
166.364
154.367
144.066
135.68
129.304
123.819
118.421
113.801
109.858
105.78
101.609
97.3938
93.6969
101.139
98.3845
95.8119
93.4494
91.2983
239.817
232.882
220.493
205.251
189.606
176.854
166.584
157.879
150.69
144.403
137.327
130.059
124.327
119.426
114.68
110.208
105.881
108.16
105.828
103.777
101.963
100.349
98.9027
237.849
227.694
214.905
203.437
192.083
180.894
170.945
160.86
151.417
143.084
135.01
128.172
123.369
119.715
116.532
113.643
110.602
107.826
113.553
113.52
113.206
112.657
111.926
223.766
211.136
197.404
182.777
168.228
155.452
144.269
135.952
131.216
128.47
134.649
133.14
129.809
125.833
123.693
121.497
119.55
139.334
139.948
139.158
137.535
135.459
177.309
175.86
165.601
152.893
143.048
136.537
132.456
145.971
147.025
151.997
154.332
149.785
146.003
145.535
146.4
146.909
149.064
197.503
189.408
181.106
173.304
166.258
134.974
134.237
134.548
136.244
136.541
136.388
135.607
136.091
138.166
193.792
184.907
180.785
186.901
195.007
195.106
227.073
234.619
266.458
240.733
220.755
205.331
193.183
151.369
147.702
141.85
136.692
132.016
129.54
131.014
139.009
154.548
183.532
218.391
254.506
267.159
288.303
342.039
357.846
382.418
303.846
270.295
245.834
228.038
212.806
144.184
136.585
132.628
125.219
119.076
115.509
121.238
131.803
164.76
304.22
372.235
440.31
607.377
681.305
1082.67
573.149
397.137
352.666
321.93
258.578
232.669
200.267
136.386
130.177
124.615
119.577
116.699
112.499
113.86
166.057
244.106
444.086
588.819
623.696
773.985
559.096
430.666
375.914
274.968
251.449
231.139
186.384
200.262
137.804
131.733
126.132
121.036
116.737
115.166
123.988
268.805
561.74
857.79
1080.56
677.727
548.69
1786.85
390.406
343.85
560.359
511.91
245.473
210.298
285.811
296.107
139.755
133.269
127.371
122.224
118.407
118.766
135.383
479.58
403.673
328.863
138.162
131.691
125.962
121.184
118.233
121.237
160.698
543.536
445.697
318.398
129.35
123.659
118.756
114.863
112.752
115.238
161.487
1560.85
649.717
386.48
234.348
107.971