/*--------------------------------*- C++ -*----------------------------------*\
  =========                 |
  \\      /  F ield         | OpenFOAM: The Open Source CFD Toolbox
   \\    /   O peration     | Website:  https://openfoam.org
    \\  /    A nd           | Version:  13
     \\/     M anipulation  |
\*---------------------------------------------------------------------------*/
FoamFile
{
    format      ascii;
    class       volScalarField;
    location    "800";
    object      k;
}
// * * * * * * * * * * * * * * * * * * * * * * * * * * * * * * * * * * * * * //

dimensions      [0 2 -2 0 0 0 0];

internalField   nonuniform List<scalar> 
172290
(
0.623748
0.617446
0.61126
0.605187
0.599222
0.593364
0.58761
0.581956
0.576401
0.570942
0.565577
0.560303
0.555118
0.55002
0.545006
0.540076
0.535226
0.530455
0.525761
0.521142
0.516596
0.512123
0.507719
0.503384
0.499116
0.494914
0.490776
0.4867
0.482686
0.478732
0.474836
0.470998
0.467217
0.46349
0.459818
0.456198
0.452631
0.449114
0.445648
0.44223
0.43886
0.435538
0.432262
0.429031
0.425846
0.422704
0.419606
0.41655
0.413537
0.410566
0.407635
0.404746
0.401897
0.399087
0.396318
0.393588
0.390898
0.388248
0.385637
0.383065
0.380534
0.378043
0.375592
0.373182
0.370813
0.368485
0.3662
0.363956
0.361755
0.359595
0.357477
0.355401
0.353364
0.351366
0.349406
0.34748
0.345587
0.623748
0.617446
0.61126
0.605187
0.599222
0.593364
0.587609
0.581956
0.576401
0.570942
0.565577
0.560303
0.555118
0.55002
0.545006
0.540075
0.535226
0.530454
0.52576
0.521141
0.516596
0.512122
0.507719
0.503384
0.499116
0.494913
0.490775
0.4867
0.482685
0.478731
0.474836
0.470998
0.467216
0.46349
0.459817
0.456198
0.45263
0.449113
0.445647
0.442229
0.438859
0.435537
0.432261
0.42903
0.425844
0.422703
0.419604
0.416549
0.413536
0.410564
0.407634
0.404744
0.401895
0.399085
0.396316
0.393586
0.390896
0.388245
0.385634
0.383063
0.380532
0.378041
0.37559
0.37318
0.370812
0.368485
0.3662
0.363957
0.361757
0.359598
0.357482
0.355407
0.353372
0.351377
0.349418
0.347495
0.345605
0.623748
0.617446
0.61126
0.605187
0.599222
0.593364
0.587609
0.581956
0.576401
0.570942
0.565577
0.560303
0.555118
0.55002
0.545006
0.540075
0.535225
0.530454
0.52576
0.521141
0.516596
0.512122
0.507718
0.503383
0.499116
0.494913
0.490775
0.486699
0.482685
0.47873
0.474835
0.470997
0.467215
0.463489
0.459816
0.456197
0.452629
0.449112
0.445645
0.442227
0.438858
0.435535
0.432259
0.429028
0.425842
0.4227
0.419602
0.416546
0.413533
0.410561
0.407631
0.404741
0.401891
0.399082
0.396312
0.393583
0.390892
0.388242
0.385631
0.38306
0.380529
0.378038
0.375588
0.373179
0.370811
0.368485
0.366202
0.363961
0.361763
0.359607
0.357494
0.355423
0.353393
0.351402
0.349449
0.347531
0.345647
0.623748
0.617446
0.61126
0.605187
0.599222
0.593364
0.587609
0.581956
0.576401
0.570942
0.565577
0.560303
0.555118
0.550019
0.545006
0.540075
0.535225
0.530454
0.52576
0.521141
0.516595
0.512122
0.507718
0.503383
0.499115
0.494913
0.490774
0.486698
0.482684
0.47873
0.474834
0.470996
0.467214
0.463487
0.459815
0.456195
0.452627
0.44911
0.445643
0.442225
0.438855
0.435533
0.432256
0.429025
0.425839
0.422697
0.419598
0.416543
0.413529
0.410557
0.407626
0.404736
0.401887
0.399077
0.396307
0.393578
0.390887
0.388237
0.385626
0.383055
0.380524
0.378034
0.375585
0.373177
0.370811
0.368487
0.366206
0.363968
0.361773
0.359621
0.357513
0.355447
0.353423
0.35144
0.349494
0.347585
0.34571
0.623748
0.617446
0.61126
0.605187
0.599222
0.593364
0.587609
0.581956
0.576401
0.570942
0.565577
0.560303
0.555118
0.550019
0.545006
0.540075
0.535225
0.530454
0.52576
0.521141
0.516595
0.512121
0.507718
0.503382
0.499114
0.494912
0.490773
0.486697
0.482683
0.478728
0.474833
0.470994
0.467212
0.463486
0.459813
0.456193
0.452625
0.449108
0.445641
0.442222
0.438852
0.435529
0.432252
0.429021
0.425835
0.422693
0.419594
0.416538
0.413524
0.410552
0.40762
0.40473
0.40188
0.399071
0.396301
0.393571
0.390881
0.38823
0.38562
0.383049
0.380519
0.37803
0.375582
0.373175
0.370811
0.36849
0.366212
0.363978
0.361788
0.359642
0.35754
0.355483
0.353468
0.351494
0.34956
0.347663
0.345801
0.623748
0.617446
0.61126
0.605187
0.599222
0.593364
0.587609
0.581956
0.576401
0.570942
0.565577
0.560303
0.555117
0.550019
0.545006
0.540075
0.535225
0.530454
0.525759
0.52114
0.516595
0.512121
0.507717
0.503382
0.499114
0.494911
0.490772
0.486696
0.482682
0.478727
0.474831
0.470993
0.467211
0.463484
0.459811
0.45619
0.452622
0.449105
0.445637
0.442219
0.438848
0.435525
0.432248
0.429017
0.42583
0.422687
0.419588
0.416532
0.413517
0.410545
0.407613
0.404723
0.401873
0.399063
0.396293
0.393563
0.390873
0.388222
0.385612
0.383042
0.380513
0.378025
0.375578
0.373174
0.370812
0.368494
0.366221
0.363991
0.361808
0.35967
0.357577
0.35553
0.353527
0.351567
0.349648
0.347768
0.345923
0.623748
0.617446
0.61126
0.605187
0.599222
0.593364
0.587609
0.581956
0.576401
0.570942
0.565577
0.560302
0.555117
0.550019
0.545005
0.540075
0.535224
0.530453
0.525759
0.52114
0.516594
0.51212
0.507716
0.503381
0.499113
0.49491
0.490771
0.486695
0.48268
0.478725
0.474829
0.470991
0.467208
0.463481
0.459808
0.456187
0.452619
0.449101
0.445634
0.442215
0.438844
0.43552
0.432243
0.429011
0.425824
0.422681
0.419581
0.416524
0.41351
0.410537
0.407605
0.404714
0.401864
0.399054
0.396283
0.393553
0.390863
0.388213
0.385603
0.383034
0.380506
0.378019
0.375574
0.373173
0.370814
0.3685
0.366232
0.364009
0.361834
0.359705
0.357624
0.355591
0.353603
0.351661
0.349763
0.347904
0.346083
0.623748
0.617446
0.61126
0.605187
0.599222
0.593364
0.587609
0.581956
0.576401
0.570942
0.565576
0.560302
0.555117
0.550019
0.545005
0.540074
0.535224
0.530453
0.525758
0.521139
0.516593
0.512119
0.507715
0.50338
0.499111
0.494908
0.490769
0.486693
0.482678
0.478723
0.474827
0.470988
0.467205
0.463478
0.459804
0.456184
0.452615
0.449097
0.445629
0.44221
0.438839
0.435514
0.432237
0.429004
0.425817
0.422673
0.419573
0.416516
0.413501
0.410527
0.407595
0.404704
0.401853
0.399043
0.396272
0.393542
0.390852
0.388202
0.385593
0.383025
0.380498
0.378013
0.37557
0.373172
0.370817
0.368509
0.366247
0.364032
0.361867
0.35975
0.357684
0.355668
0.3537
0.351782
0.349909
0.34808
0.34629
0.623748
0.617446
0.61126
0.605187
0.599222
0.593364
0.587609
0.581956
0.576401
0.570942
0.565576
0.560302
0.555117
0.550019
0.545005
0.540074
0.535224
0.530452
0.525758
0.521138
0.516593
0.512118
0.507714
0.503379
0.49911
0.494907
0.490768
0.486691
0.482676
0.478721
0.474824
0.470985
0.467202
0.463475
0.459801
0.45618
0.452611
0.449092
0.445624
0.442204
0.438833
0.435508
0.43223
0.428997
0.425809
0.422665
0.419564
0.416506
0.413491
0.410517
0.407584
0.404692
0.401841
0.39903
0.39626
0.39353
0.39084
0.38819
0.385582
0.383014
0.380489
0.378006
0.375566
0.373171
0.370822
0.36852
0.366266
0.364061
0.361908
0.359807
0.357759
0.355764
0.353823
0.351934
0.350095
0.348304
0.346555
0.623748
0.617446
0.61126
0.605187
0.599222
0.593364
0.587609
0.581956
0.576401
0.570942
0.565576
0.560302
0.555117
0.550018
0.545005
0.540074
0.535223
0.530452
0.525757
0.521138
0.516592
0.512117
0.507713
0.503377
0.499109
0.494905
0.490766
0.486689
0.482674
0.478718
0.474822
0.470982
0.467199
0.463471
0.459797
0.456175
0.452606
0.449087
0.445618
0.442198
0.438826
0.435501
0.432222
0.428989
0.4258
0.422656
0.419554
0.416496
0.41348
0.410505
0.407572
0.40468
0.401828
0.399017
0.396246
0.393516
0.390826
0.388177
0.385569
0.383003
0.380479
0.377999
0.375562
0.373172
0.370829
0.368534
0.366289
0.364097
0.361959
0.359877
0.357851
0.355884
0.353976
0.352125
0.35033
0.348589
0.346896
0.623748
0.617446
0.61126
0.605187
0.599222
0.593364
0.587609
0.581956
0.576401
0.570942
0.565576
0.560302
0.555116
0.550018
0.545004
0.540073
0.535223
0.530451
0.525756
0.521137
0.516591
0.512116
0.507712
0.503376
0.499107
0.494903
0.490764
0.486687
0.482671
0.478716
0.474819
0.470979
0.467195
0.463467
0.459792
0.456171
0.452601
0.449081
0.445612
0.442191
0.438819
0.435493
0.432214
0.42898
0.425791
0.422645
0.419543
0.416484
0.413467
0.410492
0.407559
0.404666
0.401814
0.399002
0.396231
0.393501
0.390811
0.388163
0.385556
0.382991
0.380469
0.377992
0.375559
0.373174
0.370838
0.368552
0.366319
0.364142
0.362022
0.359962
0.357965
0.356033
0.354166
0.352365
0.350628
0.348953
0.347334
0.623748
0.617446
0.61126
0.605187
0.599222
0.593364
0.587609
0.581956
0.576401
0.570942
0.565576
0.560302
0.555116
0.550018
0.545004
0.540073
0.535222
0.53045
0.525756
0.521136
0.51659
0.512115
0.507711
0.503374
0.499105
0.494902
0.490762
0.486685
0.482669
0.478713
0.474815
0.470975
0.467191
0.463463
0.459788
0.456165
0.452595
0.449075
0.445605
0.442184
0.438811
0.435485
0.432205
0.42897
0.42578
0.422634
0.419532
0.416472
0.413454
0.410479
0.407544
0.404651
0.401798
0.398986
0.396215
0.393485
0.390796
0.388148
0.385542
0.382979
0.380459
0.377985
0.375558
0.373178
0.37085
0.368575
0.366356
0.364196
0.362098
0.360067
0.358105
0.356216
0.354402
0.352665
0.351004
0.349417
0.347899
0.623748
0.617446
0.61126
0.605187
0.599222
0.593364
0.587609
0.581956
0.576401
0.570941
0.565576
0.560301
0.555116
0.550017
0.545003
0.540072
0.535222
0.53045
0.525755
0.521135
0.516589
0.512114
0.507709
0.503373
0.499103
0.4949
0.49076
0.486682
0.482666
0.47871
0.474812
0.470971
0.467187
0.463458
0.459782
0.45616
0.452589
0.449069
0.445598
0.442176
0.438803
0.435476
0.432195
0.42896
0.425769
0.422623
0.419519
0.416459
0.413441
0.410464
0.407529
0.404635
0.401782
0.39897
0.396198
0.393468
0.390779
0.388132
0.385527
0.382966
0.380449
0.377979
0.375557
0.373185
0.370866
0.368603
0.3664
0.364261
0.362191
0.360194
0.358275
0.356441
0.354694
0.35304
0.351479
0.350011
0.348632
0.623748
0.617446
0.61126
0.605187
0.599222
0.593364
0.587609
0.581956
0.5764
0.570941
0.565576
0.560301
0.555116
0.550017
0.545003
0.540072
0.535221
0.530449
0.525754
0.521134
0.516587
0.512113
0.507708
0.503371
0.499102
0.494897
0.490757
0.486679
0.482663
0.478706
0.474808
0.470967
0.467183
0.463453
0.459777
0.456154
0.452583
0.449062
0.445591
0.442168
0.438794
0.435466
0.432185
0.428949
0.425758
0.42261
0.419506
0.416445
0.413426
0.410449
0.407513
0.404618
0.401765
0.398952
0.396181
0.39345
0.390762
0.388115
0.385512
0.382953
0.38044
0.377974
0.375558
0.373194
0.370886
0.368638
0.366454
0.364339
0.362301
0.360346
0.35848
0.356714
0.355053
0.353507
0.352079
0.350772
0.349586
0.623748
0.617446
0.61126
0.605187
0.599222
0.593364
0.587609
0.581956
0.5764
0.570941
0.565575
0.560301
0.555115
0.550017
0.545003
0.540071
0.53522
0.530448
0.525753
0.521133
0.516586
0.512111
0.507706
0.503369
0.4991
0.494895
0.490755
0.486677
0.48266
0.478703
0.474804
0.470963
0.467178
0.463448
0.459772
0.456148
0.452576
0.449055
0.445583
0.44216
0.438785
0.435457
0.432174
0.428938
0.425746
0.422597
0.419493
0.41643
0.413411
0.410433
0.407496
0.404601
0.401747
0.398934
0.396162
0.393432
0.390744
0.388099
0.385497
0.382941
0.380431
0.37797
0.375561
0.373206
0.37091
0.368679
0.366516
0.364431
0.362431
0.360525
0.358725
0.357043
0.355493
0.354086
0.352835
0.35175
0.350834
0.623748
0.617446
0.61126
0.605187
0.599222
0.593364
0.587609
0.581955
0.5764
0.570941
0.565575
0.560301
0.555115
0.550016
0.545002
0.540071
0.53522
0.530447
0.525752
0.521132
0.516585
0.51211
0.507704
0.503367
0.499097
0.494893
0.490752
0.486674
0.482656
0.478699
0.4748
0.470959
0.467173
0.463443
0.459766
0.456142
0.452569
0.449047
0.445575
0.442151
0.438775
0.435446
0.432163
0.428926
0.425733
0.422584
0.419478
0.416415
0.413395
0.410416
0.407479
0.404583
0.401729
0.398915
0.396143
0.393413
0.390726
0.388082
0.385482
0.382928
0.380422
0.377967
0.375565
0.373221
0.370939
0.368726
0.366589
0.364537
0.362581
0.360735
0.359014
0.357437
0.356025
0.3548
0.353787
0.353006
0.352471
0.623748
0.617446
0.61126
0.605187
0.599222
0.593364
0.587609
0.581955
0.5764
0.570941
0.565575
0.5603
0.555115
0.550016
0.545002
0.54007
0.535219
0.530447
0.525751
0.521131
0.516584
0.512108
0.507703
0.503366
0.499095
0.49489
0.490749
0.486671
0.482653
0.478695
0.474796
0.470954
0.467168
0.463437
0.45976
0.456135
0.452562
0.449039
0.445566
0.442142
0.438765
0.435436
0.432152
0.428914
0.42572
0.42257
0.419464
0.4164
0.413379
0.410399
0.407461
0.404565
0.40171
0.398896
0.396124
0.393394
0.390708
0.388065
0.385467
0.382916
0.380414
0.377965
0.375572
0.373239
0.370972
0.36878
0.366671
0.364656
0.362752
0.360976
0.359349
0.357901
0.356663
0.355674
0.354976
0.354608
0.354588
0.623748
0.617446
0.61126
0.605187
0.599222
0.593364
0.587609
0.581955
0.5764
0.570941
0.565575
0.5603
0.555114
0.550015
0.545001
0.540069
0.535218
0.530446
0.52575
0.52113
0.516582
0.512107
0.507701
0.503364
0.499093
0.494888
0.490746
0.486668
0.48265
0.478692
0.474792
0.470949
0.467163
0.463431
0.459754
0.456128
0.452555
0.449031
0.445558
0.442133
0.438755
0.435425
0.432141
0.428901
0.425707
0.422556
0.419449
0.416384
0.413362
0.410382
0.407443
0.404546
0.40169
0.398876
0.396104
0.393375
0.390689
0.388047
0.385452
0.382904
0.380407
0.377964
0.37558
0.373259
0.371009
0.368839
0.366761
0.364789
0.362942
0.361246
0.359731
0.358437
0.357415
0.356726
0.356438
0.356594
0.357128
0.623748
0.617446
0.61126
0.605186
0.599222
0.593364
0.587609
0.581955
0.5764
0.570941
0.565575
0.5603
0.555114
0.550015
0.545001
0.540069
0.535218
0.530445
0.525749
0.521129
0.516581
0.512105
0.507699
0.503362
0.499091
0.494885
0.490744
0.486664
0.482646
0.478688
0.474788
0.470945
0.467158
0.463426
0.459747
0.456122
0.452547
0.449023
0.445549
0.442123
0.438745
0.435414
0.432129
0.428889
0.425693
0.422542
0.419434
0.416368
0.413345
0.410364
0.407425
0.404527
0.401671
0.398857
0.396085
0.393356
0.39067
0.38803
0.385437
0.382893
0.3804
0.377964
0.375589
0.373281
0.371048
0.368902
0.366857
0.36493
0.363148
0.361541
0.360153
0.359041
0.35828
0.357961
0.358165
0.358774
0.35977
0.623748
0.617446
0.61126
0.605186
0.599222
0.593364
0.587609
0.581955
0.5764
0.57094
0.565574
0.5603
0.555114
0.550015
0.545
0.540068
0.535217
0.530444
0.525748
0.521127
0.51658
0.512104
0.507697
0.50336
0.499089
0.494883
0.490741
0.486661
0.482643
0.478684
0.474783
0.47094
0.467153
0.46342
0.459741
0.456115
0.45254
0.449015
0.44554
0.442114
0.438735
0.435403
0.432117
0.428876
0.42568
0.422528
0.419418
0.416352
0.413328
0.410346
0.407406
0.404508
0.401651
0.398837
0.396065
0.393336
0.390652
0.388013
0.385422
0.382881
0.380394
0.377965
0.375599
0.373304
0.371089
0.368967
0.366956
0.365077
0.363361
0.361851
0.360603
0.359696
0.359238
0.359343
0.359923
0.360956
0.36252
0.623748
0.617446
0.61126
0.605186
0.599222
0.593363
0.587609
0.581955
0.5764
0.57094
0.565574
0.560299
0.555113
0.550014
0.545
0.540068
0.535216
0.530443
0.525747
0.521126
0.516578
0.512102
0.507696
0.503358
0.499086
0.49488
0.490738
0.486658
0.482639
0.47868
0.474779
0.470935
0.467147
0.463414
0.459735
0.456108
0.452532
0.449007
0.445531
0.442104
0.438725
0.435392
0.432105
0.428863
0.425666
0.422513
0.419403
0.416336
0.413311
0.410328
0.407388
0.404489
0.401632
0.398817
0.396045
0.393317
0.390633
0.387996
0.385407
0.38287
0.380388
0.377965
0.375609
0.373326
0.371129
0.369031
0.367053
0.365221
0.363573
0.362161
0.361058
0.360371
0.360241
0.360685
0.361609
0.363123
0.365358
0.623748
0.617446
0.61126
0.605186
0.599222
0.593363
0.587609
0.581955
0.5764
0.57094
0.565574
0.560299
0.555113
0.550014
0.544999
0.540067
0.535215
0.530442
0.525746
0.521125
0.516577
0.512101
0.507694
0.503356
0.499084
0.494878
0.490735
0.486655
0.482636
0.478676
0.474775
0.47093
0.467142
0.463408
0.459728
0.456101
0.452525
0.448999
0.445523
0.442095
0.438715
0.435381
0.432093
0.428851
0.425653
0.422499
0.419388
0.41632
0.413294
0.410311
0.407369
0.404469
0.401612
0.398797
0.396025
0.393297
0.390615
0.387979
0.385393
0.382859
0.380381
0.377965
0.375617
0.373347
0.371166
0.369091
0.367144
0.365355
0.363769
0.362449
0.361486
0.361014
0.361203
0.361881
0.363152
0.365178
0.368177
0.623748
0.617446
0.61126
0.605186
0.599222
0.593363
0.587609
0.581955
0.576399
0.57094
0.565574
0.560299
0.555113
0.550013
0.544999
0.540066
0.535215
0.530442
0.525745
0.521124
0.516576
0.512099
0.507692
0.503354
0.499082
0.494875
0.490732
0.486652
0.482632
0.478672
0.47477
0.470926
0.467137
0.463403
0.459722
0.456094
0.452517
0.448991
0.445514
0.442085
0.438704
0.43537
0.432082
0.428838
0.425639
0.422484
0.419373
0.416304
0.413277
0.410293
0.407351
0.404451
0.401593
0.398778
0.396006
0.393278
0.390597
0.387963
0.385378
0.382848
0.380374
0.377964
0.375625
0.373365
0.371198
0.369142
0.36722
0.365468
0.363933
0.362688
0.36184
0.361548
0.361901
0.36279
0.364386
0.366925
0.623748
0.617446
0.61126
0.605186
0.599222
0.593363
0.587609
0.581955
0.576399
0.57094
0.565574
0.560299
0.555112
0.550013
0.544998
0.540066
0.535214
0.530441
0.525744
0.521123
0.516574
0.512098
0.50769
0.503352
0.49908
0.494873
0.490729
0.486649
0.482629
0.478668
0.474766
0.470921
0.467132
0.463397
0.459716
0.456087
0.45251
0.448983
0.445505
0.442076
0.438694
0.435359
0.43207
0.428826
0.425626
0.42247
0.419358
0.416288
0.413261
0.410276
0.407333
0.404432
0.401574
0.398758
0.395987
0.39326
0.390579
0.387946
0.385364
0.382836
0.380367
0.377962
0.375629
0.373378
0.371222
0.36918
0.367277
0.365549
0.364047
0.362849
0.362072
0.361891
0.362326
0.363351
0.365181
0.368138
0.623748
0.617446
0.61126
0.605186
0.599222
0.593363
0.587609
0.581955
0.576399
0.57094
0.565573
0.560298
0.555112
0.550013
0.544998
0.540065
0.535213
0.53044
0.525743
0.521122
0.516573
0.512096
0.507689
0.50335
0.499077
0.49487
0.490727
0.486646
0.482625
0.478664
0.474762
0.470916
0.467127
0.463392
0.45971
0.456081
0.452503
0.448975
0.445497
0.442067
0.438685
0.435349
0.432059
0.428814
0.425613
0.422457
0.419343
0.416273
0.413245
0.410259
0.407315
0.404414
0.401555
0.39874
0.395968
0.393241
0.390561
0.38793
0.38535
0.382824
0.380358
0.377958
0.37563
0.373385
0.371237
0.369204
0.367309
0.36559
0.364097
0.362906
0.362136
0.361965
0.362398
0.36344
0.365337
0.36849
0.623748
0.617446
0.61126
0.605186
0.599222
0.593363
0.587609
0.581955
0.576399
0.570939
0.565573
0.560298
0.555112
0.550012
0.544997
0.540065
0.535213
0.530439
0.525742
0.521121
0.516572
0.512095
0.507687
0.503348
0.499075
0.494868
0.490724
0.486643
0.482622
0.478661
0.474758
0.470912
0.467122
0.463386
0.459704
0.456074
0.452496
0.448968
0.445489
0.442058
0.438675
0.435338
0.432048
0.428802
0.425601
0.422443
0.419329
0.416258
0.413229
0.410242
0.407298
0.404396
0.401537
0.398722
0.39595
0.393224
0.390544
0.387914
0.385335
0.382812
0.380348
0.377951
0.375627
0.373386
0.371241
0.36921
0.367314
0.365587
0.364075
0.362848
0.362011
0.361728
0.36206
0.362969
0.36471
0.367721
0.623748
0.617446
0.61126
0.605186
0.599222
0.593363
0.587608
0.581955
0.576399
0.570939
0.565573
0.560298
0.555112
0.550012
0.544997
0.540064
0.535212
0.530438
0.525741
0.521119
0.516571
0.512093
0.507686
0.503346
0.499073
0.494866
0.490722
0.48664
0.482619
0.478657
0.474754
0.470908
0.467117
0.463381
0.459699
0.456068
0.452489
0.44896
0.445481
0.44205
0.438666
0.435329
0.432037
0.428791
0.425589
0.42243
0.419315
0.416243
0.413214
0.410227
0.407282
0.40438
0.40152
0.398704
0.395932
0.393206
0.390527
0.387898
0.385321
0.382799
0.380338
0.377942
0.37562
0.37338
0.371235
0.369198
0.367291
0.365541
0.363984
0.362678
0.361707
0.361199
0.361322
0.36194
0.363287
0.365781
0.623748
0.617446
0.61126
0.605186
0.599222
0.593363
0.587608
0.581954
0.576399
0.570939
0.565573
0.560298
0.555111
0.550011
0.544996
0.540064
0.535211
0.530438
0.525741
0.521118
0.516569
0.512092
0.507684
0.503344
0.499071
0.494863
0.490719
0.486637
0.482616
0.478654
0.47475
0.470904
0.467113
0.463376
0.459693
0.456062
0.452483
0.448954
0.445473
0.442042
0.438657
0.435319
0.432027
0.42878
0.425577
0.422418
0.419302
0.41623
0.413199
0.410212
0.407266
0.404363
0.401504
0.398687
0.395916
0.39319
0.390511
0.387883
0.385306
0.382786
0.380326
0.377932
0.37561
0.373369
0.371219
0.369172
0.367245
0.365458
0.363837
0.362421
0.361265
0.360457
0.360134
0.360362
0.361152
0.362862
0.623748
0.617446
0.61126
0.605186
0.599222
0.593363
0.587608
0.581954
0.576399
0.570939
0.565573
0.560297
0.555111
0.550011
0.544996
0.540063
0.535211
0.530437
0.52574
0.521118
0.516568
0.512091
0.507683
0.503343
0.49907
0.494861
0.490717
0.486634
0.482613
0.478651
0.474747
0.4709
0.467108
0.463372
0.459688
0.456057
0.452477
0.448947
0.445466
0.442034
0.438649
0.43531
0.432017
0.428769
0.425566
0.422406
0.41929
0.416216
0.413186
0.410197
0.407251
0.404348
0.401488
0.398672
0.3959
0.393174
0.390496
0.387868
0.385292
0.382773
0.380313
0.377919
0.375596
0.373352
0.371195
0.369134
0.367181
0.365348
0.363652
0.362111
0.360752
0.359618
0.358786
0.358396
0.358577
0.359416
0.623748
0.617446
0.61126
0.605186
0.599222
0.593363
0.587608
0.581954
0.576399
0.570939
0.565573
0.560297
0.555111
0.550011
0.544995
0.540063
0.53521
0.530436
0.525739
0.521117
0.516567
0.512089
0.507681
0.503341
0.499068
0.494859
0.490715
0.486632
0.48261
0.478648
0.474744
0.470896
0.467104
0.463367
0.459683
0.456052
0.452471
0.448941
0.44546
0.442027
0.438641
0.435302
0.432008
0.42876
0.425556
0.422395
0.419278
0.416204
0.413173
0.410184
0.407237
0.404334
0.401473
0.398657
0.395885
0.393159
0.390481
0.387853
0.385278
0.382759
0.3803
0.377906
0.375581
0.373332
0.371166
0.369088
0.367106
0.365226
0.363451
0.361785
0.36023
0.358794
0.357504
0.356433
0.355765
0.35586
0.623748
0.617446
0.61126
0.605186
0.599222
0.593363
0.587608
0.581954
0.576399
0.570939
0.565572
0.560297
0.55511
0.550011
0.544995
0.540062
0.53521
0.530436
0.525738
0.521116
0.516566
0.512088
0.50768
0.50334
0.499066
0.494858
0.490713
0.48663
0.482608
0.478645
0.47474
0.470893
0.467101
0.463363
0.459679
0.456047
0.452466
0.448935
0.445453
0.44202
0.438634
0.435294
0.432
0.428751
0.425546
0.422385
0.419268
0.416193
0.413161
0.410171
0.407224
0.40432
0.40146
0.398643
0.395871
0.393145
0.390468
0.38784
0.385265
0.382746
0.380287
0.377892
0.375564
0.37331
0.371134
0.369039
0.367028
0.365101
0.363253
0.361474
0.359749
0.358063
0.356412
0.354828
0.353443
0.352579
0.623748
0.617446
0.61126
0.605186
0.599222
0.593363
0.587608
0.581954
0.576399
0.570939
0.565572
0.560297
0.55511
0.55001
0.544995
0.540062
0.535209
0.530435
0.525738
0.521115
0.516566
0.512087
0.507679
0.503339
0.499065
0.494856
0.490711
0.486628
0.482605
0.478642
0.474738
0.47089
0.467097
0.463359
0.459675
0.456042
0.452461
0.44893
0.445448
0.442014
0.438627
0.435287
0.431992
0.428743
0.425537
0.422376
0.419258
0.416182
0.41315
0.41016
0.407213
0.404308
0.401447
0.39863
0.395858
0.393132
0.390455
0.387828
0.385253
0.382734
0.380275
0.377878
0.375548
0.373288
0.371102
0.368991
0.366954
0.364985
0.363073
0.3612
0.359341
0.357466
0.355559
0.353639
0.351814
0.350363
0.623748
0.617446
0.61126
0.605186
0.599222
0.593363
0.587608
0.581954
0.576399
0.570939
0.565572
0.560297
0.55511
0.55001
0.544994
0.540061
0.535209
0.530435
0.525737
0.521114
0.516565
0.512086
0.507678
0.503337
0.499063
0.494854
0.490709
0.486626
0.482603
0.47864
0.474735
0.470887
0.467094
0.463356
0.459671
0.456038
0.452457
0.448925
0.445442
0.442008
0.438621
0.43528
0.431985
0.428735
0.425529
0.422367
0.419249
0.416173
0.41314
0.41015
0.407202
0.404297
0.401436
0.398618
0.395846
0.393121
0.390443
0.387816
0.385242
0.382723
0.380263
0.377865
0.375532
0.373267
0.371073
0.368947
0.366887
0.364884
0.362921
0.360977
0.359019
0.357018
0.354953
0.352845
0.350804
0.349095
0.623748
0.617446
0.61126
0.605186
0.599222
0.593363
0.587608
0.581954
0.576398
0.570939
0.565572
0.560297
0.55511
0.55001
0.544994
0.540061
0.535208
0.530434
0.525737
0.521114
0.516564
0.512086
0.507677
0.503336
0.499062
0.494853
0.490708
0.486624
0.482601
0.478638
0.474733
0.470884
0.467091
0.463353
0.459668
0.456035
0.452453
0.448921
0.445438
0.442003
0.438615
0.435274
0.431979
0.428728
0.425522
0.42236
0.419241
0.416165
0.413131
0.41014
0.407192
0.404287
0.401426
0.398608
0.395836
0.39311
0.390433
0.387806
0.385232
0.382713
0.380252
0.377853
0.375518
0.373249
0.371046
0.368909
0.366831
0.364801
0.362802
0.360808
0.358789
0.356715
0.354573
0.352399
0.350317
0.348597
0.623748
0.617446
0.61126
0.605186
0.599222
0.593363
0.587608
0.581954
0.576398
0.570938
0.565572
0.560296
0.55511
0.55001
0.544994
0.540061
0.535208
0.530434
0.525736
0.521113
0.516563
0.512085
0.507676
0.503335
0.499061
0.494852
0.490706
0.486623
0.4826
0.478636
0.474731
0.470882
0.467089
0.46335
0.459665
0.456032
0.452449
0.448917
0.445434
0.441999
0.438611
0.435269
0.431974
0.428723
0.425516
0.422353
0.419234
0.416157
0.413124
0.410132
0.407184
0.404279
0.401417
0.398599
0.395827
0.393101
0.390424
0.387797
0.385223
0.382704
0.380243
0.377842
0.375505
0.373233
0.371025
0.368879
0.366787
0.364739
0.362715
0.360692
0.358641
0.356541
0.354392
0.35225
0.350267
0.348734
0.623748
0.617446
0.61126
0.605186
0.599222
0.593363
0.587608
0.581954
0.576398
0.570938
0.565572
0.560296
0.55511
0.550009
0.544994
0.540061
0.535208
0.530433
0.525736
0.521113
0.516563
0.512084
0.507675
0.503335
0.49906
0.494851
0.490705
0.486622
0.482599
0.478635
0.474729
0.47088
0.467087
0.463348
0.459662
0.456029
0.452446
0.448914
0.44543
0.441995
0.438607
0.435265
0.431969
0.428718
0.425511
0.422348
0.419228
0.416151
0.413117
0.410126
0.407177
0.404272
0.40141
0.398592
0.39582
0.393094
0.390417
0.38779
0.385215
0.382696
0.380235
0.377834
0.375495
0.37322
0.371008
0.368855
0.366755
0.364695
0.362658
0.360622
0.358565
0.356474
0.354371
0.352339
0.350567
0.349386
0.623748
0.617446
0.61126
0.605186
0.599222
0.593363
0.587608
0.581954
0.576398
0.570938
0.565572
0.560296
0.555109
0.550009
0.544994
0.54006
0.535207
0.530433
0.525735
0.521112
0.516562
0.512084
0.507675
0.503334
0.49906
0.49485
0.490704
0.486621
0.482597
0.478634
0.474728
0.470879
0.467085
0.463346
0.459661
0.456027
0.452444
0.448911
0.445428
0.441992
0.438604
0.435262
0.431965
0.428714
0.425507
0.422344
0.419223
0.416146
0.413112
0.41012
0.407172
0.404266
0.401404
0.398586
0.395813
0.393088
0.390411
0.387784
0.385209
0.38269
0.380228
0.377827
0.375487
0.37321
0.370995
0.368838
0.366733
0.364667
0.362625
0.360588
0.35854
0.356484
0.354461
0.623748
0.617446
0.61126
0.605186
0.599222
0.593363
0.587608
0.581954
0.576398
0.570938
0.565572
0.560296
0.555109
0.550009
0.544994
0.54006
0.535207
0.530433
0.525735
0.521112
0.516562
0.512083
0.507675
0.503334
0.499059
0.49485
0.490704
0.48662
0.482597
0.478633
0.474727
0.470878
0.467084
0.463345
0.459659
0.456025
0.452442
0.448909
0.445426
0.44199
0.438601
0.435259
0.431963
0.428711
0.425504
0.42234
0.41922
0.416143
0.413108
0.410116
0.407167
0.404261
0.401399
0.398581
0.395809
0.393083
0.390406
0.387779
0.385205
0.382685
0.380224
0.377822
0.375481
0.373203
0.370987
0.368828
0.36672
0.364651
0.362609
0.360578
0.358549
0.623748
0.617446
0.61126
0.605186
0.599222
0.593363
0.587608
0.581954
0.576398
0.570938
0.565572
0.560296
0.555109
0.550009
0.544993
0.54006
0.535207
0.530433
0.525735
0.521112
0.516562
0.512083
0.507674
0.503333
0.499059
0.494849
0.490703
0.486619
0.482596
0.478632
0.474726
0.470877
0.467083
0.463344
0.459658
0.456024
0.452441
0.448908
0.445424
0.441988
0.4386
0.435258
0.431961
0.428709
0.425502
0.422338
0.419218
0.41614
0.413106
0.410114
0.407165
0.404259
0.401396
0.398578
0.395806
0.39308
0.390403
0.387776
0.385202
0.382682
0.38022
0.377818
0.375477
0.373198
0.37098
0.36882
0.36671
0.364641
0.362601
0.360575
0.358564
0.623748
0.617446
0.61126
0.605186
0.599222
0.593363
0.587608
0.581954
0.576398
0.570938
0.565572
0.560296
0.555109
0.550009
0.544993
0.54006
0.535207
0.530433
0.525735
0.521112
0.516562
0.512083
0.507674
0.503333
0.499059
0.494849
0.490703
0.486619
0.482596
0.478632
0.474726
0.470877
0.467083
0.463344
0.459658
0.456024
0.452441
0.448908
0.445424
0.441988
0.438599
0.435257
0.43196
0.428708
0.425501
0.422337
0.419216
0.416139
0.413104
0.410112
0.407163
0.404257
0.401395
0.398577
0.395804
0.393079
0.390402
0.387775
0.3852
0.382681
0.380219
0.377817
0.375476
0.373197
0.370979
0.368819
0.366709
0.36464
0.362602
0.360582
0.358583
0.623748
0.617446
0.61126
0.605186
0.599222
0.593363
0.587608
0.581954
0.576398
0.570938
0.565572
0.560296
0.555109
0.550009
0.544993
0.54006
0.535207
0.530433
0.525735
0.521112
0.516562
0.512083
0.507674
0.503333
0.499059
0.494849
0.490703
0.486619
0.482596
0.478632
0.474726
0.470877
0.467083
0.463344
0.459658
0.456024
0.452441
0.448908
0.445424
0.441988
0.438599
0.435257
0.43196
0.428708
0.425501
0.422337
0.419217
0.416139
0.413104
0.410112
0.407163
0.404257
0.401395
0.398577
0.395805
0.393079
0.390402
0.387775
0.385201
0.382681
0.380219
0.377817
0.375476
0.373197
0.370979
0.368819
0.366709
0.36464
0.362601
0.360581
0.358582
0.623748
0.617446
0.61126
0.605186
0.599222
0.593363
0.587608
0.581954
0.576398
0.570938
0.565572
0.560296
0.555109
0.550009
0.544993
0.54006
0.535207
0.530433
0.525735
0.521112
0.516562
0.512083
0.507674
0.503333
0.499059
0.494849
0.490703
0.486619
0.482596
0.478632
0.474726
0.470877
0.467084
0.463344
0.459658
0.456024
0.452441
0.448908
0.445424
0.441989
0.4386
0.435258
0.431961
0.428709
0.425502
0.422338
0.419218
0.41614
0.413106
0.410114
0.407165
0.404259
0.401397
0.398579
0.395806
0.393081
0.390403
0.387776
0.385202
0.382683
0.380221
0.377819
0.375478
0.373199
0.370981
0.36882
0.36671
0.364641
0.623748
0.617446
0.61126
0.605186
0.599222
0.593363
0.587608
0.581954
0.576398
0.570938
0.565572
0.560296
0.555109
0.550009
0.544994
0.54006
0.535207
0.530433
0.525735
0.521112
0.516562
0.512084
0.507675
0.503334
0.499059
0.49485
0.490704
0.48662
0.482597
0.478633
0.474727
0.470878
0.467084
0.463345
0.459659
0.456025
0.452443
0.44891
0.445426
0.44199
0.438602
0.435259
0.431963
0.428711
0.425504
0.422341
0.41922
0.416143
0.413109
0.410117
0.407168
0.404262
0.4014
0.398582
0.39581
0.393084
0.390407
0.38778
0.385206
0.382686
0.380224
0.377822
0.375482
0.373204
0.370987
0.368828
0.36672
0.623748
0.617446
0.61126
0.605186
0.599222
0.593363
0.587608
0.581954
0.576398
0.570938
0.565572
0.560296
0.555109
0.550009
0.544994
0.54006
0.535208
0.530433
0.525735
0.521112
0.516562
0.512084
0.507675
0.503334
0.49906
0.49485
0.490704
0.486621
0.482598
0.478634
0.474728
0.470879
0.467086
0.463347
0.459661
0.456027
0.452444
0.448912
0.445428
0.441992
0.438604
0.435262
0.431966
0.428714
0.425507
0.422344
0.419224
0.416147
0.413113
0.410121
0.407172
0.404267