/*--------------------------------*- C++ -*----------------------------------*\
  =========                 |
  \\      /  F ield         | OpenFOAM: The Open Source CFD Toolbox
   \\    /   O peration     | Website:  https://openfoam.org
    \\  /    A nd           | Version:  13
     \\/     M anipulation  |
\*---------------------------------------------------------------------------*/
FoamFile
{
    format      ascii;
    class       volScalarField;
    location    "400";
    object      p;
}
// * * * * * * * * * * * * * * * * * * * * * * * * * * * * * * * * * * * * * //

dimensions      [0 2 -2 0 0 0 0];

internalField   nonuniform List<scalar> 
172290
(
15.7648
15.7651
15.7658
15.7669
15.7684
15.7703
15.7726
15.7752
15.7782
15.7815
15.7852
15.7892
15.7935
15.7981
15.8031
15.8083
15.8138
15.8196
15.8255
15.8317
15.8381
15.8446
15.8513
15.858
15.8647
15.8714
15.878
15.8845
15.8907
15.8966
15.9021
15.9071
15.9115
15.9151
15.9178
15.9195
15.92
15.919
15.9163
15.9118
15.9051
15.896
15.8842
15.8693
15.851
15.8288
15.8023
15.771
15.7344
15.6918
15.6427
15.5865
15.5223
15.4494
15.367
15.2742
15.1702
15.0538
14.9242
14.7801
14.6207
14.4447
14.2512
14.039
13.8072
13.5548
13.281
12.9851
12.6667
12.3253
11.9609
11.5736
11.1642
10.7334
10.2826
9.81347
9.32812
15.7651
15.7654
15.7661
15.7672
15.7688
15.7707
15.7729
15.7756
15.7786
15.7819
15.7856
15.7897
15.794
15.7987
15.8037
15.809
15.8145
15.8203
15.8264
15.8326
15.8391
15.8457
15.8524
15.8592
15.866
15.8728
15.8796
15.8861
15.8925
15.8986
15.9042
15.9094
15.914
15.9178
15.9208
15.9227
15.9234
15.9227
15.9204
15.9162
15.9099
15.9013
15.8899
15.8754
15.8576
15.8359
15.8099
15.7792
15.7432
15.7014
15.653
15.5975
15.5341
15.462
15.3804
15.2885
15.1853
15.0699
14.9411
14.798
14.6394
14.4642
14.2713
14.0597
13.8283
13.5762
13.3025
13.0064
12.6875
12.3452
11.9797
11.5909
11.1795
10.7463
10.2928
9.82056
9.33181
15.7658
15.7661
15.7668
15.7679
15.7695
15.7714
15.7737
15.7764
15.7794
15.7828
15.7866
15.7907
15.7951
15.7998
15.8049
15.8103
15.8159
15.8218
15.828
15.8344
15.841
15.8477
15.8546
15.8616
15.8686
15.8757
15.8826
15.8895
15.8961
15.9025
15.9085
15.914
15.919
15.9233
15.9267
15.9291
15.9304
15.9303
15.9286
15.9251
15.9195
15.9116
15.9011
15.8875
15.8706
15.85
15.8252
15.7957
15.7609
15.7204
15.6735
15.6195
15.5576
15.4872
15.4074
15.3173
15.2159
15.1022
14.9753
14.8339
14.6771
14.5035
14.3122
14.1018
13.8715
13.6201
13.3466
13.0504
12.7306
12.387
12.0192
11.6275
11.2123
10.7745
10.3156
9.83722
9.34167
15.7668
15.7671
15.7678
15.769
15.7705
15.7725
15.7748
15.7776
15.7807
15.7841
15.788
15.7921
15.7967
15.8015
15.8067
15.8122
15.818
15.8241
15.8304
15.837
15.8438
15.8508
15.858
15.8652
15.8725
15.8799
15.8872
15.8945
15.9015
15.9084
15.9149
15.9209
15.9265
15.9314
15.9355
15.9387
15.9407
15.9415
15.9407
15.9383
15.9338
15.9271
15.9178
15.9057
15.8903
15.8712
15.848
15.8203
15.7875
15.749
15.7043
15.6525
15.5931
15.5251
15.4479
15.3604
15.2618
15.1509
15.0267
14.8881
14.7339
14.5629
14.3739
14.1656
13.9369
13.6866
13.4137
13.1172
12.7964
12.4506
12.0796
11.6835
11.2626
10.8178
10.3506
9.86276
9.35674
15.7681
15.7684
15.7691
15.7703
15.7719
15.7739
15.7763
15.7791
15.7823
15.7859
15.7898
15.7941
15.7988
15.8038
15.8091
15.8148
15.8208
15.8271
15.8337
15.8405
15.8476
15.8549
15.8624
15.87
15.8777
15.8855
15.8933
15.901
15.9087
15.9161
15.9233
15.9301
15.9364
15.9421
15.9472
15.9513
15.9545
15.9564
15.9569
15.9558
15.9528
15.9476
15.9401
15.9297
15.9163
15.8993
15.8784
15.8531
15.8228
15.7871
15.7452
15.6965
15.6402
15.5756
15.5019
15.418
15.3231
15.216
15.0956
14.9608
14.8103
14.6428
14.457
14.2515
14.0252
13.7766
13.5046
13.208
12.8858
12.5374
12.1622
11.7602
11.3317
10.8775
10.399
9.89828
9.37785
15.7697
15.77
15.7708
15.772
15.7737
15.7757
15.7782
15.7811
15.7844
15.788
15.7921
15.7965
15.8014
15.8065
15.8121
15.818
15.8242
15.8308
15.8376
15.8448
15.8522
15.8599
15.8678
15.8759
15.8841
15.8924
15.9008
15.9092
15.9175
15.9257
15.9337
15.9414
15.9487
15.9555
15.9616
15.967
15.9715
15.9749
15.9769
15.9775
15.9763
15.9732
15.9677
15.9596
15.9486
15.9343
15.9162
15.8939
15.8668
15.8344
15.7962
15.7513
15.6991
15.6387
15.5694
15.4901
15.3998
15.2975
15.182
15.0521
14.9063
14.7434
14.5618
14.3603
14.1371
13.8909
13.6203
13.3238
13.0003
12.6488
12.2686
11.8593
11.4212
10.955
10.4621
9.94457
9.40534
15.7717
15.772
15.7728
15.774
15.7757
15.7779
15.7804
15.7834
15.7868
15.7906
15.7948
15.7994
15.8044
15.8098
15.8156
15.8218
15.8283
15.8352
15.8424
15.8499
15.8578
15.8659
15.8743
15.8829
15.8917
15.9007
15.9098
15.9189
15.9281
15.9372
15.9461
15.9549
15.9633
15.9713
15.9789
15.9857
15.9918
15.9968
16.0008
16.0033
16.0043
16.0035
16.0006
15.9952
15.9872
15.976
15.9612
15.9425
15.9193
15.891
15.8571
15.8168
15.7695
15.7143
15.6503
15.5766
15.4921
15.3957
15.2862
15.1623
15.0225
14.8653
14.6892
14.4926
14.2736
14.0308
13.7622
13.4664
13.1417
12.7868
12.4008
11.983
11.5333
11.0524
10.5415
10.0031
9.4401
15.7739
15.7742
15.775
15.7764
15.7781
15.7803
15.783
15.7861
15.7896
15.7936
15.798
15.8028
15.808
15.8136
15.8197
15.8261
15.833
15.8402
15.8478
15.8558
15.8641
15.8728
15.8817
15.891
15.9005
15.9102
15.9201
15.9301
15.9402
15.9503
15.9604
15.9704
15.9802
15.9896
15.9987
16.0072
16.0151
16.0222
16.0283
16.0332
16.0367
16.0386
16.0386
16.0364
16.0317
16.0242
16.0134
15.9989
15.9801
15.9567
15.9278
15.893
15.8514
15.8022
15.7446
15.6775
15.5999
15.5106
15.4083
15.2917
15.1591
15.0091
14.8398
14.6494
14.4359
14.1975
13.9321
13.6375
13.3121
12.9539
12.5615
12.1339
11.6708
11.1723
10.6398
10.0756
9.48331
15.7764
15.7767
15.7776
15.779
15.7808
15.7831
15.7858
15.7891
15.7928
15.7969
15.8015
15.8065
15.812
15.8179
15.8242
15.831
15.8383
15.8459
15.854
15.8624
15.8713
15.8805
15.8901
15.9001
15.9103
15.9209
15.9317
15.9427
15.9539
15.9652
15.9765
15.9879
15.9991
16.0102
16.0211
16.0315
16.0415
16.0508
16.0593
16.0669
16.0732
16.0782
16.0816
16.083
16.0822
16.0788
16.0724
16.0627
16.0491
16.0311
16.0082
15.9796
15.9446
15.9024
15.8521
15.7928
15.7232
15.6422
15.5485
15.4405
15.3167
15.1753
15.0143
14.8317
14.6253
14.3928
14.1317
13.8397
13.5142
13.153
12.754
12.3157
11.8372
11.3183
10.7601
10.165
9.53677
15.7792
15.7795
15.7804
15.7818
15.7837
15.7861
15.789
15.7924
15.7962
15.8006
15.8054
15.8106
15.8164
15.8226
15.8293
15.8365
15.8441
15.8522
15.8607
15.8698
15.8792
15.8891
15.8994
15.9101
15.9212
15.9327
15.9445
15.9566
15.969
15.9816
15.9944
16.0072
16.0202
16.0331
16.0459
16.0585
16.0707
16.0826
16.0938
16.1043
16.1138
16.1222
16.1293
16.1347
16.1382
16.1395
16.1382
16.1338
16.126
16.1142
16.0979
16.0763
16.0489
16.0146
15.9728
15.9223
15.862
15.7907
15.7069
15.6092
15.4957
15.3645
15.2137
15.0407
14.8432
14.6184
14.3634
14.0754
13.7511
13.3877
12.9824
12.5328
12.0372
11.495
10.9068
10.2747
9.60312
15.7822
15.7826
15.7835
15.785
15.787
15.7895
15.7925
15.796
15.8
15.8046
15.8096
15.8151
15.8212
15.8277
15.8348
15.8424
15.8504
15.859
15.8681
15.8777
15.8878
15.8985
15.9095
15.9211
15.9331
15.9456
15.9585
15.9718
15.9855
15.9995
16.0138
16.0284
16.0431
16.058
16.073
16.0879
16.1027
16.1172
16.1314
16.1451
16.1582
16.1704
16.1815
16.1914
16.1996
16.2061
16.2103
16.2119
16.2105
16.2056
16.1967
16.183
16.1639
16.1387
16.1063
16.0659
16.0161
15.9559
15.8836
15.7977
15.6963
15.5774
15.4387
15.2775
15.0911
14.8763
14.6297
14.3477
14.0266
13.6624
13.2515
12.7904
12.2766
11.7083
11.0855
10.41
9.68618
15.7854
15.7858
15.7868
15.7883
15.7904
15.793
15.7962
15.7999
15.8041
15.8089
15.8141
15.82
15.8263
15.8332
15.8407
15.8487
15.8573
15.8664
15.8761
15.8863
15.8971
15.9085
15.9204
15.9329
15.9459
15.9595
15.9736
15.9882
16.0033
16.0188
16.0348
16.0511
16.0679
16.0849
16.1022
16.1196
16.1371
16.1547
16.1721
16.1893
16.2062
16.2225
16.238
16.2527
16.2662
16.2782
16.2885
16.2967
16.3024
16.305
16.3042
16.2992
16.2895
16.2742
16.2525
16.2232
16.1854
16.1377
16.0786
16.0063
15.919
15.8145
15.6901
15.5432
15.3705
15.1685
14.9331
14.66
14.3446
13.982
13.5671
13.0954
12.5626
11.9659
11.3038
10.5776
9.79149
15.7889
15.7893
15.7903
15.7919
15.7941
15.7968
15.8001
15.804
15.8084
15.8134
15.819
15.8251
15.8318
15.8391
15.847
15.8555
15.8645
15.8742
15.8845
15.8955
15.907
15.9192
15.932
15.9455
15.9596
15.9743
15.9897
16.0056
16.0222
16.0394
16.0571
16.0754
16.0943
16.1136
16.1333
16.1535
16.174
16.1947
16.2156
16.2366
16.2575
16.2782
16.2986
16.3184
16.3375
16.3556
16.3725
16.3878
16.4011
16.412
16.42
16.4246
16.4251
16.4208
16.4108
16.3941
16.3696
16.3359
16.2916
16.2349
16.1638
16.076
15.9687
15.8389
15.6831
15.4971
15.2765
15.0159
14.7099
14.352
13.9361
13.4555
12.9043
12.2774
11.5717
10.7871
9.92703
15.7925
15.7929
15.794
15.7957
15.798
15.8008
15.8043
15.8084
15.813
15.8183
15.8241
15.8305
15.8376
15.8453
15.8536
15.8626
15.8722
15.8825
15.8935
15.9051
15.9175
15.9305
15.9443
15.9588
15.974
15.9899
16.0066
16.024
16.0422
16.0611
16.0808
16.1011
16.1222
16.1439
16.1663
16.1893
16.2129
16.237
16.2616
16.2866
16.3119
16.3373
16.3628
16.3882
16.4133
16.4379
16.4618
16.4847
16.5063
16.5261
16.5437
16.5587
16.5703
16.578
16.5808
16.5779
16.5681
16.5501
16.5224
16.4833
16.4307
16.3622
16.2749
16.1655
16.0301
15.8642
15.6626
15.4192
15.1272
14.779
14.3662
13.8802
13.3125
12.6551
11.9023
11.0513
10.1043
15.7963
15.7967
15.7978
15.7996
15.802
15.805
15.8087
15.8129
15.8178
15.8233
15.8294
15.8362
15.8437
15.8518
15.8606
15.87
15.8802
15.8912
15.9028
15.9152
15.9284
15.9423
15.9571
15.9726
15.989
16.0063
16.0244
16.0433
16.0632
16.0839
16.1055
16.128
16.1514
16.1757
16.2009
16.2269
16.2538
16.2815
16.31
16.3392
16.369
16.3994
16.4303
16.4616
16.4931
16.5247
16.5561
16.5871
16.6175
16.6468
16.6748
16.7008
16.7245
16.7452
16.762
16.7741
16.7804
16.7797
16.7706
16.7512
16.7195
16.673
16.6088
16.5234
16.4125
16.2714
16.094
15.8735
15.6017
15.2695
14.8662
14.3805
13.8005
13.1146
12.3126
11.3879
10.3398
15.8002
15.8007
15.8018
15.8037
15.8062
15.8094
15.8132
15.8176
15.8227
15.8285
15.835
15.8421
15.8499
15.8585
15.8678
15.8778
15.8886
15.9001
15.9125
15.9257
15.9397
15.9546
15.9704
15.9871
16.0047
16.0233
16.0428
16.0634
16.0849
16.1076
16.1312
16.156
16.1818
16.2088
16.2369
16.2661
16.2964
16.3278
16.3604
16.394
16.4287
16.4643
16.5009
16.5384
16.5766
16.6154
16.6548
16.6944
16.7341
16.7735
16.8125
16.8505
16.887
16.9216
16.9535
16.9819
17.0058
17.0241
17.0353
17.0378
17.0295
17.008
16.9703
16.9128
16.8311
16.7199
16.5729
16.3821
16.1384
15.8305
15.4455
14.9688
14.3842
13.6747
12.8245
11.8206
10.657
15.8042
15.8047
15.8059
15.8079
15.8105
15.8138
15.8178
15.8225
15.8278
15.8339
15.8407
15.8482
15.8564
15.8654
15.8752
15.8857
15.8971
15.9094
15.9225
15.9365
15.9514
15.9672
15.9841
16.0019
16.0208
16.0408
16.0618
16.084
16.1074
16.132
16.1578
16.1849
16.2133
16.243
16.2741
16.3066
16.3404
16.3758
16.4125
16.4507
16.4904
16.5315
16.5741
16.618
16.6632
16.7097
16.7574
16.806
16.8555
16.9057
16.9562
17.0068
17.057
17.1065
17.1545
17.2003
17.2432
17.282
17.3155
17.342
17.3597
17.3662
17.3585
17.3332
17.2856
17.2104
17.1006
16.9479
16.7415
16.4688
16.114
15.6586
15.0814
14.3587
13.4661
12.3814
11.0901
15.8084
15.8089
15.8102
15.8122
15.8149
15.8184
15.8225
15.8274
15.833
15.8394
15.8465
15.8544
15.863
15.8725
15.8827
15.8939
15.9059
15.9188
15.9327
15.9475
15.9633
15.9802
15.9981
16.0171
16.0373
16.0587
16.0813
16.1052
16.1304
16.157
16.185
16.2145
16.2455
16.2781
16.3122
16.3481
16.3857
16.425
16.4661
16.5091
16.554
16.6007
16.6494
16.7
16.7526
16.807
16.8633
16.9214
16.9812
17.0425
17.1052
17.169
17.2337
17.2988
17.3639
17.4284
17.4916
17.5525
17.61
17.6627
17.7089
17.7463
17.7723
17.7834
17.7752
17.7423
17.6775
17.572
17.4143
17.1899
16.8806
16.4638
15.9122
15.1936
14.2726
13.1148
11.6913
15.8126
15.8131
15.8144
15.8165
15.8194
15.823
15.8274
15.8325
15.8383
15.845
15.8524
15.8606
15.8697
15.8796
15.8904
15.9022
15.9148
15.9284
15.943
15.9587
15.9755
15.9933
16.0124
16.0326
16.0541
16.077
16.1012
16.1268
16.1539
16.1825
16.2128
16.2447
16.2783
16.3138
16.3512
16.3905
16.4318
16.4753
16.5209
16.5687
16.6189
16.6715
16.7265
16.784
16.8441
16.9067
16.972
17.0398
17.1103
17.1832
17.2586
17.3362
17.416
17.4976
17.5807
17.6648
17.7495
17.8339
17.9171
17.998
18.075
18.1463
18.2095
18.2613
18.2978
18.3137
18.3022
18.2541
18.1578
17.9975
17.7528
17.3971
16.8967
16.2096
15.2879
14.0791
12.5284
15.8168
15.8173
15.8187
15.8209
15.8239
15.8277
15.8322
15.8375
15.8437
15.8506
15.8584
15.867
15.8765
15.8869
15.8982
15.9105
15.9238
15.9381
15.9535
15.9701
15.9877
16.0066
16.0268
16.0483
16.0711
16.0954
16.1212
16.1486
16.1776
16.2083
16.2408
16.2752
16.3116
16.35
16.3906
16.4334
16.4786
16.5262
16.5764
16.6293
16.6849
16.7434
16.8049
16.8695
16.9373
17.0083
17.0828
17.1607
17.2421
17.327
17.4154
17.5074
17.6028
17.7016
17.8034
17.9081
18.0153
18.1245
18.2349
18.3457
18.4558
18.5636
18.6671
18.7638
18.85
18.9212
18.9712
18.9913
18.97
18.8915
18.7339
18.4678
18.0532
17.439
16.5626
15.3434
13.688
15.821
15.8216
15.823
15.8253
15.8284
15.8324
15.8371
15.8426
15.849
15.8562
15.8643
15.8733
15.8833
15.8941
15.906
15.9189
15.9328
15.9479
15.964
15.9814
16.0001
16.02
16.0413
16.064
16.0882
16.114
16.1414
16.1705
16.2014
16.2342
16.2691
16.306
16.3451
16.3865
16.4303
16.4767
16.5257
16.5776
16.6324
16.6903
16.7515
16.816
16.8841
16.9558
17.0315
17.1111
17.195
17.2831
17.3757
17.4729
17.5748
17.6815
17.793
17.9094
18.0307
18.1567
18.2873
18.4223
18.5612
18.7034
18.8484
18.9949
19.1416
19.2866
19.4271
19.5595
19.6786
19.7771
19.8447
19.8666
19.8213
19.6783
19.3936
18.9097
18.1451
16.9836
15.2839
15.8252
15.8258
15.8273
15.8297
15.833
15.837
15.8419
15.8477
15.8543
15.8619
15.8703
15.8797
15.89
15.9014
15.9138
15.9272
15.9418
15.9576
15.9745
15.9928
16.0123
16.0333
16.0557
16.0797
16.1052
16.1325
16.1615
16.1924
16.2252
16.2602
16.2973
16.3367
16.3785
16.4229
16.47
16.52
16.573
16.6291
16.6885
16.7515
16.8182
16.8888
16.9636
17.0426
17.1262
17.2145
17.3079
17.4064
17.5104
17.6201
17.7357
17.8574
17.9854
18.1198
18.261
18.4088
18.5635
18.725
18.8933
19.0682
19.2494
19.4364
19.6284
19.8244
20.0228
20.221
20.4157
20.6015
20.7704
20.9102
21.0024
21.0182
20.9159
20.6337
20.0717
19.0811
17.4615
15.8294
15.83
15.8316
15.8341
15.8374
15.8416
15.8467
15.8527
15.8596
15.8674
15.8762
15.886
15.8967
15.9086
15.9215
15.9355
15.9507
15.9672
15.9849
16.004
16.0245
16.0465
16.07
16.0952
16.1221
16.1508
16.1815
16.2141
16.2489
16.2859
16.3253
16.3672
16.4118
16.4592
16.5096
16.5631
16.6199
16.6803
16.7444
16.8125
16.8848
16.9615
17.0428
17.1292
17.2207
17.3178
17.4207
17.5298
17.6453
17.7675
17.8969
18.0338
18.1785
18.3313
18.4925
18.6626
18.8418
19.0304
19.2287
19.4369
19.6552
19.8837
20.1223
20.3711
20.6294
20.8966
21.1711
21.4502
21.7296
22.0014
22.2525
22.4609
22.5937
22.5917
22.3497
21.7001
15.8335
15.8342
15.8358
15.8383
15.8418
15.8462
15.8514
15.8576
15.8648
15.8729
15.882
15.8921
15.9033
15.9156
15.929
15.9437
15.9595
15.9767
15.9952
16.0151
16.0365
16.0595
16.0842
16.1105
16.1388
16.1689
16.2011
16.2355
16.2722
16.3113
16.353
16.3974
16.4446
16.495
16.5486
16.6056
16.6664
16.731
16.7997
16.8729
16.9507
17.0334
17.1214
17.215
17.3145
17.4203
17.5328
17.6523
17.7793
17.9142
18.0575
18.2095
18.3709
18.5421
18.7237
18.9161
19.12
19.3359
19.5644
19.8061
20.0618
20.332
20.6177
20.9196
21.2385
21.5753
21.9309
22.3056
22.6992
23.11
23.5328
23.9573
24.3648
24.713
24.9165
24.8221
15.8375
15.8382
15.8398
15.8425
15.8461
15.8506
15.856
15.8625
15.8699
15.8783
15.8877
15.8982
15.9098
15.9225
15.9364
15.9516
15.9681
15.9859
16.0052
16.0259
16.0483
16.0722
16.098
16.1256
16.1551
16.1867
16.2204
16.2565
16.2951
16.3362
16.3801
16.4269
16.4769
16.5301
16.5869
16.6474
16.712
16.7807
16.8541
16.9322
17.0155
17.1042
17.1988
17.2995
17.4069
17.5214
17.6433
17.7732
17.9117
18.0591
18.2161
18.3833
18.5614
18.7509
18.9527
19.1674
19.3958
19.6388
19.8973
20.1724
20.4651
20.7767
21.1086
21.4627
21.8409
22.2457
22.6801
23.1475
23.6523
24.1988
24.7914
25.434
26.1268
26.8573
27.5864
28.2235
15.8414
15.8421
15.8438
15.8465
15.8502
15.8549
15.8605
15.8671
15.8748
15.8834
15.8932
15.904
15.916
15.9292
15.9436
15.9594
15.9764
15.9949
16.0149
16.0365
16.0597
16.0846
16.1114
16.1401
16.1709
16.2039
16.2392
16.2769
16.3173
16.3604
16.4065
16.4557
16.5082
16.5643
16.6242
16.6882
16.7564
16.8293
16.9071
16.9901
17.0787
17.1733
17.2743
17.3822
17.4973
17.6203
17.7515
17.8917
18.0413
18.2011
18.3717
18.5539
18.7484
18.956
19.1777
19.4143
19.6669
19.9366
20.2246
20.5322
20.861
21.2127
21.5894
21.9934
22.4278
22.8964
23.4038
23.9562
24.5613
25.229
25.9719
26.8066
27.7519
28.8263
30.0449
31.4049
15.8451
15.8458
15.8476
15.8504
15.8542
15.859
15.8648
15.8716
15.8795
15.8884
15.8985
15.9097
15.9221
15.9357
15.9506
15.9668
15.9845
16.0036
16.0243
16.0466
16.0707
16.0966
16.1244
16.1542
16.1862
16.2206
16.2573
16.2967
16.3388
16.3838
16.432
16.4835
16.5386
16.5974
16.6603
16.7276
16.7995
16.8763
16.9584
17.0462
17.14
17.2404
17.3476
17.4624
17.5851
17.7163
17.8566
18.0068
18.1674
18.3393
18.5232
18.72
18.9305
19.1558
19.3969
19.6549
19.931
20.2267
20.5432
20.8823
21.2458
21.6357
22.0545
22.5052
22.9914
23.5175
24.0893
24.7144
25.4026
26.1671
27.025
27.9997
29.1219
30.4281
31.9647
33.7846
15.8487
15.8494
15.8512
15.8541
15.858
15.863
15.8689
15.8759
15.884
15.8932
15.9035
15.9151
15.9278
15.9418
15.9572
15.9739
15.9921
16.0119
16.0332
16.0563
16.0812
16.108
16.1368
16.1677
16.2009
16.2365
16.2747
16.3156
16.3593
16.4062
16.4564
16.5102
16.5676
16.6292
16.695
16.7654
16.8408
16.9214
17.0077
17.1001
17.199
17.3048
17.4181
17.5395
17.6695
17.8087
17.9579
18.1178
18.289
18.4726
18.6693
18.8802
19.1063
19.3487
19.6086
19.8872
20.1861
20.5067
20.8505
21.2196
21.6159
22.0416
22.4996
22.9928
23.5251
24.1012
24.727
25.4101
26.1606
26.9915
27.9204
28.9702
30.1711
31.5596
33.1775
35.0721
15.8521
15.8528
15.8547
15.8576
15.8616
15.8667
15.8728
15.88
15.8883
15.8977
15.9083
15.9202
15.9333
15.9477
15.9634
15.9807
15.9994
16.0197
16.0417
16.0655
16.0912
16.1188
16.1485
16.1805
16.2148
16.2516
16.2911
16.3335
16.3789
16.4275
16.4797
16.5355
16.5953
16.6593
16.7279
16.8014
16.8801
16.9644
17.0547
17.1514
17.2551
17.3662
17.4854
17.6131
17.7501
17.897
18.0546
18.2237
18.4052
18.6
18.809
19.0335
19.2744
19.5332
19.8111
20.1095
20.43
20.7742
21.144
21.5412
21.9681
22.427
22.9206
23.4518
24.0244
24.6425
25.3114
26.0375
26.829
27.6966
28.6534
29.7162
30.9047
32.2398
33.7379
35.402
15.8552
15.856
15.8579
15.8609
15.865
15.8702
15.8764
15.8838
15.8923
15.902
15.9128
15.9249
15.9384
15.9531
15.9693
15.987
16.0062
16.0271
16.0497
16.0742
16.1005
16.129
16.1596
16.1925
16.2279
16.2658
16.3066
16.3504
16.3973
16.4476
16.5015
16.5593
16.6213
16.6878
16.759
16.8353
16.9171
17.0049
17.0989
17.1998
17.3081
17.4242
17.5488
17.6826
17.8262
17.9804
18.146
18.3239
18.515
18.7204
18.9412
19.1785
19.4336
19.7079
20.0028
20.3198
20.6607
21.0272
21.4211
21.8446
22.2998
22.7889
23.3146
23.8794
24.4864
25.139
25.8409
26.5965
27.4108
28.2898
29.2401
30.2683
31.3797
32.5747
33.8397
35.1346
15.8581
15.8589
15.8608
15.8639
15.8681
15.8734
15.8798
15.8873
15.896
15.9059
15.917
15.9294
15.9431
15.9582
15.9748
15.9929
16.0126
16.034
16.0571
16.0822
16.1092
16.1384
16.1698
16.2036
16.24
16.279
16.321
16.366
16.4144
16.4662
16.5219
16.5815
16.6456
16.7142
16.7879
16.8669
16.9516
17.0426
17.1402
17.245
17.3575
17.4783
17.608
17.7475
17.8973
18.0583
18.2314
18.4176
18.6178
18.8332
19.0649
19.3142
19.5826
19.8714
20.1821
20.5166
20.8765
21.2636
21.68
22.1276
22.6086
23.1251
23.6793
24.2734
24.9097
25.5902
26.3169
27.0913
27.9148
28.7877
29.7088
30.6741
31.6744
32.6914
33.6891
34.6008
15.8608
15.8616
15.8636
15.8667
15.871
15.8764
15.8829
15.8905
15.8994
15.9094
15.9208
15.9334
15.9474
15.9628
15.9798
15.9982
16.0184
16.0402
16.0639
16.0895
16.1172
16.1471
16.1792
16.2139
16.2511
16.2912
16.3342
16.3804
16.4301
16.4833
16.5405
16.6019
16.6678
16.7385
16.8144
16.8959
16.9834
17.0773
17.1782
17.2866
17.403
17.5281
17.6626
17.8072
17.9628
18.1301
18.3102
18.504
18.7126
18.9372
19.1791
19.4396
19.7201
20.0223
20.3478
20.6983
21.0756
21.4817
21.9186
22.3881
22.8924
23.4335
24.013
24.6327
25.2938
25.997
26.7423
27.5284
28.3525
29.2094
30.0906
30.9823
31.8631
32.7002
33.443
34.0143
15.8632
15.864
15.866
15.8692
15.8735
15.879
15.8856
15.8934
15.9024
15.9127
15.9242
15.9371
15.9513
15.967
15.9843
16.0031
16.0236
16.0459
16.07
16.0962
16.1244
16.1549
16.1877
16.2231
16.2612
16.3021
16.3461
16.3934
16.4442
16.4988
16.5574
16.6204
16.688
16.7605
16.8385
16.9222
17.0121
17.1088
17.2126
17.3242
17.4442
17.5733
17.7121
17.8615
18.0223
18.1954
18.3817
18.5825
18.7987
19.0317
19.2828
19.5535
19.8452
20.1596
20.4984
20.8634
21.2566
21.6799
22.1352
22.6245
23.1497
23.7125
24.3144
24.9563
25.6386
26.3606
27.1204
27.9139
28.7348
29.5728
30.4128
31.233
32.0028
32.679
33.202
33.4914
15.8653
15.8661
15.8681
15.8714
15.8758
15.8813
15.888
15.896
15.9051
15.9155
15.9272
15.9403
15.9548
15.9707
15.9882
16.0074
16.0282
16.0509
16.0754
16.102
16.1308
16.1618
16.1953
16.2313
16.2701
16.3118
16.3567
16.405
16.4568
16.5126
16.5724
16.6368
16.7059
16.7801
16.8599
16.9456
17.0377
17.1367
17.2432
17.3578
17.481
17.6135
17.7562
17.9098
18.0753
18.2535
18.4455
18.6524
18.8755
19.1161
19.3754
19.6551
19.9568
20.2821
20.6328
21.0108
21.4181
21.8566
22.3283
22.835
23.3787
23.9607
24.5821
25.2433
25.9439
26.6819
27.4537
28.2531
29.0703
29.891
30.695
31.4544
32.1311
32.6748
33.0205
33.0869
15.8671
15.8679
15.87
15.8733
15.8777
15.8833
15.8901
15.8981
15.9074
15.9179
15.9298
15.943
15.9577
15.9739
15.9916
16.011
16.0322
16.0552
16.0801
16.1071
16.1363
16.1678
16.2018
16.2384
16.2778
16.3202
16.3659
16.415
16.4677
16.5245
16.5854
16.6509
16.7214
16.7971
16.8784
16.9659
17.0599
17.161
17.2698
17.3869
17.5129
17.6485
17.7945
17.9519
18.1214
18.304
18.501
18.7134
18.9424
19.1895
19.4561
19.7437
20.054
20.3888
20.7499
21.1392
21.5587
22.0105
22.4964
23.0183
23.578
24.1765
24.8148
25.4928
26.2092
26.9612
27.7437
28.5486
29.3638
30.1718
30.9484
31.6611
32.2665
32.7091
32.9198
32.8162
15.8685
15.8694
15.8715
15.8748
15.8793
15.885
15.8918
15.8999
15.9093
15.9199
15.9319
15.9453
15.9602
15.9765
15.9945
16.0141
16.0355
16.0588
16.084
16.1113
16.1409
16.1728
16.2072
16.2443
16.2842
16.3273
16.3735
16.4233
16.4769
16.5344
16.5963
16.6629
16.7344
16.8113
16.894
16.9829
17.0786
17.1815
17.2922
17.4114
17.5397
17.6779
17.8268
17.9873
18.1602
18.3467
18.5478
18.7647
18.9988
19.2515
19.5241
19.8184
20.1361
20.4789
20.8487
21.2476
21.6775
22.1404
22.6383
23.1731
23.7462
24.3587
25.0113
25.7035
26.4334
27.1976
27.9898
28.8007
29.6163
30.4169
31.1756
31.8563
32.412
32.7833
32.8973
32.6692
15.8697
15.8705
15.8726
15.876
15.8805
15.8863
15.8932
15.9014
15.9108
15.9215
15.9336
15.9471
15.9621
15.9786
15.9967
16.0165
16.0381
16.0616
16.0871
16.1147
16.1445
16.1767
16.2115
16.249
16.2894
16.3329
16.3797
16.43
16.4842
16.5424
16.6051
16.6724
16.7448
16.8227
16.9065
16.9966
17.0936
17.1979
17.3102
17.4311
17.5613
17.7016
17.8528
18.0158
18.1915
18.381
18.5855
18.8062
19.0443
19.3014
19.579
19.8787
20.2023
20.5516
20.9285
21.3351
21.7734
22.2454
22.753
23.2981
23.882
24.506
25.1702
25.874
26.6152
27.3897
28.1907
29.0078
29.8258
30.6237
31.3726
32.0343
32.559
15.8705
15.8714
15.8735
15.8769
15.8814
15.8872
15.8942
15.9024
15.9119
15.9227
15.9348
15.9484
15.9635
15.9801
15.9984
16.0183
16.04
16.0637
16.0893
16.1171
16.1472
16.1797
16.2147
16.2525
16.2932
16.337
16.3842
16.435
16.4896
16.5484
16.6116
16.6795
16.7526
16.8313
16.9158
17.0068
17.1048
17.2102
17.3237
17.4459
17.5775
17.7194
17.8723
18.0372
18.215
18.4069
18.6139
18.8373
19.0786
19.339
19.6203
19.9241
20.2522
20.6064
20.9886
21.4011
21.8456
22.3244
22.8394
23.3922
23.9845
24.617
25.2901
26.0028
26.7527
27.5354
28.3436
29.1664
29.9879
30.7862
31.5312
15.871
15.8718
15.874
15.8774
15.882
15.8877
15.8947
15.903
15.9125
15.9234
15.9356
15.9492
15.9644
15.9811
15.9994
16.0194
16.0412
16.065
16.0908
16.1187
16.1489
16.1815
16.2168
16.2547
16.2957
16.3397
16.3872
16.4382
16.4931
16.5522
16.6158
16.6842
16.7577
16.8368
16.9219
17.0135
17.1121
17.2182
17.3325
17.4556
17.5882
17.7311
17.8852
18.0513
18.2305
18.4239
18.6326
18.8579
19.1012
19.364
19.6477
19.9543
20.2853
20.6427
21.0286
21.4449
21.8937
22.377
22.8968
23.4549
24.0526
24.691
25.37
26.0887
26.8446
27.6329
28.4464
29.2735
30.0982
30.8979
31.6422
15.8711
15.872
15.8741
15.8775
15.8821
15.8879
15.8949
15.9032
15.9127
15.9236
15.9358
15.9495
15.9647
15.9814
15.9998
16.0198
16.0417
16.0655
16.0914
16.1193
16.1496
16.1823
16.2176
16.2557
16.2967
16.3409
16.3885
16.4397
16.4947
16.554
16.6177
16.6863
16.7601
16.8394
16.9248
17.0167
17.1156
17.222
17.3367
17.4602
17.5933
17.7367
17.8913
18.0581
18.238
18.4321
18.6416
18.8679
19.1121
19.376
19.661
19.9688
20.3013
20.6603
21.0479
21.4661
21.9169
22.4025
22.9247
23.4852
24.0856
24.7267
25.4086
26.1301
26.8888
27.6799
28.4958
29.325
30.1512
30.9517
31.6958
15.8709
15.8718
15.8739
15.8773
15.8819
15.8877
15.8947
15.903
15.9125
15.9234
15.9356
15.9493
15.9645
15.9812
15.9995
16.0196
16.0415
16.0653
16.0911
16.1191
16.1493
16.182
16.2173
16.2554
16.2964
16.3406
16.3881
16.4393
16.4944
16.5536
16.6173
16.6859
16.7596
16.839
16.9243
17.0162
17.1151
17.2215
17.3362
17.4596
17.5927
17.7361
17.8907
18.0574
18.2373
18.4314
18.6409
18.8671
19.1113
19.3751
19.6601
19.9678
20.3003
20.6593
21.0468
21.4649
21.9157
22.4011
22.9233
23.4838
24.0841
24.7251
25.4068
26.1283
26.8868
27.6777
28.4934
29.3224
30.1484
30.9487
31.6925
15.8704
15.8712
15.8733
15.8767
15.8813
15.8871
15.8941
15.9023
15.9119
15.9227
15.9349
15.9485
15.9637
15.9803
15.9986
16.0187
16.0405
16.0642
16.09
16.1179
16.1481
16.1807
16.2159
16.2538
16.2947
16.3387
16.3861
16.4372
16.492
16.5511
16.6146
16.6829
16.7564
16.8355
16.9206
17.0121
17.1106
17.2167
17.3309
17.4539
17.5865
17.7293
17.8833
18.0493
18.2285
18.4217
18.6303
18.8556
19.0987
19.3613
19.645
19.9514
20.2822
20.6395
21.0252
21.4413
21.8899
22.373
22.8926
23.4504
24.0479
24.6859
25.3646
26.0829
26.8384
27.6263
28.4391
29.2657
15.8695
15.8703
15.8724
15.8758
15.8804
15.8861
15.8931
15.9013
15.9108
15.9216
15.9337
15.9473
15.9623
15.9789
15.9971
16.0171
16.0388
16.0624
16.088
16.1158
16.1458
16.1782
16.2132
16.2509
16.2916
16.3354
16.3825
16.4332
16.4878
16.5465
16.6096
16.6775
16.7505
16.8291
16.9135
17.0045
17.1023
17.2076
17.321
17.4431
17.5746
17.7164
17.8691
18.0339
18.2115
18.4032
18.6101
18.8333
19.0744
19.3347
19.6157
19.9193
20.2471
20.601
20.983
21.3951
21.8393
22.3178
22.8323
23.3848
23.9766
24.6086
25.2811
25.9932
26.7424
27.5243
28.3316
15.8682
15.8691
15.8712
15.8745
15.8791
15.8848
15.8917
15.8998
15.9093
15.92
15.932
15.9455
15.9605
15.9769
15.995
16.0148
16.0363
16.0598
16.0852
16.1127
16.1425
16.1747
16.2094
16.2468
16.2872
16.3306
16.3773
16.4276
16.4816
16.5398
16.6023
16.6696
16.7419
16.8196
16.9033
16.9933
17.0901
17.1943
17.3064
17.4272
17.5573
17.6974
17.8484
18.0111
18.1867
18.376
18.5802
18.8006
19.0385
19.2953
19.5726
19.872
20.1952
20.5441
20.9207
21.3268
21.7646
22.2361
22.7432
23.2877
23.871
24.4943
25.1577
25.8606
26.6008
27.3742
28.174
15.8667
15.8675
15.8696
15.8729
15.8774
15.8831
15.8899
15.898
15.9073
15.918
15.9299
15.9433
15.9581
15.9744
15.9923
16.0119
16.0332
16.0564
16.0816
16.1088
16.1383
16.1701
16.2045
16.2415
16.2814
16.3243
16.3705
16.4202
16.4736
16.531
16.5928
16.6592
16.7306
16.8074
16.8899
16.9787
17.0741
17.1769
17.2874
17.4064
17.5345
17.6725
17.8211
17.9813
18.154
18.3402
18.541
18.7576
18.9913
19.2436
19.5159
19.8098
20.127
20.4693
20.8386
21.237
21.6663
22.1286
22.6258
23.1598
23.7321
24.3438
24.9954
25.6865
26.4152
27.178
27.9687
15.8648
15.8656
15.8677
15.871
15.8754
15.881
15.8878
15.8958
15.905
15.9155
15.9273
15.9405
15.9552
15.9713
15.989
16.0083
16.0294
16.0523
16.0772
16.1041
16.1332
16.1646
16.1985
16.235
16.2743
16.3166
16.3621
16.4111
16.4637
16.5203
16.5811
16.6465
16.7167
16.7922
16.8734
16.9607
17.0545
17.1554
17.264
17.3808
17.5065
17.6419
17.7876
17.9446
18.1138
18.2961
18.4927
18.7047
18.9333
19.18
19.4461
19.7332
20.0429
20.3772
20.7376
21.1263
21.5451
21.9961
22.4812
23.0023
23.561
24.1585
24.7956
25.4723
26.1873
26.9377
27.7184
15.8626
15.8634
15.8654
15.8687
15.8731
15.8786
15.8853
15.8932
15.9023
15.9126
15.9243
15.9373
15.9517
15.9676
15.9851
16.0041
16.0249
16.0475
16.072
16.0985
16.1271
16.158
16.1914
16.2273
16.266
16.3076
16.3523
16.4004
16.4521
16.5077
16.5674
16.6315
16.7004
16.7744
16.854
16.9395
17.0314
17.1301
17.2364
17.3506
17.4735
17.6057
17.7481
17.9013
18.0664
18.2442
18.4358
18.6422
18.8648
19.1049
19.3637
19.6428
19.9438
20.2684
20.6184
20.9957
21.4022
21.8398
22.3105
22.8163
23.3589
23.9397
24.5597
25.2195
25.9185
26.6548
15.8601
15.8609
15.8629
15.8661
15.8704
15.8759
15.8824
15.8902
15.8992
15.9094
15.9209
15.9337
15.9479
15.9635
15.9806
15.9994
16.0198
16.042
16.0661
16.0921
16.1202
16.1506
16.1833
16.2185
16.2564
16.2972
16.3411
16.3882
16.4388
16.4932
16.5516
16.6143
16.6817
16.754
16.8317
16.9152
17.0048
17.1012
17.2047
17.316
17.4357
17.5643
17.7028
17.8517
18.0121
18.1847
18.3706
18.5708
18.7865
19.0189
19.2694
19.5394
19.8304
20.144
20.482
20.8462
21.2385
21.6607
22.115
22.6032
23.1272
23.6887
24.2891
24.9294
25.61
15.8573
15.8581
15.8601
15.8632
15.8675
15.8728
15.8793
15.8869
15.8957
15.9057
15.917
15.9296
15.9435
15.9589
15.9757
15.9941
16.0141
16.0359
16.0594
16.0849
16.1125
16.1422
16.1742
16.2087
16.2458
16.2857
16.3285
16.3745
16.424
16.477
16.534
16.5951
16.6608
16.7312
16.8068
16.888
16.9752
17.0688
17.1693
17.2773
17.3933
17.518
17.6521
17.7963
17.9513
18.1181
18.2976
18.4908
18.6988
18.9228
19.1639
19.4237
19.7035
20.0048
20.3294
20.679
21.0553
21.4603
21.896
22.3644
22.8674
23.407
23.985
24.6029
25.2622
15.8543
15.855
15.857
15.8601
15.8642
15.8695
15.8758
15.8833
15.8919
15.9017
15.9128
15.9251
15.9387
15.9538
15.9702
15.9882
16.0078
16.0291
16.0521
16.0771
16.104
16.133
16.1643
16.1979
16.2341
16.2729
16.3147
16.3595
16.4076
16.4592
16.5146
16.574
16.6377
16.7061
16.7794
16.8581
16.9425
17.0331
17.1303
17.2347
17.3468
17.4671
17.5964
17.7353
17.8845
18.045
18.2175
18.403
18.6025
18.8172
19.0481
19.2967
19.5642
19.852
20.1618
20.4953
20.854
21.24
21.6552
22.1015
22.581
23.096
23.6486
24.241
24.8753
15.851
15.8517
15.8536
15.8566
15.8607
15.8658
15.872