/*--------------------------------*- C++ -*----------------------------------*\
  =========                 |
  \\      /  F ield         | OpenFOAM: The Open Source CFD Toolbox
   \\    /   O peration     | Website:  https://openfoam.org
    \\  /    A nd           | Version:  13
     \\/     M anipulation  |
\*---------------------------------------------------------------------------*/
FoamFile
{
    format      ascii;
    class       volScalarField;
    location    "600";
    object      k;
}
// * * * * * * * * * * * * * * * * * * * * * * * * * * * * * * * * * * * * * //

dimensions      [0 2 -2 0 0 0 0];

internalField   nonuniform List<scalar> 
171247
(
1.09169
0.0749456
0.606674
0.614174
0.622931
0.633678
0.647595
0.666606
0.691497
0.726734
0.73434
0.773786
0.845833
0.909757
1.06238
1.22296
1.37358
0.530792
0.519512
0.527762
0.537479
0.549221
0.562901
0.578642
0.599252
0.626225
0.659389
0.674162
0.714478
0.76768
0.837218
0.96222
1.12285
1.33037
1.47221
0.445693
0.45106
0.457231
0.464121
0.472755
0.484215
0.499122
0.51781
0.539472
0.559282
0.576417
0.609877
0.648704
0.702655
0.779226
0.877082
0.999147
1.02439
0.410634
0.41385
0.417589
0.422203
0.427894
0.434892
0.443388
0.453461
0.464902
0.476538
0.486279
0.495985
0.508048
0.523611
0.544243
0.571153
0.603935
0.652424
0.698977
0.746101
0.796582
0.85026
0.391982
0.39429
0.396916
0.399924
0.403383
0.407346
0.411855
0.41693
0.422527
0.42826
0.433396
0.438423
0.443835
0.450613
0.459678
0.471018
0.484752
0.500956
0.517634
0.533344
0.548133
0.562312
0.379498
0.380978
0.382534
0.384172
0.385927
0.387839
0.389949
0.392292
0.394902
0.39778
0.400694
0.403504
0.406216
0.408967
0.412024
0.415876
0.420661
0.426221
0.432398
0.438798
0.444925
0.450377
0.455008
0.458924
0.374836
0.375674
0.376447
0.377186
0.37796
0.378835
0.379862
0.381086
0.382525
0.384174
0.385964
0.387791
0.389549
0.3912
0.392854
0.394654
0.396745
0.399053
0.40158
0.404156
0.406639
0.408841
0.410579
0.41186
0.371413
0.371521
0.371538
0.371576
0.371791
0.372296
0.37308
0.37403
0.375148
0.376406
0.377752
0.379125
0.380468
0.381753
0.382977
0.384171
0.385376
0.38661
0.38787
0.38911
0.390277
0.391315
0.392099
0.392587
0.366956
0.366555
0.366215
0.366055
0.366219
0.366794
0.367601
0.368608
0.369768
0.371023
0.372317
0.373604
0.374849
0.376028
0.377133
0.378167
0.37915
0.380102
0.381024
0.381897
0.382693
0.383383
0.383945
0.384324
0.36368
0.362991
0.36245
0.362174
0.362319
0.362855
0.363647
0.364657
0.365822
0.367075
0.368357
0.369626
0.370851
0.372013
0.373099
0.374104
0.375044
0.375938
0.376791
0.377591
0.378315
0.378945
0.37947
0.379882
0.361917
0.361096
0.360472
0.360157
0.360299
0.36078
0.361524
0.362488
0.363608
0.364813
0.366043
0.367253
0.368421
0.369531
0.370571
0.371533
0.37243
0.373282
0.374097
0.374862
0.375557
0.376165
0.376678
0.377092
0.36143
0.360549
0.359889
0.359559
0.359709
0.360163
0.360886
0.361832
0.362935
0.364117
0.365312
0.366475
0.367583
0.368628
0.369599
0.370491
0.37132
0.372108
0.372862
0.373571
0.374214
0.374775
0.375245
0.375622
0.361305
0.360427
0.35977
0.359445
0.359603
0.360059
0.360785
0.361737
0.362847
0.364035
0.365233
0.366389
0.367479
0.368493
0.36942
0.370261
0.371037
0.371774
0.372483
0.37315
0.373755
0.374283
0.374724
0.375075
0.360661
0.360048
0.359746
0.359908
0.360397
0.361154
0.362134
0.363272
0.364491
0.365719
0.366903
0.368011
0.369026
0.369937
0.370751
0.371494
0.372199
0.372877
0.373518
0.374103
0.374613
0.375038
0.375372
0.362295
0.361761
0.361497
0.361661
0.362208
0.363018
0.364054
0.365248
0.366522
0.367804
0.369034
0.370174
0.371201
0.372102
0.372886
0.373585
0.374235
0.374853
0.375432
0.375953
0.376394
0.376738
0.37696
0.365739
0.365397
0.365238
0.365411
0.366
0.366831
0.367873
0.369071
0.370358
0.371658
0.372909
0.374059
0.375077
0.375947
0.376674
0.377293
0.377849
0.37837
0.378851
0.37926
0.379528
0.379631
0.37956
0.370746
0.370752
0.370779
0.370993
0.371515
0.37232
0.373298
0.374447
0.375729
0.37708
0.378418
0.379656
0.380736
0.381591
0.382206
0.382698
0.383167
0.38366
0.384143
0.384547
0.384811
0.384899
0.384799
0.375708
0.376444
0.377218
0.3781
0.379145
0.380401
0.381877
0.383552
0.385347
0.38714
0.388705
0.389953
0.390915
0.391729
0.39256
0.393497
0.394642
0.395823
0.396886
0.397724
0.398285
0.398563
0.382209
0.383852
0.385622
0.387565
0.38972
0.392126
0.394811
0.397706
0.400604
0.403359
0.405808
0.407898
0.40966
0.411523
0.413785
0.416604
0.419947
0.423383
0.426448
0.428957
0.430871
0.432259
0.394841
0.397537
0.400658
0.404278
0.408451
0.413204
0.418521
0.424293
0.429993
0.435046
0.439392
0.443125
0.447075
0.451841
0.457996
0.465917
0.475595
0.485119
0.493636
0.500874
0.50671
0.511794
0.416614
0.420592
0.425524
0.4316
0.439024
0.447914
0.458213
0.469529
0.48092
0.490499
0.498061
0.505797
0.515113
0.528018
0.544486
0.564686
0.596434
0.625507
0.652681
0.679557
0.706614
0.733556
0.457388
0.464336
0.472036
0.480985
0.492508
0.507026
0.524621
0.544417
0.564377
0.580188
0.578634
0.58517
0.601933
0.628207
0.66611
0.716233
0.894969
0.964372
1.04171
1.12662
1.21571
1.3123
0.529707
0.539243
0.550596
0.564114
0.57944
0.598345
0.622539
0.652325
0.654618
0.667378
0.693202
0.734195
0.798099
0.87847
0.982595
1.12544
1.29264
1.51735
1.57305
1.67852
1.82254
1.98856
0.601979
0.60975
0.619265
0.631542
0.648264
0.670895
0.703122
0.70622
0.728099
0.770791
0.834368
0.885229
1.02572
1.18374
1.45643
1.45923
1.16663
0.944627
0.958621
1.14357
1.41402
1.58827
0.612777
0.618245
0.626556
0.637848
0.653343
0.678175
0.722727
0.730554
0.780946
0.88057
0.960192
1.12601
1.12932
0.553041
0.411208
0.709944
0.793891
0.828897
0.902241
1.04219
1.12657
1.21694
0.533856
0.535742
0.538958
0.544457
0.554492
0.575349
0.58724
0.627215
0.713912
0.798965
1.02086
0.938242
0.335036
0.851291
0.960014
0.972962
1.00435
1.02595
1.07199
1.14137
0.470707
0.466017
0.462382
0.459959
0.461286
0.471378
0.494746
0.510665
0.579167
0.693572
0.819262
1.022
1.13247
0.616538
0.658993
0.991386
1.10013
1.03667
1.13481
1.18055
1.25904
1.38405
0.410717
0.405449
0.400983
0.397161
0.394473
0.394788
0.404244
0.425728
0.445954
0.505213
0.573419
0.666304
0.804439
0.895134
1.07749
1.38533
1.6825
1.57902
1.67458
1.813
2.01214
2.30292
0.354404
0.352128
0.354368
0.363034
0.375973
0.389276
0.423935
0.465811
0.512768
0.561572
0.614591
0.68723
0.666265
0.730875
0.81083
0.895618
0.980252
1.06988
0.38472
0.376937
0.371965
0.369764
0.369814
0.372756
0.378713
0.386637
0.395706
0.405429
0.41575
0.434226
0.450986
0.467561
0.483706
0.498691
0.512518
0.835643
0.845188
0.856891
0.872425
0.894196
0.924392
0.966638
0.985162
1.06918
1.20757
1.3552
1.17512
0.66002
0.676955
0.696149
0.718935
0.74448
0.774895
0.81542
0.871705
0.90109
0.986718
1.09102
1.16207
1.156
1.09763
1.09433
1.14446
1.40874
0.483882
0.496207
0.509957
0.525148
0.544757
0.570988
0.605096
0.647252
0.69351
0.724606
0.785744
0.834256
0.866419
0.883966
0.899417
0.917829
0.958725
1.05854
0.420726
0.426244
0.433087
0.441971
0.453531
0.468409
0.487159
0.509824
0.534627
0.555764
0.572879
0.588649
0.604369
0.62046
0.637204
0.654515
0.672393
0.691889
0.718867
0.746005
0.775918
0.808944
0.397372
0.400838
0.404903
0.409786
0.415741
0.422984
0.431696
0.44188
0.453036
0.462611
0.471273
0.479727
0.488455
0.497644
0.507664
0.518784
0.53096
0.543406
0.555539
0.566332
0.576012
0.584862
0.385008
0.387127
0.389356
0.39174
0.394375
0.397363
0.400783
0.404688
0.40908
0.413832
0.418176
0.421744
0.425152
0.42862
0.43232
0.436471
0.441283
0.446935
0.45315
0.45938
0.465086
0.470068
0.474323
0.477901
0.382705
0.383998
0.385152
0.386231
0.387358
0.388636
0.390146
0.391938
0.393991
0.396241
0.398519
0.400467
0.401983
0.403231
0.404427
0.405701
0.407182
0.408995
0.411163
0.413538
0.415877
0.418011
0.419878
0.421464
0.380442
0.380896
0.381189
0.381481
0.382001
0.382732
0.383689
0.384853
0.386179
0.387603
0.389051
0.390427
0.391651
0.392684
0.393405
0.393948
0.394412
0.394908
0.395497
0.396163
0.396857
0.397467
0.397956
0.398315
0.375014
0.374737
0.374539
0.374568
0.375012
0.375754
0.376754
0.377952
0.379274
0.380644
0.381998
0.383287
0.384475
0.385536
0.386421
0.387148
0.387748
0.388273
0.388769
0.38922
0.389582
0.3898
0.389872
0.389803
0.369876
0.369158
0.368631
0.368418
0.368674
0.369295
0.370193
0.371319
0.372595
0.373939
0.375279
0.376568
0.377787
0.378914
0.379923
0.380804
0.381578
0.382279
0.382923
0.383498
0.383982
0.384358
0.38462
0.384725
0.366718
0.365744
0.365002
0.364593
0.364659
0.365102
0.365831
0.366794
0.367918
0.369119
0.370325
0.371488
0.372599
0.373653
0.374622
0.375493
0.376287
0.377036
0.377748
0.378406
0.378981
0.379458
0.379831
0.380097
0.365837
0.364699
0.363802
0.363246
0.363177
0.363506
0.364126
0.364983
0.366003
0.367094
0.368181
0.369211
0.370183
0.371103
0.371951
0.372716
0.373427
0.374112
0.37478
0.375407
0.375965
0.376436
0.376812
0.377093
0.365686
0.36455
0.363654
0.363101
0.363035
0.363362
0.363981
0.364842
0.365868
0.366967
0.368058
0.369084
0.37004
0.370927
0.371729
0.372442
0.373096
0.373733
0.374357
0.374946
0.375471
0.375913
0.376265
0.376526
0.36519
0.364461
0.364068
0.364155
0.364603
0.365337
0.366312
0.367452
0.368669
0.369877
0.371018
0.37207
0.373024
0.37386
0.374579
0.375222
0.375831
0.37642
0.376966
0.377446
0.377842
0.378144
0.378349
0.36829
0.367781
0.367589
0.367871
0.3685
0.369413
0.370561
0.371866
0.373235
0.374583
0.375843
0.376985
0.377993
0.378833
0.379505
0.380043
0.380507
0.380928
0.381301
0.381603
0.38182
0.381891
0.381815
0.373778
0.373589
0.373628
0.374086
0.374839
0.375862
0.3771
0.378474
0.379898
0.38129
0.382583
0.383724
0.384683
0.385396
0.385845
0.38602
0.386055
0.386106
0.386139
0.386123
0.386034
0.385859
0.385598
0.380037
0.380325
0.380605
0.381118
0.381854
0.382842
0.384059
0.385463
0.386983
0.388527
0.389984
0.391244
0.392173
0.392571
0.39265
0.392542
0.39239
0.392296
0.392367
0.392488
0.392615
0.392721
0.39279
0.38419
0.385276
0.386417
0.387727
0.389321
0.391235
0.393454
0.395912
0.398425
0.400669
0.402317
0.403496
0.404371
0.405026
0.405616
0.406308
0.407215
0.408332
0.40955
0.410775
0.411942
0.413032
0.388599
0.391035
0.393768
0.396916
0.400577
0.404814
0.40963
0.414883
0.419812
0.423721
0.42728
0.430562
0.433609
0.436508
0.439444
0.442689
0.446357
0.450141
0.453736
0.456989
0.459895
0.462504
0.401386
0.405731
0.411032
0.417565
0.425558
0.435165
0.446319
0.458414
0.468924
0.477785
0.485895
0.493578
0.5008
0.507659
0.514543
0.521719
0.529162
0.536292
0.542389
0.547404
0.551584
0.555164
0.431831
0.439447
0.449308
0.462016
0.478136
0.498018
0.521425
0.546413
0.567356
0.583012
0.596482
0.608746
0.61995
0.62984
0.638991
0.648102
0.657298
0.668703
0.678555
0.688185
0.698001
0.707763
0.510037
0.525306
0.542021
0.562
0.587909
0.620596
0.659865
0.700255
0.697397
0.703835
0.719388
0.735107
0.746867
0.755066
0.76242
0.771876
0.791487
0.877678
0.925097
0.981409
1.03969
1.09632
0.673006
0.691707
0.713608
0.73883
0.767556
0.805033
0.85662
0.858193
0.886438
0.938391
0.987074
0.991738
0.977149
0.956054
0.947764
0.983932
1.12696
1.35672
1.79336
1.92934
2.03003
2.12341
0.81668
0.827795
0.842316
0.862453
0.89129
0.931435
0.931766
0.984359
1.09204
1.17235
1.27507
1.22218
1.17611
1.17071
1.16219
1.27339
1.50243
1.24033
1.36374
1.42115
1.57751
1.57968
0.905331
0.907724
0.913964
0.926581
0.950187
0.998542
1.00603
1.10212
1.20305
1.31019
1.05545
0.508234
0.65057
0.629753
0.886086
1.17782
1.25147
0.909386
0.911938
0.916602
0.924878
0.940571
0.976659
0.98614
1.09845
1.22542
1.08273
0.712609
0.872539
1.23309
1.4365
1.51544
0.721354
0.725069
0.730331
0.739397
0.756011
0.78412
0.813103
0.906106
1.03222
1.09988
1.00479
0.940458
1.61177
1.78639
2.732
3.02402
3.0295
0.506338
0.507324
0.510923
0.519392
0.534567
0.561904
0.600608
0.646457
0.759117
0.849897
0.974063
0.965978
0.923915
0.875676
0.872436
1.0587
1.38747
2.0286
1.72288
1.96565
2.1844
2.37535
0.43743
0.449271
0.471006
0.499306
0.530277
0.596137
0.64873
0.667599
0.662189
0.643726
0.621135
0.605523
0.609625
0.579744
0.614186
0.649938
0.67605
0.710595
0.449561
0.45219
0.458063
0.465304
0.473521
0.480708
0.48489
0.486069
0.48455
0.480981
0.476658
0.473017
0.47032
0.467722
0.464414
0.461669
0.460176
1.04144
1.03594
1.0357
1.04098
1.05245
1.07212
1.10502
1.1263
1.18515
1.14815
1.06952
0.904676
0.916338
0.932444
0.953328
0.977703
1.00993
1.05273
1.08354
1.16937
1.24015
1.26787
1.20309
1.14951
1.05917
0.986184
0.92571
0.948946
1.17602
0.5987
0.622576
0.647491
0.675193
0.711255
0.757503
0.813571
0.875288
0.921135
1.00916
1.04405
1.03124
1.01066
0.985639
0.953017
0.91517
0.883426
0.878752
0.450587
0.46079
0.472137
0.486958
0.506744
0.533098
0.566365
0.606804
0.652516
0.694309
0.729062
0.751438
0.764512
0.776533
0.780623
0.777689
0.769762
0.760913
0.753414
0.415337
0.420804
0.427144
0.434856
0.444796
0.457742
0.474213
0.494506
0.518169
0.54273
0.565793
0.585814
0.602571
0.617257
0.629006
0.640279
0.646545
0.648648
0.650386
0.651959
0.653319
0.654632
0.656314
0.40346
0.406933
0.410535
0.414553
0.419337
0.425201
0.43236
0.440921
0.450969
0.462069
0.473697
0.484796
0.495289
0.505279
0.514326
0.522144
0.528689
0.534272
0.539522
0.544283
0.548503
0.552251
0.555701
0.559014
0.403777
0.405931
0.407655
0.409255
0.411006
0.413165
0.415992
0.419278
0.423093
0.427434
0.432094
0.436565
0.440905
0.445181
0.449265
0.452875
0.456178
0.459311
0.462553
0.465966
0.469294
0.472405
0.475341
0.478168
0.401847
0.40279
0.403203
0.403519
0.404284
0.405398
0.406878
0.40859
0.410359
0.412257
0.41417
0.416032
0.41763
0.419043
0.420247
0.421131
0.421757
0.422361
0.423193
0.424353
0.42569
0.427105
0.428562
0.430043
0.391831
0.391694
0.391427
0.391402
0.3919
0.39287
0.394197
0.395761
0.397426
0.399109
0.400673
0.402078
0.403307
0.404367
0.405161
0.405561
0.405654
0.40564
0.405707
0.405915
0.406219
0.406523
0.406808
0.40707
0.380331
0.379445
0.378701
0.378267
0.378305
0.378954
0.379994
0.381315
0.382843
0.384451
0.386029
0.387478
0.388793
0.389982
0.390998
0.391802
0.39241
0.392891
0.393356
0.393807
0.394174
0.394412
0.394513
0.394491
0.3731
0.371689
0.370489
0.369586
0.369113
0.369264
0.369922
0.370893
0.372099
0.373406
0.374711
0.375922
0.377064
0.378151
0.379129
0.379968
0.380702
0.381398
0.382077
0.382722
0.383294
0.383765
0.384124
0.384313
0.371986
0.370154
0.368467
0.367047
0.366063
0.365728
0.36607
0.366751
0.367683
0.368722
0.369755
0.370677
0.371528
0.372346
0.373094
0.373746
0.374351
0.37497
0.375612
0.376245
0.376827
0.377325
0.377725
0.378016
0.371747
0.369913
0.368227
0.366807
0.365822
0.365482
0.365812
0.366485
0.367416
0.368463
0.369507
0.37044
0.371287
0.37208
0.372786
0.373386
0.373946
0.374529
0.37514
0.375747
0.376307
0.376787
0.377175
0.377456
0.370826
0.369645
0.368766
0.368322
0.368462
0.369099
0.370059
0.371266
0.372586
0.37391
0.375123
0.376225
0.377203
0.378036
0.378713
0.379297
0.379872
0.380456
0.381028
0.381548
0.381988
0.38233
0.382512
0.378079
0.377379
0.376988
0.377058
0.377722
0.378747
0.380068
0.381616
0.383264
0.384875
0.386338
0.387627
0.388729
0.389622
0.390152
0.390404
0.390607
0.390867
0.391193
0.391498
0.391724
0.391858
0.391906
0.390243
0.390024
0.390033
0.390544
0.391509
0.392841
0.394442
0.396177
0.397973
0.399682
0.401238
0.402602
0.403745
0.404468
0.404693
0.404561
0.404324
0.404194
0.40424
0.404438
0.404744
0.405103
0.4055
0.401833
0.402225
0.402473
0.403191
0.404269
0.405743
0.407527
0.409433
0.41157
0.413822
0.416127
0.418385
0.420318
0.42183
0.422835
0.423396
0.423848
0.424492
0.425474
0.426772
0.428281
0.429923
0.431686
0.406405
0.407981
0.409705
0.411927
0.41488
0.418457
0.42268
0.42765
0.433131
0.438843
0.444528
0.449912
0.45483
0.458948
0.462364
0.465548
0.468829
0.472269
0.475601
0.478834
0.48205
0.485301
0.408866
0.413112
0.418234
0.424574
0.432392
0.441858
0.453012
0.465717
0.479116
0.492261
0.504703
0.516283
0.526675
0.535331
0.542354
0.548086
0.553113
0.557523
0.561553
0.56541
0.569253
0.573138
0.428435
0.437089
0.448195
0.462572
0.480739
0.502917
0.528616
0.555982
0.581489
0.603768
0.622298
0.638123
0.650814
0.662178
0.668529
0.669251
0.669235
0.669216
0.669044
0.669175
0.669868
0.671196
0.484316
0.500525
0.521898
0.549924
0.584751
0.626219
0.672467
0.719434
0.755525
0.776301
0.786958
0.797723
0.800343
0.795127
0.783832
0.770489
0.757702
0.746838
0.737866
0.732141
0.729693
0.730199
0.641466
0.667483
0.695529
0.731069
0.775563
0.828207
0.88523
0.945831
0.943734
0.935313
0.921669
0.90667
0.890412
0.870014
0.844952
0.818893
0.796124
0.78319
0.770526
0.781118
0.798848
0.823838
0.895903
0.911304
0.931816
0.955206
0.985826
1.02734
1.03551
1.08756
1.15312
1.16273
1.11086
1.06218
1.00914
0.948639
0.88873
0.842383
0.831862
0.88063
1.02257
1.1671
1.2276
1.29695
1.00534
1.00599
1.01132
1.02335
1.04489
1.08266
1.10894
1.19877
1.25655
1.24466
1.23733
1.30886
1.27574
1.21173
1.16742
1.12347
1.33149
1.64238
1.77409
1.83063
1.43628
1.35129
1.01399
1.00041
0.993225
0.996151
0.998492
1.0081
1.06553
1.15375
1.09154
0.219352
0.443337
0.853515
1.0771
1.12605
0.814654
0.790724
0.770209
0.752965
0.73835
0.767263
0.840783
0.938955
0.832266
0.294043
0.825393
1.46714
2.04698
0.658125
0.651707
0.649147
0.653279
0.672034
0.70913
0.74084
0.844259
0.939668
0.85508
2.05738
2.42562
3.1831
3.32992
0.495169
0.493366
0.494251
0.499247
0.512599
0.540176
0.559232
0.640162
0.757266
0.84311
0.869547
0.977621
1.01916
1.02225
1.02777
0.998599
0.925401
0.841536
1.00299
0.940394
1.07473
1.21438
0.460827
0.47302
0.492459
0.500834
0.54183
0.590404
0.619779
0.624865
0.615667
0.597194
0.574385
0.556
0.546521
0.544152
0.542601
0.548881
0.556421
0.566806
0.468436
0.471815
0.476654
0.481672
0.486249
0.488869
0.489641
0.488931
0.486801
0.483219
0.479633
0.478195
0.478222
0.477808
0.476152
0.47381
0.471351
0.928199
0.890441
0.854562
0.819608
0.789521
0.765863
0.748224
0.761684
0.847095
0.890625
0.970201
0.964667
0.96015
0.952683
0.943847
0.93689
0.920891
0.904409
0.908015
0.959402
1.0353
1.00518
0.948955
0.927181
0.897819
0.835209
0.770996
0.760243
0.762435
0.78278
0.805983
0.834897
0.870851
0.916416
0.945027
0.966855
0.971867
0.96842
0.941588
0.917269
0.899632
0.879511
0.853258
0.81967
0.782755
0.752773
0.528548
0.541539
0.560589
0.588888
0.627507
0.680781
0.73539
0.790733
0.843432
0.889126
0.912858
0.901338
0.879396
0.862968
0.837514
0.81406
0.790277
0.766968
0.723531
0.466701
0.474408
0.483157
0.495661
0.516158
0.545447
0.582598
0.626216
0.67565
0.725399
0.763733
0.78623
0.797884
0.808249
0.807411
0.79168
0.764542
0.741349
0.726922
0.717327
0.711075
0.7081
0.708291
0.448564
0.453262
0.457831
0.463865
0.472981
0.48634
0.504571
0.526655
0.554361
0.584899
0.613915
0.63979
0.661936
0.681223
0.695053
0.703615
0.703893
0.698792
0.69234
0.687091
0.683725
0.682438
0.683173
0.685728
0.455359
0.458511
0.459876
0.461517
0.464151
0.468645
0.47549
0.484745
0.495927
0.509192
0.523724
0.538402
0.552934
0.567021
0.579771
0.591075
0.598215
0.602463
0.604671
0.606602
0.608289
0.610117
0.612298
0.614926
0.455686
0.456852
0.455831
0.454873
0.455093
0.456489
0.458905
0.462494
0.46708
0.472497
0.478376
0.484455
0.490842
0.497393
0.503836
0.509541
0.513984
0.517497
0.520426
0.522952
0.525281
0.527542
0.529848
0.532278
0.43004
0.430823
0.430747
0.429274
0.428392
0.429002
0.43042
0.433166
0.436073
0.439246
0.442545
0.445714
0.448579
0.451399
0.454243
0.457031
0.459547
0.461592
0.4633
0.464807
0.466235
0.46759
0.468883
0.470146
0.47141
0.39959
0.399141
0.39859
0.397245
0.395942
0.396059
0.397027
0.398992
0.401697
0.404739
0.407863
0.410792
0.413289
0.415561
0.417698
0.419618
0.421196
0.422331
0.42336
0.424396
0.425436
0.4264
0.427264
0.428024
0.428694
0.383319
0.38144
0.379385
0.377123
0.375079
0.373919
0.373511
0.374
0.375513
0.377606
0.379913
0.382179
0.384186
0.386048
0.387867
0.389518
0.390889
0.391967
0.393107
0.394237
0.395301
0.396283
0.397148
0.397879
0.398426
0.387053
0.38395
0.380426
0.377112
0.374728
0.373069
0.372325
0.372662
0.37384
0.375249
0.376613
0.377732
0.3787
0.379674
0.380553
0.381123
0.381563
0.382215
0.382924
0.383636
0.384315
0.384919
0.385417
0.385728
0.386539
0.383429
0.379895
0.376571
0.374196
0.372524
0.371768
0.372098
0.373271
0.374689
0.376078
0.377238
0.378259
0.379238
0.380033
0.380472
0.380816
0.381412
0.38212
0.382834
0.383522
0.384144
0.384671
0.385031
0.380037
0.37796
0.375679
0.373612
0.372452
0.371941
0.372302
0.373675
0.375658
0.37791
0.380191
0.382285
0.384239
0.386058
0.387628
0.388679
0.38953
0.390558
0.391718
0.392847
0.393918
0.394901
0.39578
0.396538
0.395937
0.394627
0.39335
0.393458
0.394321
0.396121
0.398677
0.401604
0.404712
0.407747
0.410474
0.412964
0.415577
0.417511
0.418843
0.41973
0.420639
0.421732
0.422995
0.424238
0.425426
0.426558
0.427649
0.427468
0.426225
0.425498
0.42623
0.42767
0.430389
0.433223
0.436366
0.439797
0.44335
0.446803
0.450253
0.454031
0.457206
0.460021
0.462328
0.464339
0.466281
0.468221
0.470149
0.472073
0.474017
0.476066
0.456753
0.455905
0.454784
0.454682
0.455619
0.457772
0.461172
0.465784
0.471594
0.478335
0.485659
0.493415
0.501165
0.508654
0.515318
0.520707
0.52516
0.529325
0.533142
0.536749
0.540332
0.544049
0.547977
0.459747
0.461114
0.463597
0.467979
0.474873
0.484481
0.496693
0.511512
0.528231
0.545553
0.562672
0.579044
0.593971
0.60535
0.615341
0.62209
0.626589
0.630304
0.633769
0.637459
0.641676
0.646553
0.456945
0.464012
0.474145
0.488608
0.508197
0.532117
0.562136
0.595774
0.628623
0.658209
0.68368
0.705575
0.721193
0.731488
0.733479
0.73028
0.724733
0.720515
0.718582
0.719389
0.722875
0.728007
0.490009
0.504459
0.526485
0.557436
0.596401
0.64173
0.692749
0.743663
0.78354
0.807837
0.820495
0.83173
0.83101
0.809279
0.776886
0.761649
0.74709
0.737737
0.732683
0.732181
0.736262
0.745028
0.578214
0.607546
0.647211
0.70032
0.754182
0.807237
0.85667
0.899136
0.921159
0.909379
0.884938
0.863521
0.834058
0.811956
0.789268
0.766682
0.719082
0.713032
0.710777
0.717087
0.731967
0.755988
0.778246
0.803122
0.833413
0.868174
0.91051
0.936114
0.954158
0.959152
0.964258
0.933929
0.897285
0.871206
0.84579
0.818597
0.790161
0.761484
0.738156
0.71985
0.707504
0.754654
0.831292
0.919543
0.934698
0.929169
0.921544
0.913623
0.908544
0.898984
0.912756
0.935142
0.951359
0.936279
0.923814
0.90528
0.877909
0.845621
0.804045
0.76281
0.745033
0.745779
0.779044
0.851474
1.75744
1.83592
0.87134
0.837717
0.806872
0.781439
0.762316
0.770863
0.804657
0.871961
0.943227
1.07239
1.20082
1.14453
1.13013
0.904298
0.746972
0.736609
0.678426
0.796321
1.33349
2.00186
1.37538
1.23725
0.776967
0.745215
0.717096
0.697699
0.680944
0.694618
0.741245
0.887188
0.561407
0.997694
1.07431
1.24201
0.690673
0.679548
0.671222
0.665701
0.664073
0.673541
0.717236
0.876506
0.276214
0.778523
1.08572
2.14607
0.572281
0.569449
0.569805
0.574611
0.587582
0.59903
0.64234
0.75911
1.34466
2.05852
1.678
1.72597
0.499889
0.498568
0.499835
0.505001
0.518396
0.541903
0.546734
0.611679
0.735658
0.925839
1.09062
1.02283
0.944855
0.917506
0.867078
0.928935
1.06041
0.904055
0.764142
0.776793
0.722911
0.754218
0.489571
0.498453
0.50998
0.517612
0.547925
0.57372
0.578076
0.574614
0.568888
0.563237
0.558118
0.55395
0.550634
0.550257
0.549502
0.530371
0.532322
0.533456
0.479352
0.482105
0.485143
0.487085
0.487552
0.486691
0.485018
0.482529
0.479088
0.474824
0.471482
0.471852
0.474061
0.476389
0.478256
0.478856
0.478587
0.684379
0.646944
0.613741
0.585454
0.561188
0.544347
0.553069
0.600463
0.74473
0.840779
0.784851
0.73044
0.679631
0.634155
0.596049
0.57573
0.591633
0.660234
0.804054
0.839397
0.823461
0.863972
0.949332
1.06063
1.01073
0.944535
1.04802
0.822981
0.815391
0.789433
0.750434
0.708474
0.676476
0.637699
0.619173
0.638459
0.687449
0.731148
0.757662
0.765388
0.781808
0.799388
0.773608
0.748731
0.755423
0.510931
0.543516
0.583466
0.626516
0.663868
0.673064
0.694657
0.70061
0.694328
0.691979
0.711934
0.738376
0.747505
0.748311
0.744148
0.730426
0.714602
0.695038
0.691313
0.789491
0.465919
0.463822
0.468105
0.475015
0.510075
0.537829
0.595308
0.645462
0.683937
0.710095
0.710974
0.722672
0.728901
0.733468
0.742041
0.740655
0.729491
0.710139
0.697898
0.711282
0.722447
0.734326
0.749161
0.49064
0.481927
0.472433
0.467992
0.475801
0.491327
0.511379
0.529602
0.564067
0.59565
0.626391
0.65186
0.672047
0.689388
0.696434
0.698211
0.700268
0.695677
0.667098
0.671033
0.676741
0.684191
0.693639
0.705294
0.529824
0.53072
0.523343
0.514105
0.507721
0.503896
0.504218
0.513659
0.527183
0.54438
0.562962
0.582301
0.600511
0.618251
0.635754
0.64066
0.645273
0.644773
0.630914
0.633414
0.637227
0.642542
0.649378
0.657676
0.623739
0.625427
0.619587
0.610108
0.599809
0.586938
0.573754
0.562553
0.554155
0.550046
0.550911
0.566286
0.57169
0.579495
0.588552
0.593541
0.594731
0.594356
0.595217
0.596592
0.59867
0.601828
0.606137
0.611526
0.578798
0.590766
0.601345
0.604003
0.600488
0.645894
0.637737
0.616192
0.588204
0.571822
0.561622
0.554244
0.571015
0.566879
0.564421
0.563216
0.562207
0.559779
0.557295
0.556948
0.557038
0.55747
0.558464
0.560128
0.562449
0.494206
0.500088
0.506169
0.506752
0.503304
0.54118
0.538125
0.535885
0.53388
0.532873
0.532254
0.530691
0.526288
0.521685
0.518718
0.516164
0.512887
0.50888
0.505466
0.503876
0.50347
0.503165
0.50305
0.503179
0.503554
0.404356
0.404257
0.40485
0.403541
0.400875
0.427653
0.427187
0.428163
0.431151
0.436444
0.442394
0.447117
0.449582
0.449322
0.449831
0.450073
0.448704
0.446335
0.444184
0.443292
0.443492
0.443587
0.443628
0.443645
0.443633
0.43648
0.435819
0.431571
0.424686
0.504911
0.494825
0.486267
0.480348
0.477291
0.476073
0.474608
0.471727
0.466391
0.461999
0.458051
0.452703
0.446761
0.441403
0.437534
0.435071
0.432805
0.430732
0.428832
0.427055
0.479682
0.480913
0.476187
0.467043
0.505709
0.495493
0.486743
0.480626
0.477372
0.476027
0.474524
0.471678
0.466635
0.462562
0.458486
0.45266
0.446329
0.440764
0.436758
0.434198
0.43188
0.42981
0.427969
0.426303
0.406159
0.404705
0.401184
0.396192
0.4234
0.421672
0.422004
0.424214
0.428721
0.434356
0.439246
0.442395
0.44357
0.445454
0.445691
0.443955
0.441447
0.439452
0.438844
0.439477
0.440076
0.440695
0.441357
0.442058
0.435824
0.43584
0.433746
0.526571
0.524061
0.522086
0.520088
0.519021
0.518953
0.518535
0.516531
0.514286
0.503181
0.505672
0.503463
0.500509
0.498323
0.498064
0.499102
0.500219
0.501507
0.503041
0.50485
0.543514
0.544702
0.542091
0.640416
0.63392
0.610821
0.578499
0.557304
0.544426
0.536858
0.57414
0.572375
0.559298
0.563458
0.56426
0.563251
0.562052
0.563015
0.564299
0.56581
0.567871
0.57067
0.574262
0.628595
0.631937
0.628641
0.62359
0.614134
0.602965
0.591305
0.580541
0.572231
0.567003
0.583034
0.590502
0.600133
0.609327
0.614882
0.616537
0.615383
0.6151
0.6155
0.616893
0.619788
0.624317
0.630452
0.576424
0.569483
0.563163
0.555037
0.547511
0.543535
0.543004
0.562057
0.584378
0.607179
0.626685
0.643621
0.658925
0.665501
0.654868
0.641305
0.644901
0.645915
0.648932
0.654273
0.662022
0.672217
0.493233
0.48881
0.488579
0.493754
0.505192
0.544944
0.581065
0.615074
0.647313
0.672642
0.690476
0.704478
0.707753
0.700192
0.693303
0.687648
0.667975
0.671258
0.67751
0.686922
0.699898
0.716899
0.463069
0.488622
0.522802
0.525578
0.551976
0.594984
0.641035
0.684604
0.723918
0.733941
0.73615
0.732313
0.735486
0.735341
0.727987
0.710883
0.696569
0.704774
0.720737
0.740419
0.76615
0.799728
0.587676
0.629803
0.667257
0.666548
0.689388
0.708176
0.719237
0.726173
0.743136
0.761266
0.760821
0.753841
0.739322
0.717807
0.69941
0.680952
0.67369
0.801631
0.820115
0.862711
0.917813
0.990605
0.798857
0.782534
0.749096
0.711803
0.699862
0.683428
0.668811
0.676406
0.705382
0.729925
0.732346
0.721485
0.716437
0.720778
0.699542
0.703178
0.731547
0.765131
0.798549
1.2026
1.31982
1.45694
0.781267
0.733641
0.687979
0.645825
0.60495
0.600014
0.614742
0.656698
0.705831
0.751459
0.782678
0.800962
0.86715
0.949672
0.865392
0.955934
1.07349
1.24215
1.45403
1.81459
1.65427
1.13955
0.673893
0.642212
0.612776
0.585781
0.564844
0.570206
0.607172
0.684614
0.852163
1.04701
1.07944
1.17236
1.26083
1.26327
0.832252
0.363842
0.345101
0.402887
0.813084
1.0864
1.25412
0.991652
0.599691
0.585179
0.572592
0.561808
0.558056
0.568651
0.632325
0.748265
0.254306
0.788007
0.864563
1.16429
0.569374
0.562058
0.558686
0.558912
0.567808
0.580366
0.633615
0.670786
1.53216
1.30006
0.553518
0.55021
0.549504
0.554011
0.568866
0.580417
0.653619
0.909519
1.05083
1.18592
1.21723
0.98303
0.533548
0.533016
0.534595
0.539976
0.55077
0.555482
0.584878
0.655973
0.920027
1.10279
1.14158
0.869364
0.819319
0.787927
0.793497
0.902299
1.09451
1.11024
0.805655
0.757987
0.660158
0.652318
0.528364
0.535439
0.536729
0.555809
0.584011
0.593925
0.590208
0.577217
0.565052
0.554911
0.54782
0.548048
0.550889
0.550177
0.548945
0.534045
0.534335
0.535209
0.502295
0.505411
0.507633
0.508867
0.508929
0.50759
0.504517
0.500423
0.495429
0.490235
0.487063
0.487355
0.489255
0.491321
0.492992
0.493734
0.493932
0.531823
0.519255
0.508144
0.498309
0.491062
0.490064
0.503981
0.584504
0.78177
0.574092
0.545141
0.521894
0.503092
0.488004
0.482006
0.477591
0.511714
0.596504
0.746095
0.875714
1.01497
1.2817
0.527085
0.51324
0.504369
0.879003
1.00108
0.828642
0.755384
0.695848
0.642443
0.594761
0.532993
0.497169
0.479097
0.496471
0.570007
0.630977
0.780378
0.964864
1.40362
1.33922
0.630686
1.34763
1.40691
1.48204
0.613495
0.648965
0.67835
0.668666
0.652663
0.623094
0.585326
0.562775
0.562892
0.561283
0.619144
0.657717
0.709393
0.856738
1.09165
1.07046
0.998279
1.1512
1.29408
1.08765
0.375415
0.409103
0.46131
0.52076
0.572954
0.610627
0.630719
0.632997
0.627469
0.629566
0.643002
0.692742
0.684502
0.694092
0.710321
0.709935
0.744694
0.765567
0.876079
0.832628
0.825816
0.826468
0.837047
0.386085
0.389946
0.393499
0.404985
0.438169
0.488977
0.540586
0.58043
0.599549
0.614248
0.621945
0.626605
0.637444
0.650787
0.653219
0.655658
0.644874
0.658127
0.686829
0.693753
0.700944
0.710157
0.722457
0.524246
0.493517
0.46535
0.442633
0.425811
0.422452
0.437354
0.466733
0.507421
0.541528
0.564108
0.552031
0.560575
0.574433
0.59556
0.605696
0.602656
0.602667
0.60745
0.617839
0.626949
0.635897
0.645582
0.627119
0.596048
0.561441
0.52974
0.511686
0.498698
0.489645
0.48557
0.48544
0.491367
0.501067
0.511395
0.52476
0.539411
0.552385
0.563226
0.570357
0.570461
0.573485
0.566069
0.574264
0.582001
0.589687
0.597663
0.81984
0.815107
0.806575
0.773795
0.735274
0.703816
0.67797