/*--------------------------------*- C++ -*----------------------------------*\
  =========                 |
  \\      /  F ield         | OpenFOAM: The Open Source CFD Toolbox
   \\    /   O peration     | Website:  https://openfoam.org
    \\  /    A nd           | Version:  13
     \\/     M anipulation  |
\*---------------------------------------------------------------------------*/
FoamFile
{
    format      ascii;
    class       volScalarField;
    location    "600";
    object      nut;
}
// * * * * * * * * * * * * * * * * * * * * * * * * * * * * * * * * * * * * * //

dimensions      [0 2 -1 0 0 0 0];

internalField   nonuniform List<scalar> 
171247
(
0.00116902
0.000245984
0.00668054
0.0067015
0.00664392
0.00647994
0.00617664
0.0057307
0.00516536
0.00445825
0.0056484
0.00398597
0.003383
0.00359383
0.00189591
0.00179779
0.000821012
0.00212859
0.00729922
0.00715766
0.00696548
0.00670134
0.00636817
0.00597919
0.00562284
0.00537481
0.00495484
0.00718107
0.00583353
0.00531974
0.00364096
0.00259077
0.00225325
0.00176372
0.00175998
0.00864966
0.0083114
0.00796172
0.00759598
0.0072438
0.00696117
0.00677856
0.0068537
0.00750604
0.00918137
0.00892979
0.00862459
0.006321
0.0047743
0.00402036
0.00371934
0.00334245
0.00379016
0.010129
0.00975253
0.00941548
0.00910328
0.00881942
0.00865785
0.00875346
0.0092817
0.0105102
0.0132194
0.0131123
0.0127145
0.0123303
0.0104982
0.00862672
0.00742712
0.00711207
0.00711847
0.00695822
0.0061915
0.00544244
0.00492102
0.0116243
0.0114444
0.0113173
0.0112132
0.0111986
0.0113948
0.0119198
0.0129278
0.0146107
0.0161051
0.0156802
0.0152627
0.0148602
0.0144644
0.0140386
0.0119594
0.0105334
0.0102602
0.0107776
0.0104579
0.00990246
0.00947969
0.0136857
0.0137166
0.0139239
0.0142391
0.0146038
0.0150502
0.0156429
0.0164031
0.0172877
0.0182013
0.017962
0.0176944
0.0174111
0.0171213
0.0168293
0.0165354
0.015777
0.0141843
0.0135638
0.0135894
0.0141944
0.0142155
0.0138498
0.0135317
0.0161495
0.0167112
0.0175457
0.0183943
0.0189702
0.01924
0.0192818
0.0191819
0.0189332
0.0186404
0.0184919
0.0186521
0.0187588
0.0186142
0.0184605
0.0183008
0.0181377
0.0172746
0.0164415
0.0164298
0.0169057
0.0172287
0.017047
0.0168723
0.0194997
0.0195041
0.0195047
0.0195049
0.0195072
0.0195117
0.0192198
0.0183623
0.0175245
0.0169138
0.0166135
0.0166408
0.0169129
0.0172889
0.0176091
0.017757
0.0176965
0.0174914
0.0173449
0.0174763
0.0179385
0.0186927
0.0187608
0.0186888
0.0193833
0.0193874
0.0193941
0.0194055
0.019423
0.0194239
0.017654
0.0163699
0.0155229
0.015058
0.0148942
0.0149505
0.0151767
0.0155179
0.0159137
0.0162883
0.0165537
0.0166939
0.016816
0.0170718
0.0175419
0.0182172
0.0190624
0.0194402
0.0191677
0.0191677
0.0191736
0.0191858
0.019208
0.0182234
0.0163707
0.0150935
0.0143315
0.0139475
0.0138376
0.0139164
0.0141162
0.0144048
0.0147715
0.0151652
0.0154952
0.0157196
0.0159099
0.0161926
0.016633
0.0172246
0.0179326
0.0187269
0.0189586
0.0189541
0.0189552
0.0189639
0.0189836
0.0173617
0.0155771
0.0143774
0.0136572
0.013313
0.0132418
0.0133469
0.0135447
0.0138023
0.0141334
0.0145048
0.0148242
0.0150445
0.0152311
0.0154965
0.0158966
0.0164216
0.0170359
0.0177112
0.0188128
0.018804
0.0188003
0.0188044
0.0188198
0.0168442
0.0151027
0.0139276
0.0132313
0.0129184
0.0128881
0.0130392
0.013275
0.0135537
0.0138922
0.0142622
0.0145706
0.014775
0.0149466
0.0151958
0.0155731
0.0160665
0.0166408
0.0172657
0.0188134
0.0188043
0.0188004
0.0188044
0.0188196
0.0167788
0.0150378
0.0138591
0.013161
0.0128543
0.0128435
0.0130304
0.0133174
0.013658
0.0140578
0.0144722
0.0147964
0.0149897
0.0151407
0.015371
0.0157337
0.0162155
0.0167805
0.0173992
0.0189513
0.0189524
0.0189611
0.0189809
0.0172018
0.0154087
0.0142055
0.0134901
0.0131766
0.0131759
0.0133989
0.0137589
0.0142092
0.0147387
0.0152604
0.0156412
0.0158397
0.0159652
0.0161696
0.0165206
0.0170084
0.0175953
0.0182525
0.0191601
0.019166
0.0191784
0.019201
0.0180197
0.0161454
0.0148553
0.0140935
0.0137655
0.0137765
0.01405
0.014512
0.0151083
0.0158224
0.0165177
0.0170208
0.0172678
0.0173855
0.0175743
0.017936
0.0184691
0.0191413
0.0195528
0.0193777
0.0193848
0.0193967
0.0194152
0.0192399
0.0174008
0.0160763
0.015236
0.0148243
0.0148154
0.0151273
0.0157208
0.0165337
0.0174956
0.0184011
0.0190322
0.0192985
0.0193554
0.0194822
0.0195086
0.0194952
0.0194785
0.0194582
0.0195028
0.0195044
0.0195059
0.0195098
0.0195167
0.0189869
0.0180826
0.0172475
0.0167177
0.0165554
0.0168614
0.0175842
0.0186475
0.0193225
0.0192628
0.0191982
0.019132
0.0190662
0.0190013
0.0189372
0.0188735
0.0188095
0.018745
0.017629
0.0185027
0.0190887
0.0193332
0.0193081
0.0191933
0.01896
0.0187296
0.0187011
0.0189152
0.0187809
0.0186328
0.0184755
0.0183141
0.0181532
0.0179953
0.0178429
0.0176953
0.0175532
0.0174173
0.0172877
0.0171642
0.0139354
0.0142609
0.0146484
0.0151298
0.015774
0.0166143
0.017609
0.0181975
0.0179444
0.0176659
0.0173749
0.0170825
0.0167934
0.0165133
0.016242
0.0159758
0.015702
0.0154232
0.0151504
0.0148946
0.0146621
0.0144548
0.0113725
0.0112415
0.0111296
0.0111061
0.0112982
0.0118326
0.0128745
0.0146772
0.0159624
0.0155219
0.0151005
0.0147068
0.0143411
0.0139885
0.0136263
0.0132279
0.0126906
0.0121232
0.0116073
0.0111728
0.0108229
0.0105521
0.00946263
0.00912198
0.00881346
0.00855083
0.008404
0.00851311
0.00906181
0.0103472
0.0128728
0.0128043
0.0124168
0.0120726
0.0117279
0.0113354
0.00962926
0.00866274
0.00827089
0.0079943
0.00744714
0.00710337
0.00667681
0.00608648
0.00782228
0.00751687
0.00720636
0.00690939
0.00669377
0.00659782
0.00674895
0.00744396
0.00770428
0.0102943
0.0102763
0.0101567
0.00879104
0.00707104
0.00590322
0.00538584
0.00467175
0.00419055
0.00358267
0.00336346
0.00340628
0.00348254
0.00697477
0.00682075
0.00660475
0.00632215
0.00598976
0.00565773
0.0054144
0.00496015
0.00745875
0.00702193
0.0057383
0.0048078
0.00398774
0.00357227
0.00319426
0.00270416
0.0026746
0.00252118
0.00307305
0.00351681
0.0042017
0.00499537
0.00688637
0.00682229
0.006649
0.00633659
0.00586357
0.00526111
0.00448898
0.0064605
0.00454602
0.00425232
0.00397561
0.00275061
0.00204669
0.00199232
0.00151549
0.00185632
0.00304287
0.0052263
0.00653362
0.00683102
0.00728385
0.00771135
0.00650414
0.00666274
0.00681691
0.00641997
0.00585943
0.00498335
0.00395814
0.00519004
0.0033408
0.00256737
0.00214049
0.0016641
0.000558885
0.000673611
0.0015512
0.00535218
0.00689511
0.00667659
0.0066043
0.00680574
0.00744701
0.00782184
0.00501395
0.00519476
0.00537054
0.00554277
0.00571636
0.00590501
0.00603171
0.00334009
0.00240514
0.00297679
0.00113786
0.000342478
0.000527504
0.00392479
0.00781647
0.00804851
0.00839057
0.00868334
0.00888274
0.00915803
0.00383937
0.00398899
0.00413905
0.00429097
0.00445664
0.00465908
0.00490514
0.0050933
0.00302057
0.00275826
0.00221057
0.00148942
0.000804789
0.000659099
0.00294888
0.00719699
0.00758814
0.00926883
0.00950401
0.0098719
0.0102909
0.0108339
0.00298136
0.00309728
0.00321712
0.00334197
0.00347653
0.00363308
0.0038441
0.00410107
0.0043274
0.00471745
0.00482513
0.0033667
0.00265084
0.00230474
0.00189469
0.00192661
0.00214433
0.00258911
0.00324218
0.0036746
0.00425516
0.00506463
0.00296066
0.00305742
0.00318859
0.00336485
0.00355662
0.00373002
0.00407008
0.00428565
0.00424051
0.00380441
0.00328469
0.00295667
0.00295659
0.00308834
0.00326295
0.00297902
0.00301289
0.0030593
0.00361043
0.00357096
0.00356181
0.00358277
0.00361769
0.00367483
0.00374228
0.0037962
0.00381514
0.00378849
0.00372306
0.00359015
0.00352301
0.00350918
0.00353103
0.00357766
0.00364194
0.00544833
0.00553522
0.00555578
0.0054875
0.0053097
0.00500112
0.00458183
0.00477369
0.00346477
0.00299801
0.0017085
0.000482891
0.00549742
0.00548914
0.00543703
0.00533273
0.00516932
0.00497072
0.00473724
0.00416409
0.00511516
0.00452895
0.00442457
0.00311904
0.00263195
0.00189815
0.00169134
0.0017321
0.0016535
0.00638847
0.00611395
0.00584947
0.00558631
0.00536013
0.00520626
0.00514191
0.00532415
0.00513027
0.0067403
0.00717753
0.00718513
0.00676327
0.0060513
0.00551512
0.00483034
0.00423452
0.004017
0.00852741
0.0080128
0.00754845
0.00712754
0.00676868
0.00656616
0.00658379
0.00692884
0.00798724
0.00899262
0.00892256
0.00877952
0.00865168
0.00851345
0.0083326
0.0079742
0.00748498
0.00732343
0.00681861
0.0065346
0.00639949
0.00636728
0.0106405
0.010206
0.0097944
0.00936517
0.00902069
0.00890346
0.00908544
0.00971051
0.0110508
0.0113074
0.0109659
0.0106829
0.0104527
0.0102576
0.0100813
0.00990653
0.00971952
0.009336
0.00925067
0.00901577
0.00882102
0.00867152
0.0128768
0.0126578
0.0125469
0.0124149
0.0122288
0.0120883
0.0121213
0.0124228
0.0130867
0.0143199
0.014146
0.0137405
0.0133719
0.0130458
0.0127594
0.0125084
0.0122881
0.0120944
0.0119196
0.0117573
0.0116094
0.0114785
0.0113654
0.011271
0.0148805
0.0152265
0.0157194
0.0159577
0.0157973
0.0154574
0.0151464
0.0150112
0.0150943
0.0155036
0.0163197
0.0161722
0.0158915
0.0156191
0.0153618
0.0151236
0.0149073
0.0147147
0.0145461
0.0144001
0.0142747
0.0141673
0.0140746
0.0139942
0.0186348
0.0185425
0.018461
0.0183993
0.0183472
0.0171953
0.0161599
0.015455
0.0150802
0.015006
0.0152476
0.0157461
0.0164502
0.0173615
0.0172493
0.0171033
0.0169627
0.0168316
0.0167123
0.0166058
0.0165118
0.0164285
0.0163539
0.0162865
0.0185432
0.0184995
0.0184722
0.0184574
0.01845
0.0170224
0.0155207
0.0145777
0.0140932
0.0139498
0.0140742
0.014361
0.0147792
0.0153061
0.0160499
0.016735
0.0172949
0.0176012
0.017596
0.0178246
0.0178611
0.0178202
0.017781
0.0177432
0.0180919
0.0180712
0.0180677
0.0180738
0.0180924
0.0167059
0.0151144
0.0140635
0.0134757
0.0132542
0.0133001
0.0135045
0.013769
0.0140989
0.0145603
0.0150965
0.0155435
0.0158068
0.0159986
0.0163022
0.016782
0.0174049
0.0181144
0.0182639
0.0176094
0.0175929
0.0175881
0.0175945
0.0176152
0.0163316
0.014736
0.0136678
0.0130585
0.0128225
0.0128581
0.0130658
0.0132874
0.0135192
0.0138658
0.0142879
0.01462
0.014792
0.014924
0.0151758
0.0155988
0.0161556
0.0167885
0.0174613
0.0171818
0.0171631
0.0171532
0.0171548
0.0171713
0.0159524
0.0143449
0.0132758
0.0126693
0.0124492
0.0125198
0.0127808
0.0130408
0.013272
0.0135876
0.0139665
0.0142285
0.0143419
0.0144305
0.0146436
0.0150216
0.0155262
0.0161029
0.0167189
0.0171853
0.0171657
0.017155
0.0171558
0.0171714
0.0159009
0.0142858
0.0132043
0.0125883
0.0123663
0.0124481
0.0127406
0.0130568
0.0133615
0.0137478
0.0141743
0.0144426
0.0145315
0.0145945
0.014791
0.0151574
0.015652
0.0162197
0.0168273
0.0175935
0.0175884
0.0175945
0.0176151
0.0161873
0.0145858
0.0134987
0.0128798
0.0126573
0.0127488
0.0130722
0.0134726
0.0139196
0.0144728
0.0150395
0.0154022
0.0155123
0.0155617
0.0157496
0.0161256
0.0166419
0.017237
0.0178764
0.0180687
0.0180655
0.0180721
0.0180915
0.0165253
0.0149175
0.0138418
0.0132449
0.0130527
0.0131967
0.0135895
0.014119
0.014711
0.0155261
0.0163741
0.0169705
0.0171992
0.0172696
0.0174573
0.0178448
0.0182753
0.018275
0.018272
0.0184953
0.0184702
0.0184575
0.0184527
0.0168747
0.0153176
0.0143149
0.0137919
0.0136586
0.0138772
0.0143762
0.0151279
0.0160307
0.0172385
0.0181417
0.0180869
0.0180315
0.0179797
0.0179312
0.0178855
0.0178421
0.0178002
0.0177592
0.0185545
0.0184771
0.0184209
0.0183572
0.0170858
0.0159444
0.0151351
0.0146776
0.0145616
0.0148385
0.0155085
0.0165859
0.0174743
0.0173247
0.0171752
0.017031
0.0168966
0.0167752
0.0166688
0.016575
0.0164922
0.0164185
0.0163517
0.0157683
0.0159981
0.0158085
0.0153942
0.0149779
0.0147281
0.0146948
0.0149924
0.0157623
0.0162614
0.0159719
0.0156918
0.0154287
0.0151865
0.0149687
0.014778
0.0146152
0.0144789
0.0143672
0.0142763
0.0142017
0.0141389
0.0125583
0.0123962
0.0121812
0.011999
0.0119705
0.0121904
0.0127433
0.0138149
0.0141384
0.013712
0.013331
0.0130005
0.0127156
0.0124712
0.0122637
0.0120911
0.0119504
0.0118352
0.0117427
0.0116706
0.0116151
0.0115721
0.0101024
0.00965556
0.00919175
0.00881019
0.00864732
0.00876838
0.00929311
0.0104536
0.0111146
0.010774
0.0104997
0.0102828
0.0101051
0.00995512
0.00982366
0.0097054
0.0095906
0.00946225
0.00934284
0.0092458
0.0091726
0.00912053
0.00758939
0.0071379
0.00673772
0.00641193
0.00623065
0.00625995
0.00658904
0.00751269
0.00847742
0.00867868
0.00855294
0.00844591
0.00833934
0.00821896
0.00807537
0.00790171
0.00766927
0.00728382
0.00702295
0.00686729
0.00678629
0.00675705
0.00569404
0.00548646
0.00528683
0.00510628
0.0050075
0.00499891
0.00520356
0.00541794
0.00760156
0.00760918
0.00757474
0.00746727
0.00728537
0.00702628
0.00669341
0.00627401
0.00572691
0.00457671
0.00465306
0.0048193
0.00451508
0.00437404
0.00531162
0.00527924
0.00519524
0.00506979
0.00489536
0.00469988
0.00415015
0.00665522
0.00522226
0.00567961
0.00478574
0.00504166
0.00445619
0.00391295
0.00353951
0.00324344
0.00323942
0.00357303
0.0044073
0.00520679
0.00568467
0.00599598
0.00548739
0.00550053
0.00542976
0.00525438
0.00494728
0.00454311
0.00699559
0.00383269
0.00357609
0.00454837
0.00164422
0.00198313
0.00123455
0.00181314
0.00137686
0.00126353
0.00179165
0.00257607
0.00318241
0.00582944
0.00589221
0.00650311
0.00581248
0.00581635
0.00571515
0.00547866
0.00500929
0.00415519
0.00585476
0.00317656
0.00345146
0.00198741
9.27435e-05
0.00091502
0.00393923
0.00359077
0.00440444
0.00612224
0.00672104
0.00531754
0.00534666
0.00530328
0.00515685
0.00477499
0.00394346
0.00502281
0.00281394
0.00208878
0.00102391
0.00347988
0.00454758
0.00657624
0.00883859
0.00949769
0.00451267
0.0047125
0.00490992
0.0051129
0.00533486
0.00525302
0.00509871
0.00345707
0.00274124
0.00193992
0.000131331
0.00250943
0.00677205
0.00840358
0.00929733
0.00741504
0.00795595
0.00329686
0.00344815
0.00361067
0.00379548
0.00401374
0.00428929
0.0045793
0.00420496
0.00400085
0.00443127
0.00239816
0.00177464
0.00122412
0.00112585
0.00136055
0.00166566
0.00236095
0.00382619
0.00425899
0.00491971
0.00523996
0.00551922
0.00346283
0.00361532
0.0038274
0.00369159
0.0041146
0.00454267
0.00443422
0.00390067
0.00351752
0.00319063
0.00292286
0.0026852
0.00258912
0.00294051
0.0030862
0.00325527
0.00341277
0.00346867
0.00438481
0.00420867
0.00425158
0.00407514
0.00443772
0.00448144
0.00446031
0.00441449
0.00435016
0.00427688
0.00420631
0.00414142
0.00407946
0.00405556
0.00407168
0.00410699
0.00415844
0.00671878
0.00689664
0.00698041
0.0067519
0.00641701
0.00579623
0.00484561
0.00402459
0.00295731
0.00163508
0.000123687
0.00601683
0.00605036
0.00602042
0.00593786
0.00575763
0.00548847
0.0052406
0.00504017
0.00411654
0.00417043
0.00283893
0.0021642
0.00189283
0.00173387
0.00163302
0.00156465
0.00164431
0.00174539
0.00473259
0.00478637
0.00479654
0.00477435
0.00477698
0.00478888
0.00489739
0.00495538
0.00583176
0.00626682
0.00685748
0.00617144
0.00566533
0.00524794
0.00482704
0.00440799
0.00402434
0.00374803
0.00571013
0.00542585
0.00517805
0.0049577
0.00477102
0.00466894
0.00470884
0.00488778
0.00534069
0.00587577
0.00708331
0.00713603
0.00714088
0.00713457
0.00707901
0.00697508
0.00683535
0.00667843
0.00650839
0.00810846
0.00761736
0.00716666
0.00667295
0.00618512
0.00583981
0.00571983
0.0057921
0.00612615
0.00674855
0.00745473
0.0075026
0.00752272
0.00755448
0.00758161
0.00737539
0.00762175
0.00761815
0.00761085
0.0075964
0.00757424
0.00755729
0.00755163
0.0104595
0.0101311
0.00967169
0.00902281
0.00837725
0.00787816
0.00762883
0.00763819
0.00776694
0.0081911
0.00877262
0.00879744
0.00869597
0.00863017
0.00858889
0.00856717
0.00856038
0.00856955
0.00859391
0.00834456
0.00813543
0.00802196
0.00794414
0.00788489
0.0123886
0.0125306
0.0124755
0.011792
0.0109446
0.0102518
0.00980027
0.00994583
0.0102109
0.010502
0.011031
0.0108256
0.0106415
0.010489
0.0103651
0.01027
0.0102005
0.0101568
0.0101369
0.0101386
0.00994791
0.00967653
0.00949821
0.00936141
0.0149505
0.0146283
0.0143951
0.0142544
0.0136471
0.0124768
0.0115996
0.0112962
0.0116183
0.0118384
0.0124055
0.0129736
0.0128069
0.0126544
0.0125172
0.0123961
0.0122935
0.0122125
0.0121552
0.012121
0.0121047
0.0121019
0.012109
0.0121229
0.0154859
0.01531
0.0152039
0.0151197
0.0150426
0.0142595
0.0129122
0.012174
0.0119154
0.011927
0.0123695
0.0129543
0.0135028
0.0140252
0.0142952
0.01422
0.0141506
0.0140926
0.0140491
0.0140196
0.0140013
0.0139908
0.0139861
0.0139855
0.0150225
0.0149623
0.0149422
0.014937
0.0149395
0.0149573
0.0138057
0.0128663
0.012266
0.0121012
0.0122406
0.0126669
0.0130741
0.0134115
0.0139435
0.0146614
0.0151235
0.0151297
0.0151405
0.0151557
0.0151727
0.0151899
0.0152067
0.0152224
0.0142412
0.0142197
0.0142203
0.0142393
0.0142769
0.0143341
0.0136658
0.0125669
0.0119062
0.011714
0.011825
0.0122227
0.0124924
0.0126904
0.0130916
0.0136415
0.0140336
0.0141085
0.0140791
0.0141565
0.0144328
0.0148837
0.0154264
0.0154765
0.0132456
0.0132371
0.0132438
0.0132689
0.0133132
0.0133794
0.0133799
0.0121626
0.0114461
0.0112283
0.0113609
0.0118292
0.0121747
0.0123668
0.0127024
0.013144
0.0133868
0.0133591
0.0132835
0.013349
0.0136075
0.0140347
0.0145582
0.0149664
0.0132465
0.0132363
0.0132413
0.0132648
0.0133074
0.0133718
0.0133354
0.0120973
0.0113597
0.0111209
0.0112402
0.0117131
0.0121118
0.0124034
0.0128216
0.0133085
0.0135296
0.0134551
0.01335
0.0134024
0.0136531
0.0140725
0.0145871
0.0149558
0.0142187
0.0142196
0.0142393
0.0142778
0.0143356
0.0135953
0.0124446
0.0117441
0.0115182
0.0116302
0.0121024
0.0125826
0.0131204
0.0137649
0.0144453
0.0147792
0.0146893
0.0145193
0.014501
0.0147081
0.0151008
0.0154205
0.0154686
0.0149815
0.0149637
0.0149611
0.0149692
0.014992
0.0137029
0.0127153
0.0120625
0.0118537
0.0120532
0.0126036
0.0132688
0.013999
0.0148452
0.0151642
0.015158
0.0151553
0.0151585
0.0151675
0.0151795
0.0151925
0.015205
0.0152163
0.0153621
0.0152585
0.0151762
0.0151003
0.0142847
0.0129029
0.01205
0.0116963
0.0115997
0.0119709
0.0126018
0.0134124
0.0142946
0.0143863
0.0143013
0.0142203
0.0141508
0.0140971
0.0140583
0.0140313
0.0140132
0.014001
0.0139929
0.0146476
0.0144196
0.01429
0.0138231
0.0125944
0.01163
0.0111494
0.0113392
0.0113578
0.0117162
0.0122018
0.012829
0.0127921
0.0126466
0.012514
0.0123989
0.0123051
0.012236
0.0121909
0.0121655
0.0121547
0.0121538
0.0121591
0.0127372
0.0120349
0.0111417
0.0103744
0.00983066
0.00977689
0.00994074
0.00998636
0.010265
0.0106126
0.0107789
0.0106138
0.0104766
0.010366
0.0102834
0.0102288
0.0101996
0.0101941
0.00978923
0.00939443
0.00909938
0.00891054
0.0098137
0.00911594
0.0084266
0.00787496
0.00756019
0.00745415
0.00750601
0.00776897
0.00821822
0.00852924
0.00856492
0.00850549
0.00860585
0.00857856
0.00856758
0.00857406
0.00846749
0.00809251
0.00779062
0.00755015
0.00739342
0.00733517
0.0070626
0.00655374
0.00605926
0.00570058
0.00555668
0.00559222
0.00584469
0.00636492
0.00701746
0.00747818
0.00749783
0.00743558
0.00755801
0.00695237
0.00747883
0.00762015
0.00763925
0.00761742
0.00739371
0.00719606
0.00706234
0.00701158
0.00493298
0.00473925
0.00458514
0.00450719
0.00456056
0.00475002
0.00512016
0.00594011
0.00667205
0.00708798
0.00708921
0.00709064
0.00705037
0.00697134
0.00686918
0.00676573
0.00666502
0.00656101
0.00641765
0.00633505
0.00630093
0.00630208
0.00471383
0.00474387
0.00473317
0.00474757
0.00476796
0.00488054
0.00497351
0.00514355
0.00714713
0.00705253
0.00682781
0.00659888
0.00636861
0.00611262
0.00583919
0.00557117
0.00532107
0.00502439
0.00418158
0.00425416
0.00438257
0.00455701
0.0059809
0.00596636
0.00587431
0.00569941
0.00545894
0.00522418
0.00636498
0.00486334
0.00516281
0.00573815
0.00464575
0.00414574
0.00378397
0.00345363
0.00317921
0.00298377
0.00289073
0.00294461
0.00332712
0.00359179
0.00399704
0.00445364
0.00674233
0.00686177
0.0066715
0.00635546
0.0057683
0.00482598
0.00489626
0.00366655
0.00378529
0.00249194
0.00176356
0.00136786
0.00131741
0.00127844
0.00126799
0.00143377
0.00135426
0.001972
0.0037608
0.00462875
0.00480222
0.00517186
0.00685151
0.00699843
0.00716904
0.00738156
0.0066704
0.00684216
0.00378538
0.00255509
0.00197016
0.000461009
0.00207484
0.00311051
0.00474264
0.00548677
0.00604391
0.00611449
0.00618738
0.00626442
0.00635613
0.00458719
0.00314536
0.00241548
0.000401454
0.00102889
0.00369383
0.0069974
0.00930726
0.00413264
0.00426138
0.00440268
0.00457465
0.00481097
0.0042266
0.00305811
0.00215187
0.00164064
0.00148972
0.00376689
0.00576137
0.00873022
0.0101106
0.00322008
0.00332588
0.00343949
0.00356799
0.00374129
0.00399114
0.00416712
0.00268581
0.0026221
0.00190806
0.000829414
0.00130887
0.00125326
0.00125011
0.0012903
0.00165604
0.00144925
0.00207509
0.00262269
0.00331015
0.00390166
0.004556
0.00406493
0.00416542
0.00387185
0.0043013
0.00347395
0.00394227
0.00404745
0.00384286
0.00363313
0.00343435
0.00327041
0.00319126
0.0031541
0.00315846
0.00379788
0.0038729
0.00397356
0.00410441
0.00565326
0.0054104
0.00498081
0.00529314
0.00555247
0.0054664
0.00539773
0.00533673
0.00528015
0.00523188
0.00521011
0.00522029
0.0052505
0.00528967
0.00533855
0.00540018
0.00547663
0.00607921
0.00610374
0.0061098
0.00609169
0.00606877
0.00604785
0.00596528
0.00295024
0.00207475
0.000288002
0.00605064
0.00622817
0.0064104
0.00658016
0.0067379
0.00688543
0.005334
0.00404202
0.00327408
0.00231036
0.00178656
0.00167627
0.00169303
0.00201933
0.00201403
0.00170784
0.00154825
0.00151264
0.0050181
0.00523722
0.0054867
0.0057791
0.00612011
0.00609544
0.00569207
0.00507927
0.00504457
0.00582725
0.00477395
0.00428316
0.00406168
0.00388901
0.00369986
0.00352111
0.00335846
0.00322215
0.00465112
0.00468182
0.00476554
0.00491645
0.00513811
0.00540206
0.00505268
0.00495339
0.00519135
0.00550612
0.00670755
0.00650802
0.00623792
0.00605154
0.00575945
0.00553289
0.00536112
0.0052419
0.00501616
0.00552495
0.00504713
0.004987
0.00527211
0.00530416
0.00460927
0.00468829
0.00474907
0.00521568
0.00577608
0.00647088
0.00659725
0.00665107
0.00644735
0.00670968
0.00666427
0.00659343
0.00644701
0.00638065
0.00635178
0.00634965
0.00636616
0.00640053
0.00594069
0.00574111
0.00551881
0.00525736
0.00507394
0.00498524
0.00504019
0.00546903
0.00596468
0.0062951
0.00644217
0.00658785
0.00672265
0.00684881
0.00695211
0.00633601
0.00703344
0.00712788
0.00716631
0.00721468
0.00727414
0.00734398
0.00742224
0.00750636
0.0072677
0.00715729
0.00700732
0.00691422
0.00628574
0.00577908
0.00542491
0.00527336
0.00555302
0.00588534
0.00626109
0.00652202
0.00664598
0.00675036
0.00697079
0.00613331
0.00668805
0.00710187
0.00759157
0.00769358
0.00755226
0.00738612
0.00725688
0.00717695
0.00868292
0.00839324
0.00822282
0.00811722
0.0080483
0.00789862
0.00712737
0.00657351
0.00628364
0.00622524
0.00639686
0.00666015
0.00678554
0.00689
0.00699948
0.00720632
0.00755134
0.00781041
0.00787677
0.00778743
0.00766614
0.00756497
0.00748684
0.00743124
0.00999839
0.00971303
0.00948833
0.00935937
0.00925384
0.0091566
0.00910044
0.00862216
0.00803818
0.00764297
0.00752812
0.00770912
0.00810953
0.00819948
0.00819114
0.00826535
0.00852533
0.00884409
0.00890768
0.00883647
0.0086915
0.00861493
0.00858973
0.0085902
0.00860782
0.0100824
0.00995487
0.00986135
0.00981673
0.00979064
0.00975892
0.00975678
0.00978345
0.00940276
0.00877544
0.00859843
0.00884065
0.00936192
0.00951156
0.0095215
0.00971428
0.0101455
0.0103094
0.0103773
0.0103661
0.0101302
0.0101206
0.0102011
0.0103308
0.010479
0.0096533
0.00960791
0.00958142
0.00957987
0.00960274
0.00963997
0.00970096
0.00978626
0.00989221
0.0094219
0.00914392
0.00928123
0.00985131
0.0100511
0.0100464
0.0103227
0.0107412
0.0108423
0.0109492
0.0107888
0.0108168
0.0109227
0.01114
0.0114378
0.0115617
0.00842912
0.00842755
0.008447
0.0084917
0.00855669
0.00864909
0.0087701
0.00891524
0.00884214
0.00850971
0.0086386
0.00925358
0.00966902
0.00972238
0.00997773
0.01012
0.0102619
0.0104103
0.0103719
0.0104109
0.0105475
0.0107966
0.0111142
0.0112409
0.00841176
0.00840878
0.00842687
0.00847019
0.00853406
0.00862533
0.00874542
0.0088901
0.00877625
0.00840902
0.00849964
0.00905913
0.00948437
0.00968578
0.00995724
0.0100983
0.0102393
0.0103875
0.0103978
0.0104242
0.0105494
0.0107833
0.0110939
0.0112214
0.00959326
0.00957007
0.00957154
0.00959773
0.00963965
0.00970599
0.00979565
0.00990672
0.00940044
0.00901572
0.00904383
0.00950253
0.00981882
0.0101411
0.0106668
0.0107567
0.0108468
0.0109452
0.0109953
0.0109309
0.0109792
0.0111392
0.0113796
0.0115324
0.00991893
0.00987891
0.00985764
0.00983767
0.00984354
0.00987606
0.00957107
0.00886229
0.00855446
0.00865427
0.0090867
0.00942425
0.00921714
0.0100968
0.0102975
0.0103382
0.0103899
0.0104523
0.0102781
0.010142
0.010142
0.0102
0.0102838
0.00962102
0.00948444
0.00936907
0.00925762
0.00919045
0.00887788
0.00826507
0.00777634
0.00750255
0.00748858
0.00778082
0.00796425
0.0078984
0.00839549
0.0088199
0.00921544
0.00922234
0.00893755
0.00869104
0.00854657
0.00846415
0.00843324
0.0083823
0.00836822
0.00819885
0.00810033
0.0080407
0.00800876
0.00740186
0.0067593
0.0063532
0.00614511
0.00614557
0.00631371
0.00648214
0.00677903
0.00706507
0.00731858
0.00763572
0.00791466
0.00779831
0.00762628
0.00748889
0.00736096
0.00725096
0.00718554
0.00714935
0.00706403
0.0065966
0.0060208
0.00558135
0.00535775
0.00542922
0.00566345
0.0059328
0.00612425
0.00634727
0.00660405
0.00685169
0.00684281
0.00635149
0.00677619
0.00762734
0.00754776
0.00737623
0.00720724
0.00706815
0.00696538
0.00563129
0.00528713
0.00508303
0.00495744
0.00498464
0.0053478
0.00579255
0.00623104
0.00655163
0.00670271
0.00683754
0.00695721
0.00704847
0.00618376
0.00673486
0.0071867
0.00721804
0.00726282
0.00732319
0.00739895
0.00748308
0.00730948
0.00494076
0.00535563
0.00525677
0.00457093
0.00464442
0.00469577
0.00513552
0.00567156
0.00653772
0.00665779
0.00669819
0.00627392
0.00655883
0.0067301
0.00675349
0.00639057
0.00632142
0.00629652
0.00630716
0.00634339
0.00640323
0.00648421
0.00481765
0.0049738
0.00520003
0.00540768
0.00501538
0.00492343
0.00511787
0.00544303
0.00669683
0.00647239
0.00616876
0.0061719
0.00611868
0.0060312
0.00593026
0.00584837
0.00486198
0.00487549
0.00490868
0.00494081
0.00503171
0.00517446
0.00517182
0.00543369
0.00573781
0.00608101
0.00606959
0.00567747
0.00501413
0.00688985
0.00618416
0.00591061
0.00534232
0.00498972
0.00472064
0.00448793
0.0043012
0.00416499
0.00407464
0.00401872
0.00396089
0.00357355
0.00393732
0.00436575
0.00609399
0.00627539
0.0064485
0.00661631
0.00678123
0.0051136
0.00479645
0.00384021
0.00470636
0.00342989
0.00311496
0.00301573
0.00289611
0.00274329
0.00263439
0.00254343
0.0024819
0.0024935
0.0025997
0.00286428
0.00501691
0.00579266
0.00606285
0.00608968
0.0061028
0.00611281
0.00612253
0.00623985
0.00316438
0.00248475
0.00168984
0.00159022
0.00126052
0.00114273
0.00170384
0.00136516
0.000742749
0.0007624
0.00053939
0.00073931
0.00222241
0.00466227
0.00495696
0.00486244
0.00542502
0.00539168
0.00537023
0.00538489
0.00540422
0.00512841
0.0028625
0.00136926
0.00122814
0.0036207
0.00429175
0.00541769
0.00451231
0.00461654
0.00472979
0.00485102
0.00497428
0.00427813
0.00266621
0.00128445
0.000644484
0.00315731
0.00502301
0.00733824
0.00378763
0.0039252
0.00407226
0.00423571
0.0044311
0.00409325
0.00229109
0.00153756
0.00171014
0.0038641
0.00454115
0.00542468
0.0037648
0.00388837
0.00401648
0.00415364
0.00431768
0.00351051
0.00443551
0.0020166
0.00131253
0.00165845
0.00129012
0.00169497
0.00178949
0.00183695
0.00126467
0.00125235
0.00154076
0.00147436
0.0024322
0.00279283
0.00366435
0.00402127
0.00534738
0.00510884
0.00394471
0.00432732
0.00350333
0.00406686
0.00443497
0.00438681
0.00434631
0.00431538
0.00423427
0.0042075
0.00389824
0.00323893
0.00367447
0.00508101
0.00529455
0.00541851
0.00727872
0.00725196
0.00703731
0.00733108
0.00718327
0.00708389
0.00699831
0.00692294
0.00686153
0.00681592
0.00680343
0.00684544
0.005819
0.00578182
0.00635672
0.00681237
0.00716594
0.0044493
0.00442247
0.00440951
0.00441631
0.00443842
0.00448992
0.0041638
0.00235026
0.00104198
0.00541039
0.0052979
0.00517496
0.00505462
0.00494799
0.00486563
0.00483619
0.00332982
0.00254033
0.00149811
0.00145615
0.00146154
0.00178008
0.00202791
0.00202296
0.00167554
0.00080374
0.000768903
0.0050547
0.00523678
0.00532912
0.00534178
0.0053105
0.00525146
0.00518209
0.00438727
0.00398794
0.00374331
0.00317584
0.00285964
0.00269512
0.00260893
0.00257209
0.00255324
0.00250107
0.00253902
0.00331719
0.00359274
0.00391834
0.00427394
0.00461985
0.00480293
0.00471747
0.00422626
0.0039295
0.00361414
0.00394142
0.00477096
0.00436441
0.0040289
0.00373786
0.00350945
0.00341915
0.00336278
0.00344416
0.00359578
0.00331731
0.00335567
0.0034613
0.00358618
0.00384962
0.00405169
0.00414741
0.0039904
0.00416612
0.00430326
0.00535667
0.00537586
0.00523689
0.00520529
0.00508482
0.0049326
0.00478099
0.00469784
0.00471675
0.00445529
0.00456853
0.0047069
0.00486953
0.00397627
0.00392797
0.00386439
0.0038328
0.00387895
0.00397847
0.00412656
0.00425636
0.00452902
0.00480064
0.00507094
0.00527978
0.00541264
0.00552039
0.00555213
0.00560496
0.00567075
0.00571413
0.00540819
0.00542367
0.00547672
0.00555937
0.00566605
0.00579317
0.00400515
0.00421408
0.00419321
0.00417264
0.00420079
0.00425835
0.0043524
0.0043487
0.00444434
0.00466333
0.00488035
0.00509937
0.00530189
0.00549078
0.00566154
0.00574683
0.00590179
0.00604522
0.00596329
0.00604123
0.00612985
0.00622994
0.00634117
0.00646262
0.00419358
0.00439083
0.00479965
0.00481216
0.00455198
0.00444812
0.00440827
0.00431903
0.00419645
0.00444913
0.00487229
0.00517551
0.00527603
0.00541671
0.00577106
0.00545507
0.00582204
0.0061498
0.00627493
0.0064018
0.00653089
0.00666341
0.00679973
0.00693962
0.00538259
0.0051589
0.00531648
0.00549186
0.00550727
0.00506902
0.00517128
0.00527818
0.00550499
0.00572799
0.00543418
0.00548692
0.00563349
0.00582092
0.00578844
0.00591603
0.00625964
0.00637833
0.00649544
0.00663154
0.00677243
0.00691474
0.00705815
0.00720275
0.00734827
0.00556092
0.00554652
0.00554133
0.00554981
0.00558869
0.00506807
0.00517699
0.00530907
0.00545955
0.00562282
0.00571401
0.00593717
0.00605849
0.00617545
0.00630374
0.00643197
0.00655226
0.00666952
0.00679546
0.00694089
0.0070951
0.00724902
0.00740128
0.00755144
0.00769939
0.00596522
0.0059444
0.00592099
0.00591767
0.00594863
0.00520957
0.00528443
0.00539196
0.00553225
0.00570018
0.00570618
0.00539947
0.0061339
0.00630104
0.00644965
0.00659941
0.00673698
0.00687105
0.00701386
0.00717354
0.00734121
0.00750623
0.00766725
0.00782391
0.00797597
0.00557636
0.00560379
0.00563946
0.00569786
0.00528603
0.00535387
0.00545064
0.00557934
0.00573509
0.00570726
0.00514981
0.00576481
0.00628863
0.00642595