/*--------------------------------*- C++ -*----------------------------------*\
  =========                 |
  \\      /  F ield         | OpenFOAM: The Open Source CFD Toolbox
   \\    /   O peration     | Website:  https://openfoam.org
    \\  /    A nd           | Version:  13
     \\/     M anipulation  |
\*---------------------------------------------------------------------------*/
FoamFile
{
    format      ascii;
    class       volScalarField;
    location    "600";
    object      omega;
}
// * * * * * * * * * * * * * * * * * * * * * * * * * * * * * * * * * * * * * //

dimensions      [0 0 -1 0 0 0 0];

internalField   nonuniform List<scalar> 
171247
(
830.581
304.677
77.3991
77.573
78.035
78.9161
80.4305
82.9439
86.4604
92.1932
93.5744
102.297
121.814
145.304
328.107
680.256
1046.96
236.928
48.5475
49.947
51.5854
53.5654
55.8374
58.3993
61.9455
66.7881
72.8993
75.9104
84.3663
97.38
123.733
214.303
378.015
542.306
548.497
30.4867
31.4874
32.6301
33.8893
35.4845
37.6277
40.4086
43.8588
47.8314
51.4681
54.6435
61.0486
69.002
83.8996
116.255
171.245
239.413
236.536
23.801
24.2411
24.7837
25.5018
26.4388
27.6414
29.145
30.9582
33.0374
35.1939
37.0857
39.0093
41.2033
44.092
48.4909
55.4755
65.6935
84.1841
100.453
114.707
127.499
138.979
21.2439
21.4831
21.7767
22.1382
22.5854
23.137
23.8108
24.619
25.5597
26.5916
27.6397
28.7252
29.8674
31.1532
32.7439
34.8575
37.726
41.8092
46.404
50.9992
55.3532
59.3175
19.8919
19.9979
20.119
20.257
20.4172
20.6075
20.8371
21.116
21.4537
21.8544
22.3079
22.804
23.3309
23.8865
24.4825
25.1507
25.9232
26.8369
27.9316
29.1601
30.4343
31.6821
32.853
33.9147
19.3628
19.408
19.4533
19.5003
19.5536
19.6186
19.7005
19.8071
19.9433
20.1113
20.3088
20.5293
20.7662
21.0162
21.2808
21.5648
21.8741
22.2101
22.5763
22.9615
23.3514
23.7302
24.0852
24.4104
19.0472
19.0484
19.0487
19.0504
19.0592
19.0807
19.1166
19.1664
19.2317
19.3122
19.4055
19.5082
19.6174
19.7311
19.8486
19.9707
20.0989
20.2331
20.3723
20.5128
20.6502
20.7806
20.8999
21.0065
18.9316
18.9068
18.8828
18.8635
18.8549
18.8598
18.8788
18.9116
18.9562
19.0095
19.068
19.1289
19.19
19.2499
19.3082
19.3653
19.4222
19.4798
19.5376
19.5941
19.647
19.6946
19.7357
19.7696
18.9737
18.9376
18.9036
18.8772
18.8629
18.8629
18.8782
18.9079
18.9486
18.9959
19.0459
19.0956
19.143
19.187
19.2268
19.2625
19.2952
19.3262
19.3559
19.3833
19.4069
19.4258
19.4392
19.4471
19.0899
19.0511
19.017
18.9917
18.9795
18.9823
19.0011
19.0347
19.0795
19.1304
19.1827
19.2334
19.2808
19.3239
19.3619
19.3946
19.4231
19.449
19.4727
19.4934
19.5099
19.5212
19.5269
19.527
19.2119
19.1741
19.1427
19.121
19.1133
19.1214
19.1465
19.1873
19.2399
19.2984
19.3575
19.4136
19.465
19.5113
19.5517
19.586
19.6156
19.6421
19.6661
19.6867
19.7026
19.7129
19.7172
19.7155
19.2047
19.1672
19.1363
19.115
19.1079
19.1167
19.1427
19.1848
19.2387
19.2987
19.3588
19.4151
19.4657
19.51
19.5474
19.5783
19.6044
19.6275
19.6484
19.6662
19.6797
19.6877
19.69
19.6864
19.0309
18.9975
18.9728
18.9616
18.9655
18.986
19.0219
19.0692
19.1223
19.1757
19.2251
19.2684
19.3047
19.3336
19.356
19.374
19.39
19.4046
19.4173
19.4267
19.4319
19.4322
19.4276
18.9088
18.8751
18.8491
18.8355
18.8365
18.8534
18.8854
18.9288
18.9782
19.0283
19.0749
19.1157
19.1495
19.1759
19.1964
19.2131
19.2284
19.2431
19.2568
19.2683
19.2763
19.28
19.2791
18.8742
18.8496
18.8298
18.8208
18.8257
18.8454
18.8795
18.9257
18.98
19.0375
19.0941
19.1468
19.1942
19.236
19.2734
19.308
19.3419
19.376
19.4095
19.4406
19.4677
19.4897
19.5064
19.0099
19.0086
19.0086
19.0157
19.0358
19.0708
19.1199
19.1848
19.2641
19.3551
19.453
19.5532
19.6525
19.7486
19.8416
19.934
20.0276
20.1225
20.2166
20.3064
20.389
20.463
20.5281
19.398
19.4424
19.4932
19.556
19.6366
19.7434
19.8805
20.0495
20.2475
20.4671
20.6968
20.9284
21.1586
21.3894
21.6248
21.8667
22.1175
22.3688
22.6105
22.835
23.0386
23.2206
20.0816
20.2177
20.3771
20.5683
20.8014
21.0879
21.4379
21.855
22.3248
22.8326
23.3561
23.8782
24.3941
24.9207
25.4761
26.0772
26.7449
27.4511
28.1477
28.7995
29.3867
29.9042
21.5186
21.8206
22.1974
22.6694
23.2577
23.9807
24.8485
25.8513
26.9379
28.028
29.0978
30.1306
31.1744
32.3009
33.6111
35.2222
37.4763
40.0158
42.5281
44.8298
46.8181
48.5016
24.5948
25.1814
25.968
26.999
28.3199
29.9543
31.8847
34.032
36.2273
38.3073
40.1118
41.8963
43.9221
46.5815
50.3817
55.8404
67.5025
78.2441
87.6419
95.6668
102.405
108.13
32.9055
34.2672
35.7577
37.4789
39.7124
42.5035
45.8274
49.5124
53.1474
56.3599
56.3078
57.6144
60.9512
67.6131
80.0352
100.226
185.843
206.842
225.036
241.254
254.961
267.478
50.9558
52.6302
54.6107
56.947
59.5233
62.7704
67.0831
72.5594
72.7354
74.7826
80.2237
91.2131
119.023
171.149
249.177
336.157
396.4
419.037
396.156
381.306
367.879
350.914
74.5102
74.967
75.783
77.1406
79.3591
82.6385
87.9477
88.0893
91.6824
101.45
124.759
147.009
277.21
484.146
717.303
544.563
206.507
143.886
146.721
167.408
194.131
205.965
94.2134
92.7914
91.912
91.7479
92.5794
95.4171
102.484
103.264
113.519
145.995
201.137
564.324
645.979
483.76
265.089
132.646
115.138
124.15
136.614
153.134
151.278
155.582
106.474
103.131
100.355
98.2284
97.0009
97.4342
97.3586
101.786
122.804
150.651
385.436
844.474
635.134
216.901
121.468
120.887
119.7
118.152
120.682
124.631
122.6
116.826
111.712
107.192
103.505
101.174
100.863
100.262
108.499
135.642
190.181
384.446
719.92
576.634
223.472
137.75
117.854
111.845
119.403
119.587
122.344
127.751
137.762
130.905
124.64
118.84
113.467
108.665
105.16
103.809
103.054
107.095
118.84
161.263
250.859
388.388
513.907
567.39
521.344
441.814
417.653
401.78
391.661
383.142
119.704
115.172
111.136
107.89
105.711
104.363
104.159
108.691
120.921
147.611
187.108
232.434
225.349
236.656
246.141
255.478
263.452
271.492
106.558
105.556
104.431
103.206
102.224
101.435
101.199
101.848
103.72
107.016
111.669
120.949
128.012
133.239
136.987
139.39
140.727
131.514
129.802
128.705
128.42
129.27
131.562
136.082
138.409
154.519
195.977
476.153
744.883
92.4738
94.3539
96.5555
99.2756
102.304
105.98
111.19
119.291
123.523
138.789
169.053
245.301
439.218
578.265
647.016
635.362
652.449
51.4973
54.6006
57.822
61.1076
64.9613
69.6597
75.2782
81.776
88.6932
93.2605
102.994
112.988
126.574
141.842
161.927
190.014
226.407
263.515
31.6658
33.3385
35.32
37.7595
40.739
44.2958
48.3979
52.8999
57.4389
61.1071
64.2056
67.048
69.8557
72.88
76.4711
81.0233
86.8787
94.4761
105.427
114.162
121.247
127.047
25.004
25.937
27.0285
28.3221
29.8724
31.7135
33.8445
36.2074
38.6571
40.9122
42.976
44.9062
46.7302
48.5145
50.3572
52.3678
54.6282
57.1904
60.0539
62.8157
65.3
67.4464
21.8211
22.278
22.7735
23.3085
23.9015
24.578
25.3625
26.2708
27.2992
28.4142
29.5614
30.6934
31.7944
32.8549
33.8823
34.8941
35.9113
36.954
38.0171
39.0718
40.0611
40.952
41.7338
42.4008
21.0205
21.2886
21.5388
21.7664
21.9839
22.2118
22.4795
22.8176
23.228
23.7036
24.2252
24.7627
25.2955
25.8166
26.3267
26.8257
27.3143
27.795
28.2661
28.7177
29.1338
29.5054
29.8322
30.1169
20.4156
20.5418
20.6483
20.7334
20.8207
20.9265
21.0555
21.2115
21.3963
21.6069
21.8386
22.0826
22.3291
22.5724
22.807
23.0335
23.2517
23.4623
23.665
23.8569
24.0347
24.1938
24.334
24.4568
20.2238
20.2566
20.2758
20.2937
20.3258
20.3731
20.4378
20.5196
20.6155
20.7217
20.8345
20.9506
21.0668
21.1805
21.288
21.389
21.4839
21.5736
21.6597
21.7397
21.8118
21.874
21.9263
21.9692
20.4443
20.428
20.4027
20.3841
20.3773
20.3856
20.4092
20.4474
20.4969
20.5531
20.6118
20.6703
20.7271
20.7806
20.8292
20.8723
20.911
20.9464
20.9791
21.008
21.0316
21.0491
21.0601
21.0647
20.8251
20.7893
20.7529
20.722
20.7014
20.6948
20.7028
20.7239
20.755
20.7913
20.8283
20.863
20.8948
20.9233
20.9468
20.9646
20.9784
20.9898
20.9993
21.0058
21.0079
21.0047
20.9962
20.9824
21.2921
21.249
21.209
21.1745
21.1502
21.1407
21.1472
21.1667
21.1958
21.2293
21.2618
21.2901
21.3139
21.3334
21.3474
21.3552
21.3587
21.3598
21.359
21.3551
21.3465
21.3324
21.3127
21.2877
21.279
21.2371
21.1982
21.1649
21.1418
21.1336
21.1417
21.1631
21.1945
21.2301
21.2644
21.2935
21.3169
21.3345
21.3454
21.3496
21.3493
21.347
21.3432
21.3365
21.3254
21.309
21.2873
21.2603
20.757
20.7217
20.6921
20.6729
20.6678
20.6776
20.7011
20.735
20.7738
20.812
20.8456
20.8735
20.8952
20.9099
20.9181
20.9222
20.9247
20.9263
20.9258
20.9218
20.9135
20.9009
20.8835
20.3828
20.3582
20.3401
20.334
20.3429
20.3673
20.407
20.4583
20.5157
20.5738
20.6286
20.6783
20.7224
20.759
20.7881
20.8118
20.8328
20.8524
20.8697
20.8834
20.8927
20.8969
20.8962
20.2093
20.2266
20.2426
20.2727
20.3179
20.381
20.4616
20.5567
20.6616
20.7712
20.8814
20.9888
21.0915
21.1849
21.2684
21.3425
21.41
21.4746
21.5345
21.5886
21.6361
21.6772
21.7126
20.4822
20.5836
20.6616
20.7418
20.8401
20.9621
21.1121
21.2921
21.4989
21.7267
21.9665
22.2086
22.4428
22.6596
22.8614
23.0487
23.2229
23.3855
23.5391
23.6796
23.8061
23.9194
24.0214
21.3695
21.5876
21.7957
22.0149
22.2847
22.6272
23.047
23.5376
24.0784
24.6393
25.189
25.7137
26.209
26.6701
27.0976
27.4941
27.8625
28.202
28.506
28.7731
29.0064
29.2125
22.6
23.1267
23.7173
24.401
25.2068
26.1554
27.2474
28.4517
29.693
30.9015
32.0515
33.119
34.1007
35.0012
35.833
36.6127
37.3507
38.034
38.6398
39.1574
39.5947
39.9673
25.9449
27.0761
28.4389
30.0959
32.0881
34.415
37.01
39.7056
42.1901
44.3462
46.2773
48.0003
49.559
50.9947
52.3779
53.7555
55.1751
56.677
58.054
59.2057
60.1339
60.8697
34.4713
36.6305
39.3139
42.5992
46.5068
50.9617
55.7618
60.4799
64.2382
67.1775
69.74
72.0759
74.3405
76.6325
79.1284
82.0205
85.7054
91.8066
96.6197
100.212
102.855
104.744
59.4039
62.9978
66.6238
70.5727
75.2242
80.5822
86.5502
92.333
91.744
92.4981
94.9721
98.4439
102.516
107.463
113.906
123.028
138.205
191.77
198.815
203.641
207.4
210.395
96.6935
98.8132
101.378
104.358
107.733
112.384
119.64
119.269
123.111
135.261
163.045
192.67
219.279
244.331
267.767
303.361
347.889
373.966
390.755
370.543
348.8
328.624
126.72
125.788
125.556
126.323
128.563
132.825
131.962
140.509
165.766
207.925
407.835
594.689
952.667
645.678
798.084
758.919
518.215
277.457
253.816
243.788
255.275
242.911
145.143
141.881
139.54
138.401
139.278
144.935
144.958
165.315
196.56
618.796
2451.38
555.435
158.289
175.381
201.18
192.384
186.202
160.474
155.651
151.847
149.19
148.36
152.314
152.445
182.391
259.143
883.197
194.385
191.236
174.699
162.526
159.559
159.851
153.861
148.746
144.614
141.711
140.806
141.59
154.326
189.29
566.969
1930.04
374.769
217.413
212.575
258.988
288.298
281.885
153.582
147.129
141.504
136.845
133.184
131.002
130.327
132.445
146.281
191.795
324.522
544.324
754.759
777.788
641.236
623.033
559.013
528.712
404.528
389.25
376.715
363.604
126.321
124.269
123.061
123.012
124.536
131.23
146.301
171.15
188.254
201.755
212.509
225.504
235.456
197.158
199.011
199.658
198.094
197.073
98.3366
100.279
102.277
104.226
105.785
107.266
108.712
110.108
111.387
112.461
113.32
114.216
115.29
115.328
114.059
112.411
110.661
155.004
150.209
146.203
143.1
140.948
140.276
142.974
148.073
186.456
485.146
2407.25
141.33
139.617
138.425
137.74
137.44
137.992
139.951
142.128
157.3
208.717
346.369
555.907
607.3
610.87
603.902
591.64
577.109
602.582
102.127
105.398
108.266
110.92
113.873
117.271
121.091
125.323
128.425
138.733
152.25
167.098
178.393
187.814
197.433
207.616
219.521
234.457
57.2443
61.1706
65.0287
69.2219
73.8791
79.0494
84.5534
90.194
95.5612
99.8196
102.927
105.302
107.061
108.841
110.273
111.495
112.615
113.936
115.76
39.9752
42.6098
45.4429
48.4984
51.8849
55.6775
59.8139
64.1594
68.4629
72.3045
75.4558
78.0815
80.1002
81.7074
82.9647
84.1517
84.829
85.1451
85.4551
85.8247
86.2553
86.6226
86.9101
32.2224
33.9471
35.6595
37.3839
39.1965
41.1664
43.3306
45.6699
48.1292
50.5984
52.9766
55.1065
56.9562
58.548
59.8827
60.9471
61.76
62.3455
62.7796
63.1139
63.368
63.5537
63.6962
63.8179
29.7726
30.8777
31.7876
32.5163
33.1373
33.7823
34.6141
35.5909
36.7023
37.9086
39.1405
40.3273
41.4326
42.4426
43.3441
44.0971
44.7214
45.2222
45.6305
45.9595
46.2177
46.417
46.5742
46.7073
26.8786
27.535
28.0098
28.3085
28.6337
28.9938
29.4064
29.8716
30.3781
30.9275
31.4982
32.0675
32.6097
33.1143
33.5735
33.9729
34.3073
34.5845
34.8159
35.0099
35.1674
35.2924
35.392
35.4736
25.3025
25.5842
25.7452
25.887
26.0527
26.2359
26.4457
26.6711
26.9048
27.1529
27.408
27.6634
27.9076
28.136
28.3425
28.5205
28.6668
28.7838
28.8779
28.9534
29.0129
29.0564
29.0866
29.1066
25.3175
25.36
25.3445
25.3241
25.3224
25.3358
25.3637
25.4047
25.4587
25.5253
25.6007
25.6756
25.7471
25.8129
25.8693
25.914
25.947
25.9682
25.9804
25.9841
25.9792
25.9654
25.9434
25.9151
26.1987
26.139
26.0536
25.9553
25.8538
25.7612
25.6823
25.6184
25.568
25.5269
25.492
25.4558
25.4203
25.385
25.3451
25.2989
25.2476
25.1942
25.1394
25.0836
25.0255
24.9644
24.9001
24.832
28.0838
27.9634
27.822
27.6621
27.4962
27.3351
27.1868
27.054
26.936
26.8264
26.7215
26.6127
26.5045
26.3977
26.2876
26.1719
26.0544
25.9383
25.8242
25.7119
25.6
25.4872
25.3732
25.2577
28.0638
27.9469
27.8089
27.6528
27.4902
27.3323
27.187
27.0573
26.9425
26.8361
26.7337
26.626
26.517
26.4078
26.2937
26.1735
26.0518
25.9323
25.8155
25.7006
25.5864
25.4714
25.3554
25.2382
26.0802
25.9954
25.8978
25.7967
25.7026
25.6217
25.5561
25.5045
25.4625
25.4263
25.3877
25.3478
25.3054
25.2585
25.2046
25.1473
25.0897
25.0326
24.9752
24.9168
24.8563
24.7936
24.7283
25.2364
25.2197
25.1979
25.189
25.195
25.2145
25.2486
25.2995
25.3633
25.4344
25.5047
25.5722
25.6329
25.6879
25.7284
25.7557
25.7736
25.7853
25.7915
25.7912
25.784
25.7716
25.7556
25.4029
25.5611
25.7004
25.8634
26.0411
26.245
26.4636
26.6894
26.9288
27.1769
27.4277
27.6717
27.9031
28.1147
28.2976
28.4496
28.5726
28.6721
28.7546
28.824
28.8831
28.9338
28.9791
27.4334
27.8943
28.1646
28.4584
28.7823
29.1558
29.5858
30.0623
30.5934
31.1601
31.7426
32.3155
32.8577
33.3552
33.7891
34.1479
34.4448
34.6919
34.901
35.0805
35.2358
35.3736
35.5032
31.1285
31.8349
32.427
33.0754
33.9081
34.9047
36.0524
37.3325
38.6717
39.9915
41.2407
42.3894
43.4138
44.2743
44.9623
45.5136
45.9655
46.3279
46.6208
46.8671
47.0903
47.3082
34.8738
36.5931
38.4201
40.4293
42.6701
45.1379
47.7753
50.5444
53.2472
55.6922
57.8277
59.6657
61.1996
62.4034
63.3031
63.9237
64.3404
64.6248
64.8272
64.9898
65.1454
65.3103
45.3014
48.4973
52.0767
56.1205
60.5671
65.2661
69.9562
74.2671
77.8068
80.7374
82.9971
84.768
86.1091
87.3264
87.8782
87.8265
87.6048
87.3426
87.1123
86.9112
86.7532
86.6556
67.7055
72.1169
77.0161
82.4286
88.1468
93.9123
99.3399
104.052
107.298
109.524
111.008
112.504
113.518
114.057
114.108
113.881
113.683
113.83
114.975
115.57
115.807
115.866
111.449
114.103
116.454
118.994
121.845
124.958
128.379
133.189
132.044
132.621
134.987
137.397
139.813
142.331
144.704
146.988
149.617
155.878
184.266
183.613
182.278
180.785
140.469
138.971
138.032
137.452
137.632
139.206
138.625
144.431
162.711
202.631
239.113
256.21
266.687
274.679
279.545
282.321
287.769
299.065
307.344
324.937
307.127
291.212
149.109
145.083
141.872
139.64
138.908
141.638
144.511
170.78
218.287
487.652
701.608
956.865
968.369
947.815
920.681
783.578
735.302
635.029
471.731
395.492
299.087
261.277
147.994
142.948
138.544
134.951
132.301
131.666
143.041
207.638
554.035
475.809
213.673
274.397
227.109
205.231
134.789
129.32
124.481
120.197
116.163
117.888
131.771
175.362
1203.19
285.787
223.452
209.669
215.994
159.251
152.933
147.444
142.804
139.688
139.468
142.007
175.311
556.47
522.767
468.06
332.276
364.607
329.351
153.775
148.342
143.699
139.924
137.011
135.344
134.201
142.351
193.99
441.868
1048.39
746.921
813.204
817.726
796.537
603.004
510.623
405.542
382.426
284.094
275.454
266.545
113.367
113.559
115.018
116.438
124.143
139.289
153.128
162.604
169.459
173.889
175.631
174.226
173.273
172.284
142.87
141.724
140.031
138.097
75.8146
78.6689
81.9359
85.0054
87.5735
89.4315
90.7123
91.6162
92.1946
92.3604
92.0581
91.6032
91.0813
90.3285
89.1914
87.7398
86.0659
152.684
145.885
139.867
134.545
130.096
126.634
125.43
135.728
213.901
1266.92
160.347
154.888
149.78
144.781
140.08
136.069
134.053
136.085
171.873
321.34
579.49
599.653
560.507
459.153
445.783
489.044
497.98
502.593
151.937
149.465
146.897
144.468
142.293
141.041
139.61
140.132
143.736
166.188
197.235
214.157
221.493
226.153
230.619
232.787
233.07
233.624
113.639
115.668
117.634
119.779
122.128
125.06
127.779
130.138
131.999
133.818
136.094
138.496
140.976
142.603
145.416
147.131
147.409
146.315
144.24
84.4716
87.8938
91.0739
94.0157
97.312
101.459
105.614
109.612
113.124
116.054
118.026
119.175
119.963
120.568
120.335
118.795
115.955
114.991
113.926
112.933
111.986
111.229
110.661
67.2826
70.3892
73.1583
75.7371
78.3191
81.0536
84.0133
86.9045
89.9884
92.9134
95.2964
97.1166
98.4636
99.466
99.9772
100.134
99.2642
98.0364
96.6105
95.2351
93.994
92.9249
92.0441
91.3529
61.6415
64.0621
65.628
66.5831
67.4121
68.4907
69.8322
71.3881
72.973
74.5715
76.0541
77.3385
78.4368
79.3567
80.0303
80.6946
80.7652
80.3838
79.6502
78.8453
78.0468
77.3053
76.6481
76.0862
52.4808
54.4309
55.4349
56.038
56.5452
57.0425
57.6261
58.3437
59.1621
60.0378
60.8736
61.5859
62.2123
62.7508
63.1889
63.4696
63.5461
63.4288
63.1671
62.8233
62.4422
62.0534
61.6804
61.3388
43.0109
44.3551
45.3975
45.8657
46.2935
46.8517
47.2966
47.8778
48.2946
48.6543
49.0096
49.3376
49.6074
49.8387
50.0296
50.1754
50.2552
50.2368
50.1287
49.9542
49.7417
49.5047
49.2531
48.9976
48.747
39.6323
40.0951
40.4194
40.4662
40.4408
40.5843
40.6924
40.7824
40.8671
40.9574
41.0591
41.1538
41.2021
41.2241
41.2171
41.1775
41.095
40.9657
40.7967
40.605
40.4069
40.2
39.9849
39.7643
39.5424
39.7086
39.7007
39.5959
39.3662
39.0595
38.7884
38.5025
38.2168
37.9605
37.7397
37.5494
37.3673
37.1797
36.9935
36.8111
36.6129
36.3917
36.1518
35.9029
35.6551
35.4114
35.1726
34.9351
34.6976
34.4609
45.9185
45.5589
45.0368
44.4095
43.7936
43.1339
42.4539
41.8006
41.1993
40.6417
40.1077
39.5891
39.0916
38.6139
38.1403
37.6604
37.1826
36.7151
36.2671
35.8421
35.4388
35.0519
34.6779
34.3146
45.9522
45.5986
45.0813
44.4583
43.8474
43.1895
42.51
41.8553
41.2516
40.6914
40.1544
39.6318
39.1315
38.6498
38.1665
37.6768
37.1915
36.7186
36.2672
35.8397
35.435
35.0476
34.674
34.3124
39.615
39.494
39.2497
38.9271
38.6376
38.3208
38.0069
37.7194
37.4685
37.2508
37.0512
36.8598
36.6843
36.5181
36.3397
36.1336
35.9122
35.6831
35.4564
35.2348
35.0184
34.8046
34.5927
34.3846
39.9173
39.9464
39.9031
39.9951
40.0589
40.1092
40.1574
40.2239
40.31
40.4051
40.4814
40.5484
40.6871
40.7023
40.6741
40.5999
40.4854
40.3484
40.2077
40.0607
39.9077
39.7522
39.5992
44.4306
44.9394
45.4151
46.041
46.5342
47.1389
47.5478
47.8781
48.2113
48.5546
48.8825
49.2074
49.6238
49.8751
50.0591
50.1425
50.1337
50.0665
49.9639
49.839
49.7023
49.5644
49.4404
54.5818
55.606
56.1438
56.5475
56.8901
57.2988
57.8457
58.5295
59.3418
60.2105
61.0494
61.8586
62.5923
63.2303
63.7066
63.9706
64.0397
63.9907
63.8589
63.6806
63.4924
63.324
63.1914
64.3061
65.2764
66.0725
67.1108
68.4335
70.0221
71.7679
73.6026
75.4073
77.0809
78.5757
79.8693
80.9141
81.614
82.202
82.2539
81.8288
81.3006
80.7591
80.2662
79.8625
79.5701
71.4217
74.1724
76.921
79.8334
83.0573
86.3333
89.8419
93.1613
95.949
98.2004
99.9891
101.416
102.319
102.936
102.506
101.615
100.406
99.206
98.1241
97.2286
96.556
96.1273
91.0388
94.1924
97.7235
102.126
106.554
110.819
114.583
117.714
119.849
121.337
122.495
123.567
123.724
120.248
115.035
119.183
118.184
117.166
116.167
115.424
114.983
114.899
120.02
122.149
124.463
127.281
129.903
132.025
133.606
135.169
137.551
140.501
143.455
139.912
136.313
134.626
133.092
131.093
147.899
146.248
144.8
145.136
145.471
146.1
150.478
147.804
145.249
142.768
141.084
139.27
139.425
139.071
145.562
158.009
167.958
174.6
179.168
182.4
183.707
182.83
181.158
179.124
178.622
211.178
211.132
210.626
153.38
148.065
142.908
138.086
133.979
132.379
133.784
150.718
201.697
272.976
296.573
300.187
303.134
308.251
305.211
299.914
300.186
299.089
299.666
297.273
350.302
316.94
143.718
137.563
132.214
127.836
124.51
123.539
132.905
203.828
419.258
674.367
952.632
665.515
663.285
662.414
499.292
734.514
623.408
567.734
535.785
423.728
277.464
254.45
143.219
138.216
133.532
129.566
126.002
125.141
137.561
266.876
457.12
275.553
250.32
229.25
153.064
147.199
141.914
137.229
133.501
132.334
143.918
374.674
366.644
246.578
216.148
292.45
151.092
145.075
139.924
135.659
132.604
131.98
140.825
203.271
732.446
532.73
369.511
318.169
132.78
128.22
124.446
121.58
120.064
121.304
121.085
141.38
260.33
558.255
845.366
603.449
528.002
499.471
685.614
741.752
688.238
463.202
314.178
278.138
197.282
187.557
91.5534
92.0261
94.2526
97.5981
110.581
126.57
130.345
130.987
130.89
130.519
131.81
131.658
129.561
127.678
125.266
102.236
100.542
98.4506
60.4475
62.1455
64.3422
66.4411
67.8732
68.7038
69.305
69.7
69.8222
69.6639
69.3006
68.9294
68.5861
68.0359
67.2391
66.1691
64.8893
153.817
146.286
139.186
132.566
126.438
121.237
120.691
134.169
332.767
155.401
148.144
141.149
134.457
128.164
122.502
119.046
123.298
178.784
536.711
576.449
563.42
485.354
468.132
474.789
603.226
563.005
773.505
162.815
155.705
148.136
140.484
133.41
128.817
123.058
120.824
132.931
179.004
230.222
264.95
283.99
299.666
310.793
302.99
299.364
297.526
154.025
151.282
148.906
146.59
143.699
140.136
135.37
131.226
127.883
128.352
138.038
154.765
171.273
185.736
199.084
208.131
209
206.685
200.721
219.561
140.451
138.22
135.24
132.457
132.5
132.742
133.513
133.793
132.916
131.519
131.763
134.429
139.186
140.908
145.933
150.155
152.581
151.163
147.962
159.649
158.136
156.01
153.847
123.392
122.691
122.253
122.102
122.662
123.497
123.924
124.426
124.545
124.077
123.526
123.464
124.162
124.88
125.435
124.57
123.488
121.747
123.35
123.723
123.567
123.07
122.42
121.746
122.2
124.705
124.807
123.209
120.863
118.331
115.848
114.862
118.286
116.736
115.353
114.191
113.264
112.598
112.293
111.481
109.335
106.658
105.8
104.849
103.955
103.138
102.407
101.766
127
129.307
128.827
126.477
123.069
118.717
114.031
109.684
107.063
105.626
104.088
106.64
104.753
103.175
101.777
100.381
98.6389
96.6464
94.8564
93.1913
91.6674
90.3183
89.1412
88.1209
103.978
106.961
109.393
109.982
109.036
127.42
123.323
116.743
106.849
99.8295
94.9011
91.296
98.0061
95.6726
93.5537
91.6025
89.7135
87.7626
85.7979
83.9848
82.2509
80.6204
79.1233
77.7659
76.5417
88.8713
90.1626
91.3444
91.3098
90.0575
106.782
103.946
100.938
97.7884
94.7698
92.0029
89.3845
86.8679
84.4772
82.2874
80.2499
78.2764
76.2993
74.3829
72.5953
70.9601
69.4114
67.9679
66.6335
65.4018
67.7856
68.0064
68.3753
68.1926
67.3895
82.0898
80.8388
79.4077
77.9341
76.5667
75.317
74.2331
72.8812
71.3093
69.7451
68.1989
66.6031
64.9589
63.3295
61.7954
60.4113
59.0958
57.8602
56.7037
55.6212
78.2733
77.7722
76.527
74.5343
95.5181
92.4237
89.2129
86.0941
83.223
80.7021
78.6495
76.4971
74.1642
71.8958
69.7311
67.5655
65.4025
63.3101
61.3593
59.6115
57.9799
56.4691
55.0709
53.7744
87.7229
87.4629
86.1137
83.717
96.0395
92.8795
89.6012
86.4134
83.4716
80.8879
78.7989
76.627
74.2842
72.03
69.8691
67.6886
65.5118
63.4108
61.4547
59.706
58.0771
56.5712
55.1804
53.8936
69.2844
68.9882
68.1435
66.6663
81.2994
79.6507
78.2186
76.7113
75.2806
73.9905
72.9315
71.6851
70.3056
69.0142
67.6276
66.1563
64.6203
63.0877
61.6407
60.3468
59.1167
57.9617
56.8828
55.8762
75.1983
75.4273
74.794
104.242
101.599
98.7221
95.6449
92.6362
89.8862
87.3703
85.1163
83.0808
79.8547
78.8684
77.2373
75.5591
73.903
72.3463
70.9233
69.5633
68.2889
67.1099
66.0257
96.8181
97.078
96.2064
126.367
122.592
116.146
105.598
97.3349
91.0661
86.4073
97.537
95.5751
92.044
91.2727
89.7764
88.1583
86.4661
84.8873
83.3526
81.891
80.5439
79.3284
78.2469
120.664
121.666
120.645
118.265
114.658
110.619
106.458
102.618
99.5821
97.1526
107.311
105.745
104.548
103.32
102.087
100.629
98.7721
97.0652
95.4803
94.042
92.7944
91.7411
90.871
128.846
126.966
124.031
120.188
116.015
112.398
119.051
117.485
116.289
115.431
114.786
114.335
114.189
113.609
110.573
105.906
108.451
107.67
106.962
106.352
105.856
105.487
120.822
120.1
119.228
118.503
118.308
125.279
125.536
125.289
124.964
125.162
126.124
127.033
127.794
124.752
120.999
118.187
127.215
127.952
128.106
127.896
127.54
127.205
133
133.336
133.371
131.67
130.434
130.629
130.857
130.546
133.565
136.787
142.2
139.641
139.207
140.606
141.826
140.932
138.715
167.404
165.985
163.925
161.878
160.171
149.501
147.072
144.103
141.514
138.382
135.462
132.526
131.098
135.048
144.432
155.566
166.841
177.121
184.371
187.9
186.886
183.649
232.106
222.138
215.248
209.394
204.928
154.423
147.431
140.027
133.172
130.226
125.723
123.159
129.521
157.169
193.708
222.808
242.601
258.367
270.305
253.788
265.136
264.405
261.048
254.23
289.176
274.837
263.299
146.478
140.024
133.826
127.934
122.19
120.153
121.505
152.343
258.739
337.304
375.711
386.637
399.646
412.338
375.893
446.91
459.287
456.626
428.272
408.65
271.374
214.008
146.509
139.94
133.609
127.564
122.285
120.932
128.694
195.713
963.638
873.381
635.252
656.837
599.898
611.22
1049.18
444.128
502.09
381.709
273.446
239.663
258.158
272.619
145.175
138.656
132.686
127.219
122.776
122.564
142.581
643.494
589.098
330.884
312.854
306.084
142.597
136.142
130.554
125.72
122.118
123.109
140.959
351.546
383.311
319.072
133.65
127.536
122.322
118.177
115.64
116.98
144.444
456.747
789.129
543.124
407.698
267.008
110.6
106.355
102.847
100.217
98.804
99.1698
106.565
139.797
638.41
819.895
630.787
399.306
351.635
321.889
328.803
625.258
818.911
605.563
312.828
247.968
154.044
141.613
74.3641
75.079
75.9549
82.9216
97.0294
103.526
104.074
103.028
101.763
100.582
99.6906
99.4064
98.8084
96.4868
93.8469
76.6427
75.0703
73.1462
52.545
53.3466
54.4432
55.3196
55.7107
55.8995
55.8577
55.671
55.344
54.8898
54.3898
53.9837
53.6588
53.2103
52.5788
51.6926
50.6511
144.676
137.975
131.835
126.167
121.019
116.703
116.123
136.698
840.466
143.695
136.755
130.532
124.938
119.874
116.928
113.492
117.756
189.11
525.336
627.4
737.062
777.003
521.273
755.284
443.228
317.437
348.188
288.616
152.539
144.076
136.4
130.837
122.862
117.305
113.125
114.805
149.193
214.633
384.566
519.264
570.988
797.458
664.552
470.492
415.421
383.537
159.24
155.47
151.689
146.561
138.759
131.357
124.652
122.082
127.674
132.262
169.416
224.362
282.119
338.888
454.389
569.562
636.535
577.997
417.919
306.985
144.462
141.882
141.301
141.573
141.087
140.103
137.768
134.948
133.763
136.054
143.007
193.482
192.373
205.943
225.153
245.612
268.553
284.659
308.703
264.967
239.196
219.378
204.261
144.514
143.221
143.595
140.689
137.557
136.007
134.743
133.333
146.569
147.353
152.083
154.287
155.489
158.992
163.384
168.915
175.164
179.98
198.704
189.75
180.784
172.522
165.202
205.419
203.39
195.792
182.127
166.374
152.555
142.286
134.774
132.627
133.229
133.973
133.83
132.465
131.735
131.208
131.494
130.547
129.641
140.228
140.606
139.461
137.436
134.965
234.966
233.252
222.584
209.481
196.814
183.873
171.201
159.928
149.625
140.797
133.845
127.8
124.177
122.409
120.627
118.192
115.977
113.306
110.834
113.005
113.078
112.756
112.104
111.203
249.104
242.412
238.251
229.233
216.233
201.706
187.157
175.485
166.182
158.1
151.173
144.105
135.735
127.628
121.295
116.396
112.352
108.719
105.134
106.351
104.186
102.259
100.52
98.9313
97.4605
253.749
247.937
244.439
237.215
224.312
207.909
190.146
174.133
160.59
149.738
141.431
134.849
128.83
122.612
116.923
112.046
107.589
103.265
99.0354
95.717
98.911
96.2594
93.7602
91.443
89.3081
173.241
175.467
179.223
179.623
175.084
167.771
208.902
195.611
182.753
170.733
160.488
149.179
133.414
121.775
112.333
105.185
99.5017
94.4963
89.8048
85.754
92.4848
89.91
87.3756
84.9361
82.617
196.642
195.569
197.569
193.731
185.499
175.977
225.139
208.724
192.792
178.574
166.93
155.989
140.488
128.413
117.675
109.007
102.111
95.9874
90.3106
85.3339
93.6157
90.7813
87.9605
85.2168
82.5842
225.497
226.166
219.357
208.615
195.139
225.651
209.342
193.447
179.177
167.387
156.472
141.114
129.112
118.533
110.153
103.407
97.2386
91.4976
86.4312
94.3105
91.5437
88.7619
86.0357
83.4062
171.59
174.321
173.378
167.784
160.503
151.801
198.84
186.017
173.719
162.934
152.28
136.459
124.477
114.547
106.892
100.752
95.1821
89.9849
85.4537
94.74
92.1624
89.5784
87.0674
84.6691
218.541
215.448
206.414
194.105
180.065
166.317
153.67
142.779
133.989
127.41
121.896
116.578
112.103
108.35
104.485
100.516
96.4805
92.9406
100.617
97.9187
95.372
93.0141
90.8498
239.615
232.691
220.372
205.148
189.337
176.216
165.508
156.489
149.167
142.895
135.935
128.848
123.286
118.559
113.986
109.647
105.424
107.926
105.632
103.598
101.785
100.159
98.6852
237.628
227.503
214.694
203.036
191.408
179.879
169.618
159.364
149.934
141.75
133.948
127.414
122.866
119.395
116.318
113.479
110.465
107.693
113.53
113.522
113.216
112.652
111.89
224.932
212.162
197.791
182.361
167.241
154.241
143.195
135.188
130.773
128.28
134.654
133.198
129.881
125.888
123.693
121.46
119.486
139.504
140.139
139.339
137.679
135.557
178.259
176.652
166.004
152.865
142.929
136.553
132.638
146.312
147.322
152.438
154.822
150.178
146.295
145.711
146.401
146.808
149.024
197.81
189.676
181.332
173.5
166.443
135.44
134.876
135.325
137.027
137.194
136.842
135.96
136.318
138.334
194.526
185.515
181.45
187.546
195.397
195.07
226.837
234.909
266.722
240.925
220.964
205.605
193.581
151.84
148.137
142.191
136.843
132.036
129.712
131.331
139.283
154.905
184.411
219.976
256.714
268.994
288.594
341.814
357.91
383.007
303.691
270.272
246.261
228.658
213.903
144.228
136.615
132.67
125.232
119.099
115.65
121.709
132.375
165.618
306.989
376.104
444.538
611.307
681.74
1084.63
574.635
396.957
351.951
320.95
262.586
237.474
209.276
136.428
130.245
124.702
119.698
116.803
112.635
114.166
167.051
245.911
446.734
592.943
622.785
767.399
551.078
436.902
383.416
285.221
252.458
233.886
188.126
200.07
137.935
131.872
126.284
121.21
116.948
115.325
124.312
270.233
563.059
859.294
1075.6
667.739
541.486
1807.28
383.373
338.72
553.661
506.346
242.086
209.181
286.245
295.911
139.974
133.5
127.622
122.462
118.642
118.952
135.801
473.227
402.465
329.374
138.448
131.984
126.269
121.503
118.526
121.487
161.373
542.182
445.153
319.097
129.66
123.979
119.093
115.22
113.131
115.56
162.044
1561.53
651.114
388.014
235.237
108.223
104.615
101.591