/*--------------------------------*- C++ -*----------------------------------*\
  =========                 |
  \\      /  F ield         | OpenFOAM: The Open Source CFD Toolbox
   \\    /   O peration     | Website:  https://openfoam.org
    \\  /    A nd           | Version:  13
     \\/     M anipulation  |
\*---------------------------------------------------------------------------*/
FoamFile
{
    format      ascii;
    class       volScalarField;
    location    "600";
    object      p;
}
// * * * * * * * * * * * * * * * * * * * * * * * * * * * * * * * * * * * * * //

dimensions      [0 2 -2 0 0 0 0];

internalField   nonuniform List<scalar> 
171247
(
-15.1274
-50.8274
-2.34517
-2.2428
-1.86312
-1.18124
-0.230678
0.85937
1.87575
2.36864
3.66548
0.377112
-8.54737
-13.6561
-29.9029
-58.0542
-44.1541
-40.213
-3.44016
-3.62588
-3.6351
-3.49087
-3.27879
-3.1773
-3.58235
-5.25869
-9.20541
-11.1818
-20.8119
-31.0069
-38.0209
-39.2226
-37.5979
-39.2361
-39.8399
-4.87844
-5.37767
-5.78703
-6.12725
-6.51844
-7.23492
-8.70313
-11.4084
-15.7489
-21.6553
-25.4963
-32.2959
-36.059
-36.6963
-36.1377
-36.6695
-38.5317
-40.5571
-6.68483
-7.46538
-8.19375
-8.91472
-9.78491
-11.0551
-13.0087
-15.8851
-19.7804
-24.4614
-29.1828
-32.7497
-34.8896
-35.7195
-35.9295
-36.223
-36.7192
-38.064
-39.0444
-38.6223
-37.1103
-35.0813
-8.64438
-9.66797
-10.6806
-11.7172
-12.8934
-14.3906
-16.3872
-18.9925
-22.1891
-25.7535
-29.2137
-32.026
-33.89
-34.8999
-35.4208
-35.79
-36.1013
-36.3596
-36.3474
-35.6829
-34.3308
-32.5271
-9.45576
-10.6677
-11.9147
-13.1503
-14.3714
-15.6574
-17.1423
-18.9468
-21.1282
-23.6506
-26.3531
-28.9505
-31.1238
-32.692
-33.6946
-34.2982
-34.6477
-34.7814
-34.6746
-34.2653
-33.4336
-32.1565
-30.5457
-28.7373
-11.1891
-12.5583
-13.9659
-15.3397
-16.6419
-17.9187
-19.2748
-20.8058
-22.5597
-24.5177
-26.5804
-28.5749
-30.3077
-31.6515
-32.5919
-33.1909
-33.509
-33.5555
-33.3039
-32.7274
-31.8117
-30.5816
-29.1098
-27.4857
-12.7208
-14.182
-15.6762
-17.1174
-18.4398
-19.6581
-20.8556
-22.1192
-23.5022
-25.0115
-26.6002
-28.1677
-29.5841
-30.7394
-31.5869
-32.1374
-32.4138
-32.4109
-32.0996
-31.4667
-30.5359
-29.3585
-27.998
-26.5193
-13.9279
-15.4395
-16.9821
-18.4599
-19.7823
-20.9391
-21.9974
-23.0412
-24.1313
-25.3002
-26.5408
-27.799
-28.9815
-29.9867
-30.7484
-31.2507
-31.4962
-31.4685
-31.1361
-30.4918
-29.5737
-28.4451
-27.1684
-25.7967
-14.8073
-16.3478
-17.9173
-19.4123
-20.7249
-21.8276
-22.776
-23.6532
-24.5294
-25.454
-26.4462
-27.4837
-28.4979
-29.3933
-30.0896
-30.5527
-30.7747
-30.733
-30.3933
-29.751
-28.8504
-27.7605
-26.5437
-25.2472
-15.3781
-16.9361
-18.5201
-20.0217
-21.3238
-22.3881
-23.2643
-24.0334
-24.7701
-25.5338
-26.3619
-27.2537
-28.158
-28.984
-29.6406
-30.081
-30.2907
-30.2434
-29.9022
-29.2635
-28.3751
-27.3094
-26.129
-24.8785
-15.6603
-17.2261
-18.8158
-20.3182
-21.6117
-22.6532
-23.4888
-24.1974
-24.8548
-25.5267
-26.2611
-27.0705
-27.915
-28.7076
-29.3515
-29.7912
-30.0058
-29.9641
-29.6267
-28.9911
-28.1086
-27.0538
-25.8902
-24.6612
-15.665
-17.2333
-18.8257
-20.3305
-21.6255
-22.6668
-23.4998
-24.2026
-24.85
-25.507
-26.2237
-27.0167
-27.8508
-28.6426
-29.2952
-29.7501
-29.9807
-29.9498
-29.6154
-28.9766
-28.0881
-27.0268
-25.8572
-24.6234
-16.961
-18.5533
-20.0625
-21.3695
-22.4333
-23.3015
-24.0532
-24.7595
-25.4793
-26.2559
-27.1
-27.9746
-28.7978
-29.4783
-29.9603
-30.2138
-30.1955
-29.8613
-29.2123
-28.3057
-27.2203
-26.0221
-24.7575
-16.3888
-17.972
-19.4801
-20.802
-21.9057
-22.8429
-23.6928
-24.5216
-25.3784
-26.2915
-27.2569
-28.228
-29.1225
-29.8559
-30.3776
-30.6583
-30.6524
-30.3164
-29.6527
-28.7189
-27.5943
-26.3466
-25.0266
-15.4993
-17.0596
-18.5547
-19.8899
-21.0492
-22.0939
-23.1027
-24.1329
-25.2179
-26.3619
-27.5335
-28.6663
-29.6737
-30.4813
-31.0492
-31.353
-31.3515
-31.0064
-30.3213
-29.3509
-28.171
-26.8504
-25.4465
-14.2571
-15.7721
-17.2342
-18.5727
-19.7955
-20.9788
-22.2043
-23.5222
-24.9428
-26.4321
-27.9135
-29.285
-30.4505
-31.3502
-31.9639
-32.2808
-32.2739
-31.9136
-31.205
-30.1939
-28.9442
-27.524
-26.0034
-14.0811
-15.476
-16.7949
-18.0766
-19.4185
-20.9116
-22.6031
-24.4796
-26.4573
-28.3872
-30.1031
-31.4821
-32.4823
-33.126
-33.4403
-33.4242
-33.0589
-32.3477
-31.3099
-29.9806
-28.429
-26.7499
-12.038
-13.2937
-14.5316
-15.824
-17.2978
-19.0697
-21.1992
-23.6594
-26.3109
-28.884
-31.0966
-32.7603
-33.8425
-34.4571
-34.7212
-34.6857
-34.352
-33.7149
-32.7091
-31.3057
-29.5894
-27.702
-9.80591
-10.8345
-11.8847
-13.0674
-14.5593
-16.5354
-19.1069
-22.2698
-25.8345
-29.3305
-32.2685
-34.331
-35.4634
-35.948
-36.0885
-36.0439
-35.858
-35.4918
-34.6277
-33.1484
-31.212
-29.0467
-7.62161
-8.374
-9.11542
-9.99663
-11.2699
-13.2179
-16.0814
-19.9677
-24.6953
-29.5055
-33.5169
-35.9556
-36.9613
-37.0778
-36.9199
-36.8183
-37.2045
-37.6882
-37.1544
-35.5781
-33.3225
-30.7557
-5.55484
-5.99753
-6.38393
-6.82732
-7.58573
-9.07954
-11.7958
-16.1485
-22.1602
-28.9401
-33.6701
-37.363
-38.3983
-37.9855
-37.3624
-37.2733
-38.8985
-41.2657
-41.0066
-39.218
-36.4384
-33.2276
-3.89421
-3.94703
-3.85458
-3.71188
-3.69815
-4.18
-5.85975
-9.74115
-16.3313
-24.8745
-33.21
-39.9989
-41.4822
-39.2137
-37.7233
-38.6704
-39.7606
-44.5592
-44
-41.9672
-38.5028
-34.4778
-2.63426
-2.29865
-1.67011
-0.77793
0.254813
1.2216
1.74669
-1.71306
-6.42974
-16.6178
-30.8591
-41.802
-49.5342
-43.0113
-38.1802
-40.0718
-41.1715
-43.8408
-44.5489
-42.4615
-38.7472
-34.5441
-1.87269
-1.2252
-0.162072
1.36795
3.3828
5.79358
8.2996
7.93963
7.15394
2.30723
-8.67432
-33.2542
-81.072
-57.5456
-39.54
-40.2686
-41.0714
-42.8588
-42.9427
-39.723
-36.944
-33.6813
-1.32381
-0.559128
0.649105
2.37897
4.68669
7.47494
9.57686
12.254
13.5701
12.9782
12.2918
42.1979
-37.9439
-38.8106
-40.0531
-41.8151
-41.4312
-38.6403
-36.4117
-33.6135
-0.716812
-0.0761593
0.935607
2.35591
4.16069
6.16025
7.89717
9.34961
7.78673
0.72757
-7.65503
-24.773
-70.9209
-49.0556
-39.2478
-39.2844
-40.2727
-41.672
-40.9101
-39.0028
-36.7409
-33.7487
-0.144387
0.247967
0.879804
1.71024
2.60517
3.2625
3.04412
0.934363
-1.73926
-11.2991
-23.9654
-34.6066
-42.7396
-41.0099
-38.7025
-38.8332
-40.5236
-43.05
-40.5068
-37.9708
-35.2429
-32.1442
0.888165
0.504286
-0.895147
-4.02433
-9.42329
-14.5678
-22.8832
-29.0265
-32.3742
-33.4775
-34.6385
-36.3656
-37.3477
-39.1866
-38.0407
-36.0972
-33.947
-31.5614
-1.54764
-3.36227
-6.4077
-10.7921
-15.9414
-20.9966
-24.9095
-27.4975
-29.268
-30.804
-32.217
-33.7991
-34.5357
-33.9155
-32.4784
-30.7286
-28.8233
-2.76169
-2.64193
-2.20274
-1.40432
-0.271599
1.1013
2.44285
4.86746
5.2318
-1.16124
-12.9335
-7.53347
-3.69651
-3.8909
-3.87473
-3.66552
-3.33461
-3.0877
-3.47466
-5.51202
-5.86583
-14.1009
-27.5925
-37.3899
-51.8077
-48.205
-37.8281
-37.6876
-39.7725
-4.96959
-5.51451
-5.93865
-6.24667
-6.5871
-7.3118
-8.92936
-12.0586
-17.1374
-20.32
-29.0964
-35.9535
-39.287
-38.663
-37.1212
-37.0819
-38.3836
-40.8112
-6.73908
-7.56707
-8.31197
-9.02147
-9.88771
-11.2207
-13.3501
-16.5663
-20.9636
-26.2124
-30.9157
-34.3613
-36.2095
-36.8101
-37.0098
-37.3242
-37.7234
-38.0583
-38.5547
-38.0687
-36.4337
-34.2035
-8.74101
-9.82845
-10.8773
-11.9195
-13.1031
-14.6547
-16.7728
-19.5714
-23.0155
-26.7985
-30.3286
-33.0384
-34.7261
-35.618
-36.1326
-36.4883
-36.6935
-36.6231
-36.2385
-35.361
-33.8923
-31.9849
-9.56957
-10.8691
-12.2046
-13.489
-14.712
-15.9906
-17.4904
-19.3395
-21.5934
-24.2046
-26.9856
-29.6016
-31.7218
-33.2115
-34.167
-34.7713
-35.1246
-35.2166
-34.9535
-34.3189
-33.3167
-31.9344
-30.2467
-28.3879
-11.3885
-12.8591
-14.3744
-15.8112
-17.1098
-18.3512
-19.6732
-21.1797
-22.9235
-24.8903
-26.9684
-28.9672
-30.6818
-31.9929
-32.9107
-33.5101
-33.8342
-33.8621
-33.5261
-32.8171
-31.7818
-30.4674
-28.9376
-27.2772
-12.9812
-14.5356
-16.141
-17.656
-18.9761
-20.1407
-21.2703
-22.4636
-23.7839
-25.2495
-26.8199
-28.3903
-29.8132
-30.9612
-31.7955
-32.3432
-32.6272
-32.6225
-32.2682
-31.5519
-30.5345
-29.2917
-27.8874
-26.3825
-14.2017
-15.7964
-17.4539
-19.0179
-20.3474
-21.4486
-22.4257
-23.3765
-24.3723
-25.4642
-26.6616
-27.9158
-29.1161
-30.1308
-30.8877
-31.3893
-31.6481
-31.629
-31.2706
-30.5641
-29.5765
-28.3942
-27.0827
-25.6911
-15.0686
-16.687
-18.3754
-19.966
-21.2919
-22.3368
-23.1957
-23.9692
-24.7386
-25.5711
-26.5066
-27.5347
-28.5731
-29.4915
-30.1899
-30.6534
-30.8921
-30.8649
-30.5073
-29.8125
-28.8511
-27.7135
-26.4665
-25.1537
-15.6272
-17.2616
-18.9665
-20.5684
-21.887
-22.8949
-23.6816
-24.3449
-24.9679
-25.6282
-26.3884
-27.264
-28.195
-29.0541
-29.7197
-30.1631
-30.3934
-30.3652
-30.0097
-29.3221
-28.3763
-27.2653
-26.0563
-24.7904
-15.9034
-17.5466
-19.259
-20.864
-22.1757
-23.1624
-23.9088
-24.5089
-25.0463
-25.6053
-26.2616
-27.0474
-27.9188
-28.7519
-29.4133
-29.8633
-30.1055
-30.0875
-29.7367
-29.0522
-28.1127
-27.0132
-25.821
-24.5763
-15.9073
-17.5535
-19.2691
-20.8773
-22.1912
-23.1781
-23.9231
-24.5191
-25.0458
-25.5861
-26.2187
-26.9815
-27.8377
-28.6689
-29.3428
-29.816
-30.0824
-30.0797
-29.7325
-29.0439
-28.0976
-26.9909
-25.792
-24.5417
-17.2862
-19.0009
-20.6125
-21.9383
-22.9471
-23.7277
-24.3761
-24.9658
-25.5709
-26.2618
-27.0704
-27.9579
-28.8122
-29.5124
-30.0213
-30.3195
-30.334
-29.9887
-29.2896
-28.3239
-27.1915
-25.9622
-24.6795
-16.7276
-18.4323
-20.0397
-21.3791
-22.4282
-23.2788
-24.0263
-24.7416
-25.4879
-26.3165
-27.243
-28.2202
-29.1399
-29.8923
-30.4467
-30.7764
-30.8043
-30.4571
-29.7412
-28.7451
-27.5703
-26.2888
-24.9481
-15.8564
-17.5352
-19.1216
-20.4698
-21.5784
-22.5451
-23.4605
-24.3866
-25.3713
-26.4364
-27.5662
-28.6936
-29.7127
-30.5358
-31.1399
-31.4938
-31.5251
-31.1669
-30.4249
-29.3854
-28.1493
-26.7899
-25.362
-14.6121
-16.2426
-17.7846
-19.1279
-20.3032
-21.4217
-22.5742
-23.8169
-25.1668
-26.5983
-28.0407
-29.391
-30.5469
-31.4549
-32.1045
-32.4697
-32.4895
-32.1046
-31.3234
-30.2286
-28.9113
-27.4439
-25.8934
-14.4953
-15.9592
-17.2817
-18.5335
-19.8422
-21.3047
-22.9705
-24.8277
-26.7834
-28.6792
-30.347
-31.6858
-32.6818
-33.3609
-33.7245
-33.7274
-33.3059
-32.4796
-31.3255
-29.9075
-28.2936
-26.574
-12.332
-13.6403
-14.8848
-16.172
-17.6571
-19.4636
-21.6475
-24.169
-26.87
-29.4372
-31.568
-33.1305
-34.175
-34.8292
-35.15
-35.1216
-34.678
-33.8415
-32.6583
-31.1347
-29.3341
-27.393
-9.96419
-11.0283
-12.0851
-13.2741
-14.8139
-16.8994
-19.6458
-23.0345
-26.8117
-30.3617
-33.169
-35.0029
-36.0062
-36.5271
-36.7314
-36.6644
-36.2537
-35.5271
-34.3989
-32.7685
-30.7194
-28.4853
-7.7207
-8.4847
-9.21042
-10.0831
-11.4124
-13.527
-16.7093
-21.0796
-26.4136
-31.1974
-34.9063
-36.9878
-37.7489
-37.9246
-37.9224
-37.8353
-37.6015
-37.4502
-36.6458
-34.8819
-32.4536
-29.8193
-5.692
-6.1522
-6.51174
-6.90583
-7.66956
-9.31923
-12.4723
-17.5643
-23.2545
-29.8569
-35.767
-38.7917
-39.3021
-38.7258
-38.1215
-38.0013
-38.2412
-39.9521
-40.2799
-38.2123
-35.0792
-31.8961
-4.1901
-4.21765
-4.06276
-3.81578
-3.67434
-4.14106
-6.20897
-11.5839
-18.5348
-29.3596
-39.0405
-44.3686
-43.4958
-40.5134
-38.1694
-38.3416
-39.9286
-41.6535
-44.869
-42.1339
-37.8732
-33.726
-3.05333
-2.65691
-1.91211
-0.832326
0.468339
1.73962
-0.124129
-1.44007
-9.33751
-23.0237
-41.2616
-55.0603
-63.1567
-58.9007
-38.0949
-39.2366
-40.8906
-44.119
-45.8945
-43.5506
-39.2365
-34.8554
-2.33823
-1.5912
-0.366378
1.41831
3.84013
6.90474
7.58533
10.4204
6.22616
-10.9132
10.0956
-42.0367
-43.8383
-45.203
-42.1903
-37.3277
-34.1931
-1.72059
-0.873876
0.478313
2.46141
5.24631
8.94568
11.6893
16.1212
16.574
10.4839
-42.5532
-41.9796
-39.4189
-36.4321
-33.9816
-1.12048
-0.390449
0.770035
2.41069
4.56522
7.09914
9.75149
12.4029
10.5773
-2.36784
5.46916
-40.2655
-42.1107
-41.4824
-38.8274
-36.9093
-33.9635
-0.233178
0.222111
0.96213
1.96234
3.10567
4.00316
3.84086
4.29312
-2.13299
-15.5741
-29.3446
-41.1977
-49.3665
-45.7643
-36.0728
-38.0259
-40.4375
-42.0994
-40.462
-37.7522
-35.3332
-32.4183
1.30117
1.02399
-0.458453
-4.00225
-7.12646
-16.6879
-25.2803
-30.8708
-32.4367
-33.3459
-34.6931
-36.7566
-38.5436
-38.298
-37.5999
-35.4726
-33.1468
-30.7596
-1.34667
-3.23714
-6.58246
-11.4522
-16.985
-21.9631
-25.4821
-27.6941
-29.4405
-31.2325
-32.9443
-34.1236
-34.5519
-33.6979
-32.0191
-30.0903
-28.1479
-3.23464
-3.16883
-2.72925
-1.85048
-0.497087
1.24287
2.99567
7.27986
4.4294
-7.68182
-2.17518
-3.96059
-4.18478
-4.16097
-3.87392
-3.39388
-3.03812
-3.51551
-2.24791
-7.9178
-23.1923
-40.9542
-60.0585
-52.3556
-41.6724
-36.2034
-36.554
-39.2467
-42.1682
-5.00745
-5.6562
-6.11625
-6.37617
-6.66405
-7.47025
-9.40443
-13.3439
-15.2237
-25.2908
-35.8343
-41.4246
-41.1743
-39.1208
-38.2046
-38.9242
-40.1419
-40.928
-5.72345
-6.72642
-7.67286
-8.46719
-9.15001
-10.0147
-11.508
-13.9796
-17.8669
-23.2587
-28.8198
-33.7436
-36.7574
-37.9202
-38.1033
-38.5332
-39.1615
-39.4881
-39.1741
-7.61771
-8.86481
-10.1345
-11.2903
-12.3257
-13.5114
-15.1947
-17.5444
-20.6873
-24.5605
-28.6235
-32.1533
-34.5864
-35.8978
-36.6404
-37.3451
-37.7527
-37.917
-37.4256
-36.3859
-35.0105
-33.2282
-31.119
-9.74954
-11.2855
-12.8651
-14.2728
-15.4803
-16.7244
-18.2295
-20.1248
-22.4474
-25.1609
-28.0197
-30.6114
-32.6141
-33.9644
-34.883
-35.5606
-35.9864
-36.0961
-35.5855
-34.5543
-33.2082
-31.6003
-29.7711
-27.8265
-11.8143
-13.5429
-15.3358
-16.9126
-18.1625
-19.2844
-20.4822
-21.8706
-23.5277
-25.4537
-27.5246
-29.5244
-31.2104
-32.4716
-33.3718
-34.0158
-34.3856
-34.4294
-33.9634
-33.0141
-31.7571
-30.2872
-28.6564
-26.9368
-13.5187
-15.2838
-17.1656
-18.8515
-20.1292
-21.1295
-22.0742
-23.0771
-24.2329
-25.5807
-27.0963
-28.6756
-30.1166
-31.2507
-32.062
-32.6198
-32.9531
-32.9878
-32.573
-31.7008
-30.5279
-29.1737
-27.6975
-26.1514
-14.7163
-16.4905
-18.4377
-20.2158
-21.5451
-22.4701
-23.2416
-23.9576
-24.7439
-25.6803
-26.7979
-28.0664
-29.3156
-30.3454
-31.078
-31.5794
-31.89
-31.9163
-31.517
-30.6879
-29.5734
-28.3017
-26.9349
-25.5126
-15.5263
-17.3135
-19.3048
-21.1368
-22.4799
-23.3517
-23.9947
-24.5384
-25.082
-25.7232
-26.5478
-27.5776
-28.6956
-29.667
-30.3456
-30.8012
-31.094
-31.119
-30.7287
-29.9215
-28.8441
-27.6269
-26.3331
-24.9951
-16.0476
-17.8471
-19.8584
-21.7115
-23.0553
-23.9095
-24.498
-24.9411
-25.327
-25.7694
-26.3938
-27.2566
-28.2839
-29.224
-29.8754
-30.306
-30.5945
-30.6227
-30.2345
-29.4344
-28.3721
-27.1822
-25.9284
-24.639
-16.3025
-18.1145
-20.1376
-21.9965
-23.3369
-24.1829
-24.7393
-25.1176
-25.4058
-25.726
-26.2221
-26.9768
-27.9499
-28.8845
-29.547
-29.9949
-30.3081
-30.3518
-29.9655
-29.1659
-28.109
-26.9306
-25.6938
-24.4253
-16.3062
-18.1221
-20.15
-22.0136
-23.3575
-24.2038
-24.7618
-25.1404
-25.4167
-25.7104
-26.1692
-26.885
-27.8303
-28.7593
-29.4422
-29.9324
-30.2905
-30.36
-29.9769
-29.1702
-28.1046
-26.9178
-25.6726
-24.3964
-17.8737
-19.8982
-21.7655
-23.1209
-23.9766
-24.5625
-24.9993
-25.3469
-25.7106
-26.2254
-26.9744
-27.9229
-28.8489
-29.5542
-30.1082
-30.5232
-30.6235
-30.2478
-29.4311
-28.3459
-27.132
-25.8539
-24.5425
-17.3556
-19.3691
-21.2265
-22.5919
-23.474
-24.1172
-24.6413
-25.1183
-25.6336
-26.2851
-27.1418
-28.1547
-29.1316
-29.8674
-30.4944
-30.9636
-31.0903
-30.7216
-29.8907
-28.7754
-27.5171
-26.1828
-24.81
-16.5489
-18.5256
-20.3389
-21.7015
-22.646
-23.417
-24.1024
-24.802
-25.579
-26.478
-27.5279
-28.6489
-29.6909
-30.4995
-31.1902
-31.6862
-31.8183
-31.4418
-30.5833
-29.4182
-28.0908
-26.6711
-25.2056
-15.3612
-17.2785
-19.0072
-20.3265
-21.354
-22.2984
-23.2598
-24.3151
-25.4868
-26.7668
-28.1128
-29.4124
-30.5493
-31.4817
-32.2268
-32.7293
-32.837
-32.4177
-31.4987
-30.2578
-28.8298
-27.2862
-25.689
-15.4663
-17.0877
-18.3818
-19.5304
-20.7208
-22.0564
-23.605
-25.3545
-27.2102
-29.0116
-30.5842
-31.8649
-32.8893
-33.6766
-34.1933
-34.2605
-33.7403
-32.7067
-31.3483
-29.7751
-28.0553
-26.2727
-12.9936
-14.4385
-15.6851
-16.9479
-18.4343
-20.2697
-22.4816
-25.0286
-27.7275
-30.2057
-32.1661
-33.5747
-34.6199
-35.4152
-35.8903
-35.9472
-35.3181
-34.1324
-32.6191
-30.8591
-28.9096
-26.8852
-10.2512
-11.4259
-12.4863
-13.6814
-15.3405
-17.6304
-20.6671
-24.397
-28.4298
-31.9503
-34.4278
-35.8539
-36.7142
-37.4748
-37.8222
-37.8246
-37.104
-35.7916
-34.144
-32.1519
-29.8899
-27.5452
-7.80377
-8.60873
-9.30476
-10.1728
-11.6483
-14.0734
-17.8327
-22.9305
-28.9887
-33.8831
-36.9619
-38.3157
-38.6334
-39.0593
-39.4777
-39.4792
-38.7935
-37.531
-36.0274
-33.8019
-31.0686
-28.2483
-5.83213
-6.33474
-6.64585
-6.97204
-7.80399
-9.75413
-13.7325
-19.6884
-26.8729
-34.487
-38.9744
-40.2093
-39.8028
-39.5795
-39.796
-39.9883
-39.64
-39.0077
-38.2293
-36.1698
-32.8521
-29.4669
-4.53688
-4.55239
-4.32495
-3.92026
-3.63766
-4.17708
-8.11523
-13.6371
-24.3489
-39.1773
-46.9101
-45.3907
-41.2506
-39.4271
-39.9142
-40.6913
-40.6348
-41.2826
-41.2753
-38.7572
-34.527
-29.9838
-3.63793
-3.22126
-2.37743
-1.07741
0.599865
2.29214
0.942671
-3.60569
-17.7977
-46.2673
-72.2397
-62.7755
-49.1052
-40.8828
-42.0017
-40.1234
-39.2967
-43.0981
-45.4735
-43.8816
-36.939
-33.174
-3.05887
-2.18498
-0.746318
1.36041
4.19654
5.82669
10.8493
11.5275
1.49656
-45.3624
-47.4816
-42.3333
-37.5129
-34.429
-2.11723
-1.10089
0.486985
2.798
5.97222
9.38588
16.0248
20.3982
24.4691
-43.9252
-39.3414
-37.2068
-34.8359
-1.09374
-0.270134
1.07543
3.04161
5.75328
9.3289
13.6117
16.7174
11.5816
-42.698
-41.544
-39.1712
-36.93
-33.8219
-0.349411
0.194961
1.09223
2.36324
3.9633
5.56174
7.51101
6.31849
-5.06471
-25.7762
-44.4521
-45.1131
-37.2196
-34.3005
-42.2664
-43.8536
-42.0114
-43.8466
-41.1031
-36.6241
-34.1712
-31.6038
1.63854
1.54173
-0.0266737
-1.48082
-9.84745
-21.4709
-29.5388
-31.6643
-31.2886
-32.1002
-35.1299
-39.448
-41.8579
-41.2481
-37.41
-34.7303
-32.169
-29.8214
-1.43104
-3.55093
-7.50431
-12.9577
-18.9969
-23.6015
-26.0819
-27.5717
-29.2481
-31.523
-34.0159
-35.6497
-35.5273
-34.0416
-31.8166
-29.6022
-27.5864
-3.63313
-3.58438
-3.13405
-2.17516
-0.680388
1.15399
4.59584
6.61039
4.54359
-5.19893
-4.71696
-5.00296
-4.96163
-4.53393
-3.8772
-3.50865
-4.27539
-3.63384
-13.909
-33.3311
-62.2904
-56.7282
-40.9312
-34.0732
-34.4533
-37.2023
-43.9413
-41.9012
-5.24029
-6.117
-6.67495
-6.93379
-7.14648
-8.22158
-10.4624
-15.0511
-18.4341
-31.5281
-41.2676
-42.5107
-39.6677
-38.1418
-39.0622
-41.436
-43.167
-42.1872
-5.32324
-6.56512
-7.79493
-8.78701
-9.44721
-10.2698
-12.2313
-15.2719
-19.9115
-26.1561
-32.1334
-36.6166
-38.4254
-39.3279
-39.28
-40.217
-41.4621
-42.1301
-40.3038
-7.38074
-8.85946
-10.4551
-11.9402
-12.9921
-14.1678
-16.2295
-19.0539
-22.602
-26.7991
-31.0344
-34.2204
-35.9998
-36.7263
-37.4962
-38.6742
-39.6689
-39.59
-38.4693
-36.7111
-34.6244
-32.3417
-29.9289
-9.81412
-11.7921
-13.8543
-15.5242
-16.7984
-18.1129
-19.6908
-21.7677
-24.0501
-26.703
-29.4822
-31.9075
-33.6104
-34.6688
-35.5508
-36.4549
-37.0884
-37.3081
-36.4251
-34.9056
-33.0824
-31.1166
-29.0778
-27.0425
-12.3392
-14.596
-16.9993
-18.8499
-20.0297
-21.0267
-22.0484
-23.2147
-24.7729
-26.4861
-28.4114
-30.338
-31.9153
-33.0441
-33.904
-34.6829
-35.1693
-35.2548
-34.5974
-33.301
-31.7267
-30.0202
-28.2434
-26.4547
-14.3284
-16.506
-18.986
-20.9903
-22.1667
-22.8946
-23.5233
-24.1737
-25.0108
-26.144
-27.555
-29.2337
-30.687
-31.7414
-32.4413
-32.9742
-33.4545
-33.6323
-33.1163
-31.9573
-30.5378
-29.0182
-27.4409
-25.8445
-13.9117
-15.491
-17.598
-20.1434
-22.2919
-23.7323
-24.3736
-24.8673
-25.0456
-25.3404
-25.9398
-26.9017
-28.3195
-29.7153
-30.7593
-31.3904
-31.8755
-32.3286
-32.4891
-32.0061
-30.9192
-29.5796
-28.1727
-26.7325
-25.2758
-14.6288
-16.1575
-18.2552
-20.8671
-23.1303
-24.5979
-25.195
-25.4675
-25.5772
-25.6735
-25.9296
-26.5492
-27.64
-28.9988
-30.072
-30.6438
-31.0714
-31.5171
-31.6855
-31.2202
-30.167
-28.8608
-27.5092
-26.1505
-24.7852
-15.0646
-16.5955
-18.705
-21.3507
-23.6546
-25.083
-25.701
-25.9456
-25.9822
-25.9133
-25.9271
-26.2987
-27.1411
-28.4754
-29.6135
-30.1738
-30.5741
-31.0382
-31.2144
-30.7527
-29.7109
-28.4142
-27.0851
-25.7662
-24.4498
-16.8249
-18.9564
-21.6344
-23.9407
-25.3535
-25.9901
-26.2153
-26.1771
-25.987
-25.8403
-26.0337
-26.7265
-28.0392
-29.237
-29.8462
-30.2888
-30.805
-30.9904
-30.5137
-29.4665
-28.1742
-26.8533
-25.548
-24.2494
-16.8235
-18.9599
-21.6458
-23.9587
-25.3794
-26.0179
-26.2642
-26.238
-26.0314
-25.8418
-25.9716
-26.5924
-27.8472
-29.0274
-29.6771
-30.201
-30.8041
-31.0296
-30.5481
-29.4859
-28.1825
-26.8525
-25.5377
-24.2296
-16.6015
-18.7259
-21.3913
-23.7178
-25.1682
-25.7807
-26.0651
-26.1208
-26.0001
-25.8892
-26.0712
-26.7019
-27.8784
-28.9881
-29.6754
-30.3207
-31.0172
-31.3014
-30.8371
-29.7613
-28.434
-27.0759
-25.7262
-24.3805
-18.2876
-20.9323
-23.2373
-24.7422
-25.3571
-25.665
-25.7805
-25.7947
-25.8529
-26.1673
-26.9413
-28.1263
-29.3264
-29.9092
-30.6432
-31.4045
-31.7425
-31.3005
-30.2087
-28.8543
-27.4538
-26.0457
-24.6354
-17.6425
-20.2304
-22.437
-23.9391
-24.6208
-25.1418
-25.3193
-25.5147
-25.8665
-26.4399
-27.4484
-28.6296
-29.8278
-30.5147
-31.3205
-32.087
-32.445
-32.0132
-30.8924
-29.4965
-28.0292
-26.5277
-25.0166
-16.5725
-19.1068
-21.1826
-22.4356
-23.2279
-23.8875
-24.5134
-25.2346
-26.0992
-27.0904
-28.3242
-29.5001
-30.5699
-31.5399
-32.4081
-33.1683
-33.4976
-33.0117
-31.8228
-30.3455
-28.753
-27.1004
-25.4411
-17.1374
-19.0682
-20.3353
-21.3949
-22.428
-23.5429
-24.9726
-26.4107
-27.9382
-29.4602
-30.7953
-31.9575
-33.0524
-33.9778
-34.9265
-35.0897
-34.3715
-33.034
-31.3943
-29.5958
-27.7272
-25.8693
-13.9863
-15.7226
-17.0763
-18.4356
-19.9953
-22.0027
-24.1349
-26.5297
-28.9794
-31.1124
-32.6757
-33.8139
-34.9134
-36.0292
-36.7837
-37.0508
-36.123
-34.527
-32.5927
-30.4957
-28.3406
-26.227
-10.5644
-12.0752
-13.1758
-14.38
-16.41
-19.1497
-22.542
-26.5379
-30.5856
-33.632
-35.3967
-36.2424
-37.1651
-37.5266
-38.2974
-39.3302
-38.1226
-36.2284
-33.9539
-31.4828
-28.9267
-26.4595
-7.90044
-8.89377
-9.56799
-10.4
-12.3313
-15.2977
-19.7653
-25.8204
-31.8207
-36.2661
-38.164
-38.0349
-38.5927
-39.5283
-40.4611
-40.7164
-39.8683
-37.8563
-35.3305
-32.5733
-29.5261
-26.5293
-6.2813
-6.86138
-7.14841
-7.39033
-8.48237
-10.7072
-15.0024
-21.4757
-31.0331
-38.2205
-40.5766
-39.9884
-39.5621
-40.5177
-41.845
-42.543
-41.2315
-39.5255
-37.2253
-33.3437
-30.2448
-26.9067
-5.35452
-5.35431
-4.97673
-4.36748
-4.05238
-5.00653
-9.49715
-16.5817
-32.5247
-46.6104
-46.8918
-40.3963
-37.7526
-38.7454
-41.519
-43.3202
-41.9206
-40.5284
-38.7885
-35.7346
-29.871
-25.4084
-4.13197
-3.67356
-2.72373
-1.25171
0.545054
0.0716753
0.168108
-9.60819
-35.5476
-81.3203
-73.0036
-43.0982
-34.3763
-35.0083
-38.4558
-47.1375
-42.8914
-39.7274
-39.3423
-38.1925
-35.803
-31.5345
-3.24375
-2.42663
-0.952416
1.41615
4.94639
7.26679
12.536
6.75409
-41.3375
-40.6732
-39.3922
-35.5421
-2.51882
-1.48688
0.271769
3.07179
7.45145
12.0256
22.5824
30.5724
-41.9891
-40.8028
-40.0298
-36.4176
-0.929797
-0.0311917
1.49121
3.86878
7.42349
11.5837
20.7889
29.2209
-42.8072
-38.9919
-35.8631
-32.9546
0.139144
0.695324
1.67757
3.16495
5.19526
7.70726
11.5881
9.35005
-5.13625
-65.038
-62.8526
-35.7891
-24.8977
-24.2525
-31.2685
-61.8344
-73.5325
-57.2237
-43.5695
-37.8945
-32.8266
-30.3791
2.12041
2.24387
0.864305
-1.19458
-13.3514
-27.8609
-33.055
-30.5948
-28.3491
-29.1526
-32.8863
-40.4128
-47.9945
-47.4114
-41.3637
-34.2803
-31.2371
-28.773
-1.47677
-3.76223
-8.33128
-14.7083
-21.1625
-24.8874
-26.1295
-26.9923
-28.5883
-31.1919
-34.5959
-37.4352
-37.5668
-34.9852
-31.8425
-29.0872
-26.8457
-3.89967
-4.00069
-3.57843
-2.51164
-0.763715
1.42569
5.1941
7.20166
0.839989
-4.11389
-4.67585
-4.83405
-4.54511
-3.87815
-3.37727
-4.51048
-5.65951
-19.3392
-49.438
-58.9583
-44.8354
-35.4983
-34.5529
-31.9289
-45.8628
-44.4183
-45.239
-4.74535
-5.77093
-6.4137
-6.83355
-6.62772
-6.17131
-8.11718
-13.4347
-22.8433
-35.5825
-42.5652
-40.8352
-37.3218
-37.1197
-41.5781
-45.6313
-47.4614
-43.8382
-4.73028
-6.17344
-7.90398
-9.2529
-9.80649
-8.07703
-10.0868
-13.4887
-19.19
-27.2956
-35.1692
-39.7334
-40.2063
-39.025
-40.1057
-42.7751
-44.3492
-45.9233
-42.8271
-38.1184
-7.1477
-7.6227
-9.39433
-12.9983
-14.2206
-13.1769
-15.2228
-18.6894
-23.0734
-28.0655
-33.2715
-35.8795
-37.2489
-38.1348
-38.9125
-40.6555
-41.6793
-42.615
-40.3491
-36.6748
-34.108
-31.4711
-28.8421
-8.74194
-11.3896
-13.7295
-15.1922
-16.5248
-18.3561
-19.8779
-23.921
-25.8996
-28.2533
-30.6094
-32.8763
-34.3231
-35.1202
-35.864
-37.6095
-38.7783
-39.5672
-36.8859
-35.099
-32.9835
-30.7171
-28.4803
-26.3797
-11.8324
-14.6181
-17.8741
-19.9706
-20.8658
-21.8385
-22.6773
-23.225
-25.9234
-27.3739
-29.1574
-30.9882
-32.456
-33.3699
-34.1909
-34.6232
-35.9342
-36.7832
-35.0594
-33.4795
-31.6999
-29.7827
-27.8675
-26.032
-14.1913
-16.7149
-20.0939
-22.6657
-23.4709
-24.0854
-24.498
-24.7843
-24.9378
-25.8644
-27.2157
-29.4518
-31.0105
-32.0001
-32.4898
-32.7884
-33.643
-34.2962
-33.6076
-32.1192
-30.4779
-28.795
-27.1211
-25.4955
-14.0109
-15.2123
-17.6156
-21.171
-24.0975
-26.2245
-26.5546
-25.9461
-25.977
-25.7785
-25.9172
-26.5877
-28.2853
-29.9808
-30.982
-31.3607
-31.7938
-32.5511
-33.0647
-32.5393
-31.1132
-29.514
-27.9493
-26.4259
-24.9438
-14.7893
-15.7378
-18.066
-21.7218
-24.8421
-27.0033
-27.4067
-27.2857
-26.8624
-26.2664
-25.8251
-26.0719
-27.3615
-29.3381
-30.4206
-30.619
-31.0124
-31.827
-32.3513
-31.7571
-30.425
-28.8293
-27.2957
-25.8479
-24.4548
-15.1775
-16.0665
-18.3779
-22.0651
-25.2746
-27.4547
-28.0896
-28.0076
-27.5058
-26.7099
-25.9637
-26.0321
-26.7626
-28.8254
-30.0847
-30.1999
-30.5757
-31.4849
-31.9706
-31.3434
-29.9874
-28.3888
-26.8643
-25.4492
-24.103
-16.3182
-18.6231
-22.3355
-25.5519
-27.7266
-28.4168
-28.3458
-27.7618
-26.8028
-25.813
-25.5779
-26.0857
-28.2143
-29.6572
-29.8543
-30.346
-31.3881
-31.8308
-31.1452
-29.7547
-28.1596
-26.6362
-25.2254
-23.8903
-16.388
-18.7126
-22.4598
-25.6942
-27.7434
-28.4123
-28.43
-27.8962
-26.9179
-25.8621
-25.5213
-25.9055
-27.9076
-29.2853
-29.5693
-30.2525
-31.477
-31.9567
-31.2286
-29.804
-28.1901
-26.6533
-25.2281
-23.8786
-16.2161
-18.5399
-22.2605
-25.5091
-27.574
-27.9783
-28.1954
-27.7972
-26.9518
-26.0172
-25.7462
-26.0794
-27.7767
-28.8483
-29.3907
-30.3084
-31.6513
-32.254
-31.5613
-30.1376
-28.4896
-26.9187
-25.4554
-24.0642
-18.2473
-21.9564
-25.1578
-27.1884
-27.5739
-27.5909
-27.2521
-26.5848
-25.8357
-25.5158
-26.1923
-27.7662
-28.9372
-29.5661
-30.5778
-31.9043
-32.6486
-32.0226
-30.6121
-28.9355
-27.3246
-25.8023
-24.3433
-17.9133
-21.561
-24.6057
-26.5049
-26.8945
-26.9954
-26.935
-26.5345
-26.1481
-25.9681
-26.7816
-28.0368
-28.8926
-30.1008
-31.1459
-32.3571
-33.1716
-32.7014
-31.2124
-29.5376
-27.896
-26.2931
-24.7389
-17.2551
-20.8148
-23.7274
-24.8502
-25.4664
-25.648
-25.9597
-25.9212
-26.0962
-26.4089
-27.9326
-28.9566
-29.8836
-31.1285
-32.1475
-33.227
-34.1489
-33.5638
-32.0601
-30.3745
-28.622
-26.8665
-25.1669
-19.3441
-21.7922
-22.7548
-23.6712
-24.3819
-24.7413
-26.4308
-27.4856
-28.5661
-29.5847
-30.5492
-31.5538
-32.9384
-33.6766
-34.567
-35.5079
-34.855
-33.2803
-31.4692
-29.4751
-27.4705
-25.5596
-16.1363
-18.228
-19.5106
-20.8721
-21.997
-24.3938
-26.1833
-28.1454
-29.8798
-31.5512
-32.6739
-33.6335
-34.81
-35.5572
-36.6841
-37.7028
-36.5628
-34.7738
-32.6221
-30.2638
-27.9252
-25.7441
-11.9257
-13.1651
-14.5029
-16.6153
-18.4778
-21.3891
-24.3838
-27.7207
-32.6543
-34.9044
-36.1282
-35.8152
-36.7923
-38.5362
-39.7292
-40.4365
-38.6757
-36.3073
-33.675
-30.9019
-28.1473
-25.6345
-7.92625
-9.38528
-9.98923
-11.3746
-13.2108
-16.6848
-21.7048
-27.8214
-33.6476
-37.1586
-38.2696
-38.0737
-39.4179
-41.6753
-42.7456
-43.82
-40.8768
-37.7984
-34.5069
-31.3585
-28.0395
-25.0514
-5.8891
-6.58201
-7.0131
-6.84821
-8.68594
-11.2835
-16.2166
-25.4061
-35.281
-40.8596
-40.7712
-38.6762
-39.5261
-42.8906
-44.0291
-46.4946
-43.0484
-39.7668
-36.3989
-31.9353
-28.0595
-24.5462
-4.96511
-5.12192
-4.82103
-4.13415
-3.54514
-6.10971
-10.1306
-20.2247
-37.1969
-46.6804
-42.6927
-36.6855
-36.6987
-40.7273
-45.9519
-47.1562
-44.3377
-42.3089
-39.4613
-34.1972
-27.3548
-24.3393
-4.32004
-3.89722
-2.84014
-1.09256
1.13538
0.465852
-0.93267
-15.5949
-66.8327
-77.324
-50.4221
-35.9771
-35.5093
-34.049
-41.5226
-43.4876
-44.0314
-42.2848
-40.8898
-37.2094
-32.9172
-28.4372
-3.20619
-2.31766
-0.625614
2.21373
6.6635
9.8402
16.3087
3.54506
-41.5794
-44.4666
-41.7967
-34.5163
-1.72125
-0.705061
1.19033
4.49016
10.1902
17.6009
30.6941
-47.9091
-43.6296
-34.1586
-0.250509
0.579721
2.17411
4.93425
9.5606
17.1257
31.9529
51.5355
-61.2938
-40.1763
-37.2148
-29.9236
0.483219
0.991829
2.00294
3.66635
6.10664
10.2293
16.3226
16.8626
-30.0984
-81.0193
-58.5653
-24.8466
-23.7268
-23.7908
-22.0649
-35.1609
-108.593
-111.974
-52.8108
-38.6998
-31.3082
-28.3451
2.24988
2.36956
3.79859
-1.9751
-18.1347
-33.3854
-33.7355
-27.9498
-26.7295
-27.5836
-30.6003
-38.4113
-52.1288
-56.007
-46.1289
-34.4663
-30.3253
-27.4283
-1.86696
-4.51289
-9.36101
-16.5728
-23.0241
-25.63
-25.9285
-26.5493
-28.1583
-30.8954
-34.75
-38.7456
-39.6461
-36.347
-32.0603
-28.5479
-25.965
-4.39927
-4.43643
-3.90764
-2.65391
-0.662676
1.92493
7.07989
8.49747
-13.4765
-4.69464
-5.21381
-5.15704
-4.398
-3.36268
-1.86484
-1.13005
-3.30575
-15.1762
-41.6555
-61.497
-47.8788
-36.4348
-36.9268
-33.9299
-52.1285
-52.0612
-46.9823
-43.3662
-4.79635
-6.03261
-6.29908
-6.17137
-5.58354
-5.32616
-6.10865
-10.4036
-23.1243
-38.8593
-50.7879
-46.9917
-39.4064
-38.4418
-47.1058
-51.7229
-44.0255
-40.4883
-3.03144
-5.13984
-7.78207
-7.13694
-7.5574
-8.66599
-10.0845
-14.4799
-24.4356
-34.1772
-45.6307
-47.4407
-44.3255
-40.5398
-42.7053
-52.0731
-45.5894
-51.8574
-44.4081
-38.438
-4.70412
-6.91413
-9.95214
-11.7451
-12.5469
-14.6424
-18.7374
-24.1945
-29.919
-34.8017
-37.5376
-37.5986
-37.9686
-38.2522
-39.8155
-42.5062
-41.2405
-46.3688
-41.4775
-36.1692
-33.1707
-30.5589
-28.024
-11.7029
-16.5873
-18.9513
-20.2383
-22.4967
-24.4585
-25.5962
-27.6665
-30.2308
-31.9362
-33.7271
-34.5632
-35.4542
-36.2265
-37.5671
-38.6042
-42.541
-38.8664
-34.1369
-32.0831
-29.94
-27.8176
-25.8675
-17.3508
-23.436
-24.7984
-24.8453
-25.9067
-26.5426
-26.7146
-26.9217
-27.7447
-29.4686
-31.5294
-33.3402
-33.6551
-34.4605
-35.1342
-36.0761
-39.0379
-36.3741
-33.0821
-31.2909
-29.3633
-27.4691
-25.7036
-15.9228
-18.6335
-24.5486
-27.77
-27.2162
-27.369
-27.4807
-27.1562
-26.6094
-26.6482
-27.8403
-29.9166
-31.5759
-32.3678
-32.5281
-33.1068
-34.0299
-36.0699
-34.6253