/*--------------------------------*- C++ -*----------------------------------*\
  =========                 |
  \\      /  F ield         | OpenFOAM: The Open Source CFD Toolbox
   \\    /   O peration     | Website:  https://openfoam.org
    \\  /    A nd           | Version:  13
     \\/     M anipulation  |
\*---------------------------------------------------------------------------*/
FoamFile
{
    format      ascii;
    class       volScalarField;
    location    "1000";
    object      nut;
}
// * * * * * * * * * * * * * * * * * * * * * * * * * * * * * * * * * * * * * //

dimensions      [0 2 -1 0 0 0 0];

internalField   nonuniform List<scalar> 
169916
(
0.0121402
0.0108763
0.00990761
0.00925622
0.00896079
0.00905655
0.00959003
0.0105933
0.012049
0.0139592
0.0164222
0.018186
0.0181785
0.0181698
0.0101881
0.00890883
0.00791863
0.00724095
0.0069936
0.00729691
0.00786346
0.00877262
0.0100773
0.0118272
0.0140477
0.0164924
0.0164884
0.0164801
0.00853346
0.00725281
0.00625503
0.00559501
0.00545293
0.00511932
0.0056859
0.00654306
0.00778161
0.00940783
0.0113276
0.0135028
0.0136173
0.0134101
0.0129009
0.0125677
0.0122897
0.012018
0.0117357
0.0114467
0.0111433
0.0106903
0.00876437
0.00716352
0.00589092
0.00493702
0.00445503
0.00401397
0.00499043
0.00408033
0.00431816
0.00521873
0.00672866
0.00853372
0.00795163
0.00794352
0.00743888
0.00703861
0.00708434
0.00680841
0.00642667
0.00606081
0.00572305
0.00541683
0.00514328
0.00774331
0.00608624
0.00478766
0.00401109
0.00356279
0.00365729
0.00259002
0.00260183
0.00305019
0.00396368
0.00552383
0.00533073
0.00523366
0.00514827
0.00344094
0.00331722
0.00320478
0.00309902
0.00300479
0.00292451
0.00285915
0.0028088
0.00277304
0.00713874
0.00534379
0.00395167
0.00307555
0.00301409
0.00228842
0.00221933
0.00192132
0.00190314
0.0022905
0.0026457
0.00219701
0.00217414
0.00220532
0.00209757
0.00210389
0.0021181
0.00214686
0.00219147
0.0022467
0.00231213
0.00238697
0.0024704
0.00256157
0.00705296
0.00507655
0.00364163
0.0029378
0.00195714
0.00166089
0.00201744
0.00135918
0.0017378
0.00146742
0.00149985
0.00137901
0.00198873
0.00195978
0.00205024
0.00226531
0.00234905
0.00244674
0.00255562
0.00267309
0.00279856
0.00293128
0.00307091
0.00321659
0.00336144
0.00760211
0.00533838
0.00362822
0.00288348
0.00164387
0.00112938
0.00087192
0.000766393
0.000374354
0.00035705
0.000993882
0.00156428
0.00211793
0.00239114
0.00264237
0.00283107
0.00301538
0.00320075
0.00338976
0.00358359
0.00378149
0.00398196
0.00418309
0.00438269
0.00896051
0.00630177
0.00423773
0.00448866
0.00200694
0.0014277
0.00205171
0.000791875
0.0015437
0.00195497
0.00220669
0.0016057
0.00305739
0.00360091
0.00403362
0.00385497
0.00408516
0.00431613
0.00454728
0.00477736
0.00500439
0.00522674
0.00544303
0.00565208
0.00585304
0.00604545
0.0113203
0.00820129
0.0056816
0.00430052
0.00428139
0.00294161
0.0028726
0.00278558
0.00255921
0.0020662
0.002051
0.00239953
0.00272187
0.00312375
0.00413714
0.00481175
0.0051984
0.00548177
0.00568405
0.00583949
0.00599789
0.00613831
0.00626696
0.00638765
0.00650003
0.00659767
0.0147131
0.0109499
0.00812438
0.00631922
0.00505206
0.00519061
0.00585787
0.00377286
0.00319566
0.00288305
0.00284794
0.00301584
0.00413934
0.00497402
0.00585536
0.00678164
0.0074197
0.00775956
0.00789552
0.00789979
0.00783203
0.00773956
0.0076484
0.00756541
0.00748606
0.00739979
0.018756
0.0139522
0.0105355
0.00836146
0.00697421
0.00615616
0.00538654
0.00495819
0.00479979
0.00506971
0.00552356
0.00613956
0.00663609
0.00785797
0.00942462
0.0107811
0.0116174
0.0119366
0.0118594
0.0115293
0.0110877
0.0106261
0.0101805
0.00976013
0.00936848
0.00900614
0.0192321
0.0164772
0.0123839
0.00980638
0.00816747
0.00706992
0.00631381
0.00594899
0.0059678
0.00649001
0.00746548
0.00878179
0.0103918
0.0122987
0.0140235
0.0151526
0.0156451
0.0156164
0.0151835
0.0145043
0.0137351
0.0129781
0.0122744
0.0116373
0.0110749
0.0105873
0.0191933
0.0180944
0.0135827
0.0108133
0.00908862
0.00798152
0.00730773
0.00702578
0.0072216
0.00798113
0.00946353
0.0116252
0.0139608
0.0160426
0.0175897
0.018494
0.0185402
0.0182547
0.0173656
0.0163049
0.0152675
0.014342
0.0135528
0.012899
0.0123657
0.01195
0.019182
0.0184559
0.0140518
0.0113715
0.00973287
0.00875405
0.00827285
0.00824004
0.00869296
0.00968944
0.0114837
0.0142562
0.0175544
0.0188737
0.018901
0.0189272
0.0189556
0.0189882
0.0187706
0.0174336
0.016311
0.0154137
0.014725
0.0142173
0.0138749
0.0191932
0.0176168
0.0137919
0.0114589
0.0100874
0.00937262
0.00916865
0.0094264
0.0101124
0.0112287
0.0130601
0.0159516
0.0190917
0.0191159
0.0191372
0.0191601
0.0191869
0.0192187
0.0186737
0.0176685
0.0168935
0.0163341
0.0159787
0.0158371
0.0159145
0.0192224
0.0160843
0.0129918
0.0111367
0.0101376
0.00976642
0.00990589
0.0104892
0.0114316
0.0126833
0.0144727
0.0171584
0.0192226
0.0192431
0.0192615
0.0192815
0.0193044
0.0193304
0.0193584
0.0193245
0.0190323
0.0189101
0.0189876
0.0193107
0.0194925
0.0144174
0.0119486
0.0105446
0.0099323
0.00993034
0.0104242
0.0113006
0.0124187
0.0137048
0.0153294
0.0175633
0.019261
0.0192794
0.0192939
0.0193077
0.0193215
0.0193349
0.0193472
0.0193574
0.0193655
0.0193715
0.0193754
0.0193778
0.0193792
0.0109635
0.00987417
0.00957446
0.00990441
0.0107147
0.0118284
0.0130543
0.014335
0.0157871
0.0176418
0.0192248
0.0192378
0.0192439
0.0192459
0.019245
0.0192414
0.019235
0.0192258
0.0192146
0.0192024
0.0191904
0.0191794
0.0191702
0.0102503
0.00934628
0.00921717
0.00977246
0.0108169
0.012113
0.0134242
0.0146915
0.016025
0.0176762
0.0191539
0.0191592
0.019155
0.0191449
0.0191307
0.0191133
0.0190932
0.0190709
0.0190473
0.0190241
0.0190022
0.0189826
0.0189663
0.00906385
0.00901261
0.00967557
0.0108427
0.0122429
0.0136151
0.0148788
0.0161382
0.017667
0.0190963
0.0190958
0.0190845
0.0190665
0.0190441
0.0190184
0.0189903
0.0189602
0.0189296
0.0188996
0.0188714
0.0188459
0.0188242
0.00906791
0.00901977
0.00968605
0.0108555
0.0122564
0.0136301
0.0148981
0.0161663
0.0177099
0.019098
0.0190973
0.0190858
0.0190675
0.0190449
0.0190191
0.0189908
0.0189606
0.0189297
0.0188994
0.0188708
0.0188449
0.0188228
0.00935446
0.00923365
0.0097986
0.0108521
0.0121564
0.01348
0.0147706
0.0161435
0.0178582
0.0191563
0.0191603
0.0191547
0.0191432
0.0191278
0.0191094
0.0190884
0.0190654
0.0190413
0.0190175
0.0189952
0.0189753
0.0189586
0.0189464
0.00988193
0.00959133
0.00993179
0.0107532
0.0118791
0.0131246
0.0144397
0.0159498
0.0179111
0.0192267
0.0192373
0.019241
0.0192407
0.0192375
0.0192318
0.0192236
0.019213
0.0192007
0.0191879
0.0191754
0.0191641
0.019155
0.0191489
0.010547
0.00994307
0.00995043
0.0104566
0.0113507
0.0124975
0.0138269
0.0155061
0.0178517
0.019263
0.0192787
0.0192905
0.0193014
0.0193122
0.0193226
0.0193322
0.0193402
0.0193464
0.0193512
0.0193547
0.019357
0.0193588
0.0193608
0.0111307
0.0101399
0.00977714
0.00992923
0.0105343
0.0115114
0.0128128
0.0146743
0.0174821
0.0192267
0.0192448
0.0192607
0.019278
0.0192981
0.0193212
0.0193466
0.0193732
0.0193996
0.0192879
0.019296
0.0194667
0.0194811
0.0194904
0.0100786
0.00937108
0.00917806
0.00945312
0.0101673
0.0113269
0.0132157
0.0161963
0.0190966
0.0191191
0.0191385
0.0191593
0.019184
0.0192135
0.0192204
0.0181436
0.0173094
0.0167003
0.0163077
0.0161257
0.0161631
0.0164546
0.0170489
0.00971832
0.0087481
0.00827677
0.00825249
0.00871607
0.00972882
0.0115311
0.0142984
0.0175841
0.0188787
0.0189059
0.0189316
0.0189591
0.0189906
0.0190271
0.0177145
0.0165636
0.0156398
0.0149256
0.0144019
0.0140378
0.013862
0.0139118
0.00907478
0.00797903
0.00731694
0.00702176
0.00722333
0.00797558
0.00940622
0.0114607
0.0136593
0.0156148
0.0170988
0.0180136
0.0182954
0.0179644
0.0171915
0.0162248
0.0152513
0.014365
0.0135963
0.0129492
0.0124192
0.0119968
0.0116959
0.00815428
0.00707351
0.00634826
0.00584886
0.00589124
0.00641962
0.00734206
0.00853722
0.00997116
0.0116635
0.0132216
0.0142893
0.0148127
0.0148657
0.0145383
0.013969
0.0133008
0.0126245
0.0119799
0.0113824
0.0108429
0.0103689
0.00994406
0.00478133
0.00504471
0.00546156
0.00600062
0.00641486
0.00749155
0.00884163
0.00999958
0.010739
0.0110565
0.0110299
0.010769
0.0103957
0.00999177
0.00959254
0.00920981
0.00885011
0.00851583
0.00820463
0.00388187
0.00372875
0.00380368
0.0040036
0.00414982
0.00496587
0.00576056
0.00658187
0.00714458
0.00745419
0.00758876
0.00760723
0.00756064
0.00748967
0.0074175
0.00735124
0.00728806
0.00721975
0.00713411
0.00246426
0.00236281
0.0025381
0.00313244
0.00369186
0.00429288
0.00498592
0.00538756
0.00566448
0.00588989
0.0061152
0.00629076
0.00641317
0.00651293
0.00663227
0.00674022
0.00683157
0.00689378
0.00210082
0.00230487
0.0031012
0.00348687
0.00399072
0.00390233
0.00415537
0.00440519
0.00465107
0.00489218
0.00512695
0.00535397
0.00557213
0.00578059
0.00597883
0.00616664
0.00634425
0.00129448
0.00213095
0.00251113
0.00289059
0.00261437
0.0028159
0.00301594
0.00321391
0.00341356
0.00361634
0.00382179
0.00402836
0.00423422
0.00443753
0.00463647
0.00482977
0.00138231
0.00205481
0.00220549
0.00227736
0.00235486
0.00245059
0.00255988
0.00268003
0.0028085
0.00294421
0.00308644
0.00323468
0.00338827
0.00354
0.00369071
0.00206943
0.00207823
0.00209271
0.00212198
0.00216749
0.00222512
0.00229323
0.00237091
0.00245718
0.00255116
0.00265209
0.0027583
0.00286876
0.0119494
0.0106885
0.00974325
0.00916266
0.009014
0.00929125
0.0100051
0.0111328
0.0125705
0.0141962
0.0159611
0.0178923
0.0180671
0.0180725
0.00989633
0.00860957
0.00763726
0.00712716
0.00723818
0.00763039
0.00830704
0.00931831
0.010622
0.0120629
0.0134545
0.0146503
0.0156963
0.016063
0.00812248
0.0068202
0.00587528
0.00561659
0.00515283
0.00543869
0.0061324
0.00718506
0.00849426
0.00975185
0.0106925
0.011068
0.0107591
0.0107715
0.0108982
0.011129
0.0113786
0.0115809
0.0117473
0.0118633
0.0119143
0.0118935
0.00824751
0.0066107
0.00529808
0.00457996
0.00408804
0.00514027
0.00371543
0.00393764
0.00471355
0.00607649
0.00783151
0.00784877
0.00789995
0.00636289
0.00647274
0.00661486
0.00669591
0.00672187
0.00665789
0.00654191
0.00639413
0.00623047
0.00606249
0.00708677
0.00536593
0.00413634
0.00337772
0.00356381
0.00242175
0.00255146
0.00292341
0.00361504
0.00331477
0.00323728
0.00327175
0.00337363
0.00352997
0.00295054
0.00305274
0.00311344
0.0031366
0.00314271
0.00313475
0.00312466
0.00311687
0.00311405
0.00634419
0.00445487
0.0032101
0.00303533
0.00195073
0.00170653
0.00169669
0.00156271
0.00147607
0.00150758
0.00152574
0.00158685
0.0017294
0.0018797
0.00199335
0.00209467
0.00214615
0.00220411
0.00227045
0.00234432
0.00242671
0.00252002
0.00262447
0.00273912
0.0060613
0.0043175
0.0035591
0.0020131
0.00144108
0.00144264
0.000357182
0.000945386
0.00187321
0.00210914
0.00219246
0.00222944
0.00238241
0.00255293
0.00274179
0.00294486
0.00315889
0.00338004
0.00360425
0.00382687
0.00636198
0.00441765
0.00362566
0.00185478
0.0014522
0.000778916
0.00153322
0.00171034
0.00191725
0.00251226
0.00281409
0.00312958
0.00345133
0.00377762
0.00410051
0.00441369
0.00469787
0.00486848
0.00757715
0.00489944
0.00338253
0.00282554
0.00157078
0.00113357
0.00044707
0.000927381
0.00166988
0.00202777
0.00275106
0.00313088
0.00352703
0.00391892
0.00425081
0.00447941
0.00471893
0.00496089
0.00519607
0.00541389
0.00560414
0.00978597
0.00674783
0.00476545
0.00388535
0.00259503
0.00232974
0.00301091
0.00237461
0.0018523
0.00180217
0.00180874
0.00141565
0.00173325
0.00233405
0.00293601
0.003545
0.00351736
0.00364666
0.00384352
0.00407088
0.00430271
0.00452826
0.00474444
0.00494831
0.00513607
0.00530126
0.0131401
0.00954497
0.00692171
0.00555339
0.00539229
0.00469641
0.00426903
0.0039727
0.00328555
0.00305126
0.00297836
0.00291937
0.00322246
0.00391212
0.00576024
0.00650862
0.00622903
0.0057414
0.00541046
0.00521803
0.00523303
0.00526526
0.00531129
0.00536454
0.00541665
0.00545826
0.0174481
0.0128846
0.00972081
0.00785272
0.00665328
0.00606446
0.00543527
0.00454279
0.00417829
0.00444176
0.00509905
0.00616277
0.00730615
0.00899984
0.0106357
0.0117329
0.0116293
0.0112539
0.0104124
0.00968092
0.00901865
0.00839393
0.00781978
0.0073821
0.00700301
0.00667566
0.0192488
0.0159031
0.0119816
0.00956374
0.00808155
0.00699662
0.0062102
0.00546143
0.00547342
0.00617846
0.00747385
0.00970262
0.0117235
0.0144222
0.0166662
0.0165956
0.0165101
0.0163992
0.0160718
0.0147785
0.0135638
0.0124627
0.0114702
0.0105825
0.00980665
0.00912893
0.0192088
0.0177893
0.0133809
0.0106682
0.00896651
0.00779645
0.00706166
0.00680008
0.00713956
0.00812778
0.0100897
0.0127987
0.0159296
0.0181378
0.0181247
0.0181011
0.0180655
0.0180141
0.017942
0.0170639
0.0156504
0.0144436
0.0134192
0.0125473
0.0117946
0.0111661
0.019202
0.0180528
0.0138064
0.0111949
0.00956768
0.00854415
0.00808855
0.00808078
0.00854172
0.00953413
0.0116228
0.0151093
0.0187393
0.0187467
0.0187457
0.0187395
0.0187282
0.0187099
0.0186806
0.0176395
0.016314
0.0152699
0.0144532
0.0138101
0.0132532
0.0192219
0.0169247
0.0133558
0.0111601
0.0098614
0.00918069
0.00899618
0.00931836
0.0100077
0.0111639
0.0132083
0.016756
0.0190324
0.019039
0.0190407
0.0190399
0.0190362
0.0190268
0.0181654
0.0170986
0.0162143
0.0155561
0.0151138
0.01488
0.0147824
0.0192611
0.0151543
0.0123536
0.0106869
0.00982165
0.0095627
0.00980987
0.0105519
0.0116015
0.0127785
0.0144766
0.0174939
0.0191415
0.0191419
0.0191385
0.0191336
0.0191269
0.0191163
0.0187636
0.0182165
0.0178306
0.0176191
0.0176394
0.0179062
0.0182546
0.0133611
0.0111681
0.0099634
0.00952779
0.009712
0.0104056
0.0115083
0.0127685
0.0139843
0.0154414
0.0177049
0.019075
0.019061
0.0190415
0.0190185
0.018992
0.0189606
0.0189233
0.0188797
0.0188306
0.0187757
0.0187169
0.0186567
0.0185982
0.0101086
0.00920386
0.00909714
0.0096786
0.0107845
0.012195
0.0135563
0.0147693
0.0160036
0.0177001
0.0188232
0.0187806
0.0187307
0.0186761
0.0186176
0.0185556
0.0184907
0.0184243
0.0183573
0.0182922
0.0182307
0.0181753
0.0181285
0.00935234
0.00860683
0.00868465
0.00951596
0.0109248
0.0125999
0.0140819
0.0152879
0.01638
0.0177863
0.0185106
0.0184391
0.0183621
0.0182826
0.0182014
0.0181196
0.0180379
0.0179578
0.0178818
0.0178105
0.0177453
0.0176886
0.0176428
0.00830501
0.00845192
0.00938942
0.0109465
0.0127735
0.0143937
0.0156083
0.01658
0.0177707
0.0182556
0.0181571
0.0180562
0.0179557
0.0178557
0.0177571
0.0176607
0.017569
0.0174832
0.0174035
0.0173309
0.0172681
0.0172178
0.00830939
0.0084601
0.00940184
0.0109605
0.0127847
0.014403
0.0156206
0.0165995
0.0178018
0.018261
0.0181626
0.0180619
0.0179614
0.0178614
0.0177628
0.0176664
0.0175741
0.0174873
0.0174063
0.0173322
0.0172679
0.0172162
0.00861481
0.00870367
0.009548
0.010967
0.0126467
0.0141398
0.0153711
0.016506
0.0179798
0.0185131
0.0184402
0.0183617
0.0182809
0.0181986
0.0181156
0.018033
0.0179526
0.0178758
0.0178038
0.017738
0.0176807
0.0176343
0.0176005
0.00920994
0.00911457
0.00970815
0.010825
0.0122431
0.0136223
0.0148737
0.0161776
0.0179979
0.0188229
0.0187778
0.0187254
0.0186684
0.0186078
0.018544
0.0184778
0.0184104
0.0183437
0.0182786
0.0182172
0.0181621
0.0181158
0.0180803
0.00996348
0.00953667
0.00972922
0.0104346
0.011555
0.0128532
0.0141198
0.015629
0.0180142
0.0190722
0.0190546
0.0190311
0.0190041
0.0189736
0.0189388
0.0188989
0.0188537
0.0188041
0.0187512
0.0186948
0.0186378
0.0185829
0.0185327
0.010679
0.00982253
0.00956927
0.00982787
0.0105947
0.0116913
0.012936
0.0147143
0.0178734
0.019146
0.0191442
0.0191384
0.0191309
0.0191216
0.0191089
0.0190905
0.0187588
0.0182983
0.0180135
0.017963
0.0181634
0.0184665
0.0186609
0.00984816
0.00917242
0.00899755
0.0093398
0.0100671
0.011267
0.0133726
0.0170497
0.0190379
0.0190434
0.0190444
0.0190434
0.0190403
0.0190329
0.0188502
0.0177007
0.0167338
0.0160039
0.0155064
0.0152229
0.0150766
0.015135
0.015468
0.00954958
0.00853513
0.00809007
0.00808341
0.00856275
0.00957739
0.0116648
0.0151262
0.0187444
0.0187528
0.0187527
0.0187475
0.0187378
0.018722
0.018697
0.0181351
0.0167381
0.0156382
0.0147717
0.0140978
0.0135028
0.0130718
0.0128345
0.00895142
0.00779942
0.00706703
0.00672455
0.00706998
0.00807285
0.00997838
0.0125356
0.0154548
0.0181249
0.0181152
0.018094
0.0180605
0.0180113
0.0179423
0.017178
0.0158025
0.0146044
0.013569
0.012673
0.0118935
0.0112332
0.0106771
0.008063
0.00701065
0.0061509
0.00565796
0.00534086
0.00606554
0.00731477
0.00945707
0.0112404
0.0135737
0.0160063
0.0165393
0.016446
0.0162096
0.0151092
0.0139723
0.0128952
0.0118981
0.0109798
0.0101429
0.00939959
0.00874586
0.00817151
0.0041771
0.00439935
0.00500188
0.00589735
0.00684011
0.00831859
0.00942238
0.0101446
0.010068
0.00975744
0.00910952
0.00852749
0.00801436
0.00755293
0.00714151
0.00677874
0.00646517
0.00619483
0.00595635
0.00366025
0.00358216
0.00379317
0.00384783
0.00411053
0.00494711
0.00556023
0.00627733
0.00598431
0.00559892
0.00532398
0.00511388
0.00506962
0.00509643
0.00513796
0.0051885
0.00524055
0.00528571
0.00531475
0.00278739
0.00268829
0.00259622
0.00244556
0.0029442
0.00385146
0.00387634
0.00367925
0.00381126
0.0040033
0.00421545
0.00442438
0.00462306
0.00481149
0.00498863
0.00515148
0.00529497
0.00540976
0.00174703
0.00183632
0.00187935
0.00157739
0.00224796
0.00256233
0.0028395
0.00321797
0.00360668
0.00398658
0.00434371
0.00459537
0.00481244
0.00502908
0.00523862
0.00543232
0.00560027
0.00573169
0.000703079
0.00146621
0.0017294
0.00209236
0.00258927
0.00288596
0.00319196
0.00350128
0.0038148
0.00412447
0.00442439
0.00471055
0.00496937
0.00511513
0.00523526
0.00144568
0.00191293
0.00199571
0.00229061
0.00244485
0.00261093
0.00279625
0.00299749
0.00321029
0.00342966
0.00365217
0.00387464
0.00409363
0.00430705
0.00185884
0.00206642
0.002125
0.00219052
0.00226218
0.00233823
0.00242408
0.00252171
0.00263086
0.00275024
0.00287819
0.00301301
0.00315347
0.0132329
0.011664
0.0104247
0.00956412
0.00920064
0.0093009
0.00984929
0.0108394
0.0121496
0.0135026
0.0146338
0.0154595
0.0160346
0.0166445
0.0174245
0.0110611
0.0094539
0.00817866
0.00737893
0.00732621
0.00760485
0.00816743
0.00907469
0.0103509
0.0116938
0.0126345
0.0128405
0.0126189
0.0125715
0.01285
0.00914245
0.007507
0.00624762
0.00578704
0.00520948
0.00533597
0.00599111
0.00706377
0.00854959
0.0100855
0.0108562
0.0105476
0.00982921
0.00914068
0.00869731
0.00912025
0.00958348
0.010005
0.0103888
0.0107408
0.0110538
0.0113152
0.0115183
0.00749483
0.00583194
0.00479358
0.00411925
0.00476467
0.00360605
0.00385556
0.00473132
0.00633937
0.0071085
0.00691573
0.00692712
0.00705979
0.0066217
0.00529456
0.00577444
0.00623553
0.00668683
0.0068125
0.00690798
0.00697641
0.00702084
0.00704425
0.00618938
0.00452218
0.00349756
0.00349382
0.00225103
0.00241275
0.00279565
0.00320013
0.0028255
0.00269444
0.00269352
0.0027519
0.0028962
0.00313649
0.00339291
0.00318719
0.00334632
0.00347558
0.00357706
0.00365592
0.00371808
0.00376852
0.00381121
0.00531175
0.0037739
0.0033152
0.00186733
0.00140286
0.00132231
0.00142881
0.000691595
0.00154356
0.00153814
0.00167971
0.00194213
0.00191021
0.00197731
0.00217101
0.00229893
0.00231184
0.00240053
0.00248184
0.00255802
0.0026348
0.00271316
0.00279421
0.00287845
0.00483892
0.00338678
0.00255149
0.00146734
0.00107858
0.000385524
0.00163445
0.00196701
0.00219497
0.0023706
0.00253753
0.00269942
0.00285943
0.00301845
0.00317559
0.0033294
0.00347637
0.004955
0.00349129
0.00242335
0.00139849
0.000735565
0.00133026
0.00251382
0.00416138
0.00427094
0.00448584
0.00472037
0.00493736
0.00513122
0.00530382
0.00545605
0.00558868
0.00596588
0.00409317
0.003084
0.00153587
0.00099152
0.000560832
0.00231112
0.00329878
0.00445391
0.00489466
0.00525002
0.00553513
0.00577066
0.00596887
0.00613897
0.00628902
0.0064274
0.0065598
0.00812993
0.00508904
0.00367257
0.00276801
0.00214803
0.00198764
0.0016177
0.000975851
0.00085808
0.00180777
0.00121625
0.00163059
0.00162914
0.00165801
0.00271312
0.0033453
0.00380883
0.00429015
0.00473562
0.00512218
0.00545092
0.00572764
0.00596313
0.00616834
0.00635603
0.00653325
0.0112826
0.00800918
0.00567216
0.00480265
0.00437906
0.00512432
0.00586636
0.00377336
0.00268975
0.00325441
0.0035207
0.00324154
0.003128
0.00351607
0.00375972
0.00397368
0.00422117
0.0044869
0.00475733
0.00502228
0.00527466
0.00541118
0.00554529
0.00567507
0.00579701
0.0059048
0.015636
0.0114607
0.00866279
0.00729208
0.00658552
0.00624378
0.0055459
0.00468933
0.00308585
0.00332223
0.00426602
0.00688821
0.00703581
0.00680082
0.00667638
0.0065914
0.00650036
0.00640648
0.00608686
0.00542472
0.00493914
0.00460515
0.00450692
0.00454059
0.00459168
0.00465298
0.0192833
0.0148826
0.0112807
0.00911693
0.00793181
0.00685477
0.00606864
0.00550581
0.00417499
0.00442478
0.00604155
0.00946179
0.0131399
0.0127477
0.0124495
0.0121691
0.0118512
0.011473
0.01105
0.0105956
0.00986782
0.00876933
0.00780816
0.00697828
0.00628491
0.0192436
0.0169818
0.0128505
0.010289
0.00864092
0.0074568
0.00637199
0.00574186
0.00592933
0.00672181
0.00875755
0.0127443
0.0167439
0.0164372
0.0161256
0.0157893
0.0154121
0.0149793
0.014492
0.0139225
0.0124684
0.011312
0.0103145
0.00941707
0.00870675
0.0192477
0.0169777
0.0131194
0.0106946
0.00911215
0.00818444
0.00734996
0.0073659
0.00797599
0.00877484
0.0106872
0.0151578
0.0181877
0.0180236
0.0178296
0.017598
0.0173163
0.0169725
0.0165605
0.0153276
0.0140368
0.0130186
0.0121693
0.0115431
0.0108982
0.0192846
0.0153981
0.0123299
0.0104159
0.00927189
0.00872274
0.00862993
0.00934036
0.0102365
0.0106242
0.0124197
0.0169693
0.0187214
0.0186099
0.0184582
0.0182578
0.0179966
0.0169365
0.0155416
0.0147446
0.0140158
0.0134648
0.0130813
0.0128221
0.0125019
0.016837
0.0133234
0.0110244
0.00968514
0.00907262
0.00911814
0.00968797
0.0108953
0.0121133
0.0130283
0.0145178
0.0182208
0.0187161
0.0186216
0.0184937
0.0183342
0.0181401
0.0172441
0.0165279
0.0161742
0.0157907
0.0155428
0.0155022
0.0155704
0.0153402
0.0114512
0.00966353
0.00878159
0.00863865
0.00927902
0.0105134
0.0122464
0.0137754
0.0147765
0.0157924
0.0182252
0.0182533
0.0181229
0.0179791
0.0178189
0.0176372
0.0174309
0.017202
0.0169596
0.0167093
0.0164516
0.0161893
0.0159403
0.0157066
0.00853447
0.00789795
0.00809405
0.00910079
0.0108443
0.0130882
0.0149825
0.0160225
0.0166761
0.017417
0.0172249
0.0170279
0.016832
0.0166361
0.0164396
0.0162422
0.0160467
0.0158595
0.0156853
0.0155199
0.0153654
0.0152302
0.0151184
0.00778678
0.00726351
0.0076303
0.00890376
0.0110862
0.0138058
0.0159652
0.0169513
0.0166972
0.0164349
0.0161763
0.0159342
0.015717
0.0155159
0.0153258
0.015145
0.0149742
0.0148219
0.0146878
0.0145652
0.0144551
0.0143641
0.0142955
0.00695612
0.00736325
0.00873183
0.0111149
0.0140653
0.0163415
0.016308
0.0159546
0.0155919
0.0152502
0.0149508
0.0147001
0.0144782
0.0142758
0.014089
0.0139189
0.0137713
0.0136445
0.0135299
0.0134284
0.0133473
0.0132898
0.00696114
0.0073735
0.00874759
0.0111289
0.0140625
0.0163213
0.0163193
0.0159666
0.0156045
0.015263
0.0149637
0.0147129
0.0144907
0.0142879
0.0141
0.013928
0.0137774
0.0136469
0.0135284
0.0134231
0.0133385
0.013278
0.00727226
0.00765664
0.00895007
0.0111512
0.0138647
0.0160269
0.0169494
0.0166912
0.0164258
0.0161643
0.0159198
0.0157008
0.0154981
0.0153066
0.0151246
0.014954
0.0148014
0.014667
0.0145445
0.0144345
0.014344
0.014276
0.0142278
0.00790383
0.00811594
0.00913887
0.0108957
0.0131279
0.0150369
0.0161088
0.0168842
0.0174054
0.0172104
0.0170112
0.0168138
0.0166171
0.0164207
0.0162246
0.0160312
0.0158486
0.0156783
0.0155168
0.0153661
0.0152348
0.015127
0.01504
0.00877967
0.00864536
0.00929369
0.0105392
0.012282
0.0138682
0.0147534
0.0158908
0.0183393
0.0182166
0.0180788
0.0179289
0.0177645
0.0175822
0.0173796
0.017159
0.016929
0.0166959
0.0164572
0.0162162
0.0159858
0.0157672
0.0155646
0.009678
0.00907342
0.00911928
0.00969754
0.0109287
0.0122171
0.0132256
0.014776
0.0186151
0.0187287
0.0186342
0.018507
0.0183487
0.0181579
0.0178962
0.0170863
0.0166836
0.0162314
0.0159135
0.015811
0.0158128
0.0154217
0.0150556
0.00925374
0.00870348
0.00861795
0.0093465
0.0102989
0.010778
0.0126422
0.017324
0.0187418
0.0186447
0.0185122
0.0183358
0.0181055
0.0178106
0.0162465
0.0153913
0.0145955
0.0140058
0.0135838
0.0132991
0.0129575
0.012836
0.0129965
0.00909054
0.00817269
0.00734803
0.0073181
0.00795968
0.00882967
0.0107745
0.0151767
0.0182119
0.0180651
0.0178906
0.0176814
0.0174264
0.0171133
0.0167337
0.016154
0.014722
0.0136021
0.0126832
0.0120094
0.0113092
0.0108121
0.0104499
0.00862296
0.00747522
0.00631314
0.00583569
0.00582894
0.00665094
0.00867848
0.0125333
0.0167365
0.0164392
0.0161367
0.0158103
0.0154448
0.0150268
0.0145551
0.0139765
0.0125734
0.0114067
0.0104001
0.009519
0.00876784
0.00813436
0.00761297
0.00788382
0.00687696
0.00550765
0.00472533
0.00642447
0.00649844
0.00773028
0.00893411
0.0131526
0.0127194
0.0123802
0.0120659
0.0117216
0.0113332
0.0109102
0.0100592
0.00892978
0.00798505
0.00715665
0.00643101
0.00580567
0.00544034
0.00518367
0.00360213
0.00389615
0.00534369
0.00637941
0.00669135
0.00639731
0.00623827
0.00613232
0.00605701
0.00564015
0.00499425
0.00459703
0.00429649
0.00431415
0.00435455
0.00441286
0.0044837
0.0045612
0.00463397
0.00281172
0.00316811
0.00358636
0.00405466
0.00455251
0.00471928
0.00362205
0.00380167
0.00402002
0.00426224
0.00451546
0.0047689
0.00501623
0.00525231
0.00545178
0.00557572
0.00569379
0.00580046
0.0058878
0.00302722
0.00277551
0.00277891
0.00249926
0.00293108
0.00314688
0.00359561
0.00397852
0.00437619
0.00474859
0.00507801
0.00536351
0.00561154
0.00582971
0.00602526
0.00620637
0.00638046
0.00655351
0.000559917
0.00117082
0.00152654
0.00136545
0.00268806
0.0033336
0.00468705
0.0050626
0.00537085
0.00562031
0.00583076
0.00601321
0.00617381
0.00632033
0.00645717
0.00658886
0.00672063
0.00221773
0.00438021
0.00476395
0.00478273
0.00492945
0.00510472
0.00526688
0.00541384
0.00554786
0.00566996
0.00578061
0.00588038
0.00596998
0.00136767
0.00200144
0.0023424
0.00253388
0.00271903
0.002898
0.00307385
0.0032474
0.00341744
0.00357927
0.00373126
0.00387407
0.0040093
0.00165188
0.00188878
0.00225155
0.00234528
0.00243107
0.00251075
0.00259048
0.00267147
0.00275495
0.00284154
0.00293154
0.00302509
0.0031224
0.0129507
0.0113736
0.0101858
0.00953938
0.00940079
0.00976528
0.0106132
0.0119541
0.0134578
0.0146303
0.0151766
0.0150711
0.0145895
0.0142963
0.0144823
0.0106293
0.00899388
0.00783495
0.00748399
0.00757722
0.00800784
0.00875504
0.0101592
0.0119323
0.0132904
0.0137315
0.0130184
0.0118038
0.0110476
0.0109937
0.00856901
0.00690347
0.00609602
0.00530248
0.00514606
0.00561189
0.00659376
0.00893084
0.0112457
0.010909
0.010899
0.0102878
0.00857281
0.00779624
0.0076329
0.00781006
0.00840444
0.00895088
0.00942787
0.00984762
0.0102113
0.0105146
0.0107579
0.00681246
0.00528404
0.00437289
0.00476583
0.00344765
0.00355867
0.00447134
0.00580867
0.00554835
0.0054498
0.00543412
0.00550151
0.00573874
0.00560576
0.00526717
0.00507822
0.00606201
0.00658298
0.00704115
0.0073396
0.00750269
0.00764759
0.00777695
0.00544749
0.00412107
0.00389729
0.00231585
0.0021789
0.0023836
0.0030441
0.0029691
0.00281639
0.00275595
0.00276941
0.00285554
0.00301731
0.00322389
0.00336135
0.00399666
0.00393275
0.00413206
0.00430423
0.00445456
0.00458853
0.00471018
0.00482231
0.00442624
0.00308194
0.00244208
0.0015023
0.00109806
0.00151841
0.00185031
0.00207357
0.00141382
0.0013915
0.00123118
0.00167976
0.00193022
0.0021319
0.00199464
0.002522
0.00255365
0.00270651
0.00284422
0.0029694
0.00308752
0.00320235
0.00331603
0.00342981
0.00445596
0.00335299
0.00169466
0.00119891
0.000193226
0.000985384
0.00167203
0.00204926
0.00234229
0.00251097
0.00266081
0.00279992
0.00293353
0.00306402
0.00319301
0.00332138
0.00464998
0.00330099
0.00163023
0.00102619
0.000271847
0.00252578
0.00327732
0.00359545
0.00359764
0.00363614
0.00369334
0.00376287
0.00384146
0.00392743
0.00402026
0.0054792
0.00389871
0.00198492
0.0011649
0.00049758
0.00185736
0.00424791
0.00530817
0.00536429
0.00524908
0.00526809
0.00532648
0.00534402
0.00533562
0.00531106
0.00528561
0.00526391
0.00652327
0.00455162
0.00324114
0.00206038
0.00174161
0.00170869
0.000669246
0.00138104
0.0012124
0.00124619
0.0010427
0.00135037
0.00174108
0.00177882
0.00282965
0.00330388
0.00437076
0.00484459
0.00516167
0.00535284
0.00548629
0.00559525
0.00569645
0.00579847
0.00590473
0.00601908
0.00975361
0.00663496
0.00510117
0.00401623
0.00389794
0.00657756
0.00543554
0.00259499
0.00168801
0.00243284
0.00197737
0.00231191
0.00257941
0.0028354
0.00306603
0.00339786
0.00373878
0.00408498
0.0044138
0.00471259
0.00497325
0.00520463
0.00540518
0.00557431
0.00572653
0.00587562
0.0139519
0.010137
0.00778067
0.0067752
0.00677165
0.00699801
0.00553536
0.00276818
0.00174223
0.00201325
0.00265422
0.00257231
0.00255357
0.00266848
0.00280991
0.002977
0.00315497
0.00333399
0.00351089
0.00368607
0.00386066
0.00403671
0.00421585
0.0044033
0.00459654
0.00479451
0.0185729
0.0136186
0.0104317
0.00874213
0.00786539
0.0072712
0.00572221
0.00327865
0.00264327
0.00335334
0.00792764
0.00710115
0.00496695
0.00487364
0.00484221
0.00483859
0.00483939
0.0048369
0.00483141
0.00482658
0.00480327
0.00476711
0.00472678
0.00468899
0.00465974
0.019306
0.0156045
0.0119554
0.00972256
0.00829081
0.00748824
0.00619668
0.00431176
0.00434585
0.00480656
0.00637053
0.0124756
0.00967194
0.00899351
0.00848656
0.00807153
0.00770457
0.00736541
0.00705023
0.00675858
0.00649173
0.00625417
0.00592119
0.00585363
0.00568182
0.0193283
0.0151879
0.0119307
0.00985365
0.00848338
0.00795017
0.00776671
0.00574355
0.00631536
0.00645165
0.00696379
0.011615
0.014219
0.0133512
0.0125678
0.0118262
0.0111052
0.0104043
0.00973641
0.00911829
0.00855398
0.00805792
0.00746637
0.00687695
0.00626188
0.0168101
0.0132357
0.0107904
0.00926526
0.00849521
0.00771027
0.00740966
0.00842854
0.0109778
0.0112772
0.00909171
0.0123738
0.0165661
0.0155969
0.0146176
0.0136421
0.0126377
0.0115992
0.0108007
0.00971412
0.00887183
0.00835455
0.0080177
0.00767427
0.0073433
0.0137691
0.0110553
0.00926398
0.00831451
0.0082221
0.00798845
0.0088645
0.011231
0.0141873
0.0131736
0.0128636
0.0168211
0.0170814
0.0163686
0.0155659
0.0141463
0.0128482
0.0122153
0.011879
0.0116037
0.011297
0.0106368
0.0100262
0.0095042
0.00906742
0.0092265
0.00782406
0.00740017
0.00777315
0.00805656
0.0099287
0.013309
0.0168842
0.0160248
0.0152063
0.0162157
0.0158678
0.015489
0.0150653
0.014581
0.0140249
0.0134103
0.0127761
0.0121806
0.0116434
0.01115
0.0106983
0.0103266
0.00669775
0.00649024
0.00721253
0.00875856
0.0117939
0.0156161