/*--------------------------------*- C++ -*----------------------------------*\
  =========                 |
  \\      /  F ield         | OpenFOAM: The Open Source CFD Toolbox
   \\    /   O peration     | Website:  https://openfoam.org
    \\  /    A nd           | Version:  13
     \\/     M anipulation  |
\*---------------------------------------------------------------------------*/
FoamFile
{
    format      ascii;
    class       volScalarField;
    location    "1000";
    object      omega;
}
// * * * * * * * * * * * * * * * * * * * * * * * * * * * * * * * * * * * * * //

dimensions      [0 0 -1 0 0 0 0];

internalField   nonuniform List<scalar> 
169916
(
18.8078
18.9964
19.2701
19.6364
20.0782
20.5481
20.9901
21.3597
21.6336
21.8083
21.8941
21.9102
21.8747
21.8096
19.0685
19.4163
19.9419
20.6806
21.593
22.5465
23.4577
24.246
24.8417
25.2215
25.4104
25.4598
25.4275
25.3816
19.4073
20.011
20.9829
22.4196
24.2337
26.1311
28.1116
30.0009
31.4727
32.3842
32.8053
32.9803
33.0631
33.1736
33.4789
34.0367
34.8751
36.015
37.4598
39.1902
41.1695
43.3531
19.2618
19.8225
20.8236
22.5424
25.1623
28.6469
29.6272
33.6466
38.8367
43.4213
46.4711
48.0616
63.3985
63.2777
64.8357
67.4507
70.9485
75.1501
79.7765
84.5529
89.1998
93.4654
97.2168
19.4623
20.2712
21.8513
24.7034
29.2874
31.3782
40.8428
57.6221
77.1194
93.4506
102.496
105.859
107.312
109.352
164.453
170.966
176.559
179.975
181.196
180.377
177.854
174.029
169.29
19.5778
20.6331
22.9154
27.4738
30.0847
43.0006
67.0569
131.474
162.83
229.675
265.634
321.019
318.574
326.464
383.086
345.716
311.736
282.228
257.094
235.264
216.431
200.196
186.168
173.995
19.5325
20.6929
23.3504
25.5768
36.6756
68.8477
105.471
272.287
462.36
676.959
733.526
824.976
665.163
512.174
431.124
345.92
297.891
261.978
233.932
211.41
193.027
177.806
165.075
154.32
144.841
19.3069
20.3362
22.9727
25.3215
40.5577
94.056
186.026
782.38
1041.45
956.619
763.278
637.395
429.974
331.882
254.74
224.228
200.002
180.694
165.504
153.352
143.431
135.191
128.247
122.322
18.9755
19.6712
21.5729
22.5258
31.4422
59.7999
93.9194
241.676
332.041
347.107
339.338
266.918
218.717
176.747
153.08
161.274
149.734
140.31
132.578
126.118
120.632
115.926
111.863
108.339
105.282
102.644
18.6583
19.0059
19.9315
21.765
22.7049
27.5578
36.6597
48.9993
58.9594
70.4351
80.1696
83.4433
84.1566
82.7356
84.7487
84.2653
83.3106
82.3016
81.3541
80.4906
79.7057
79.0122
78.4196
77.9347
77.5659
77.3275
18.4257
18.5636
18.9262
19.6395
20.8834
22.2655
22.9939
25.7744
29.2013
33.0821
36.9085
39.9665
40.5841
41.2417
41.8316
42.0079
42.0511
42.1254
42.3054
42.6235
43.0869
43.6861
44.4067
45.2371
46.173
47.2208
18.2774
18.3175
18.4755
18.8045
19.3646
20.1541
21.175
22.3958
23.6923
24.844
25.7474
26.3998
26.885
27.1188
27.1712
27.1392
27.0886
27.0597
27.0772
27.1588
27.3167
27.5604
27.8988
28.3417
28.8987
29.5799
18.1887
18.1866
18.2662
18.4601
18.7954
19.2891
19.9413
20.6903
21.4205
21.9952
22.3778
22.5923
22.6806
22.6814
22.635
22.5693
22.503
22.4488
22.417
22.4152
22.4502
22.5279
22.6538
22.8338
23.0741
23.3804
18.1417
18.1226
18.1696
18.3038
18.5393
18.8782
19.3058
19.7774
20.2122
20.5337
20.7215
20.7972
20.8039
20.7727
20.7222
20.6641
20.6072
20.5593
20.5269
20.5153
20.5279
20.5676
20.6366
20.7365
20.8689
21.0296
18.1266
18.1052
18.1427
18.253
18.44
18.6952
18.9932
19.2942
19.552
19.7335
19.8298
19.8537
19.8327
19.7896
19.7376
19.685
19.6381
19.6016
19.579
19.5721
19.582
19.6092
19.6534
19.714
19.7878
18.1378
18.1253
18.1693
18.2776
18.4451
18.6532
18.8741
19.0767
19.2385
19.3488
19.4044
19.41
19.3828
19.3406
19.2953
19.2537
19.2199
19.1962
19.1833
19.1813
19.1898
19.2082
19.2351
19.2682
19.3058
18.1706
18.1769
18.2411
18.3643
18.5323
18.7193
18.8963
19.0424
19.1494
19.2182
19.2502
19.2481
19.2219
19.1849
19.1469
19.1132
19.0858
19.0651
19.0505
19.0408
19.035
19.0323
19.0316
19.032
19.0329
18.2526
18.3488
18.5011
18.6849
18.8674
19.0227
19.1395
19.2197
19.2695
19.2925
19.291
19.2706
19.2403
19.2076
19.1768
19.1487
19.1229
19.0983
19.0736
19.0484
19.0229
18.9973
18.9715
18.9454
18.4746
18.6658
18.8759
19.0654
19.2127
19.3164
19.3853
19.4283
19.4502
19.453
19.4395
19.414
19.3823
19.3482
19.3131
19.277
19.2395
19.2002
19.1594
19.1186
19.0783
19.0385
18.9994
18.5867
18.8153
19.0546
19.2572
19.4052
19.5048
19.5702
19.6119
19.6357
19.6433
19.6346
19.6109
19.5764
19.5362
19.493
19.4479
19.4011
19.3528
19.3037
19.2551
19.2081
19.1626
19.1189
18.9065
19.1644
19.3765
19.5269
19.626
19.6908
19.7332
19.7595
19.7715
19.7675
19.7466
19.7126
19.6712
19.626
19.5788
19.5298
19.4793
19.4281
19.378
19.3299
19.284
19.2403
18.906
19.1633
19.3747
19.5245
19.6232
19.6876
19.7296
19.7556
19.7671
19.7626
19.7412
19.7067
19.6649
19.6194
19.5718
19.5225
19.4719
19.4208
19.371
19.3233
19.2778
19.2345
18.815
19.0532
19.2543
19.4009
19.4994
19.5637
19.6044
19.6269
19.6331
19.6229
19.5977
19.5619
19.5204
19.476
19.4299
19.3823
19.3334
19.2839
19.2353
19.1883
19.1432
19.0999
19.0588
18.6662
18.8755
19.0637
19.2096
19.3119
19.3795
19.421
19.4412
19.4421
19.4263
19.3984
19.3643
19.3278
19.2903
19.2521
19.2128
19.172
19.1302
19.0886
19.0479
19.0082
18.9693
18.9318
18.5023
18.6857
18.8675
19.0215
19.1367
19.2151
19.2628
19.2837
19.28
19.2573
19.2245
19.1892
19.1555
19.1244
19.0957
19.0685
19.0416
19.0145
18.9875
18.9608
18.9342
18.9077
18.8816
18.366
18.5341
18.7205
18.8964
19.0405
19.1446
19.2103
19.2391
19.2342
19.2054
19.1657
19.1249
19.0882
19.0575
19.0335
19.0157
19.0031
18.9947
18.9897
18.9871
18.9856
18.9849
18.9843
18.4473
18.6555
18.8755
19.0761
19.2348
19.3413
19.3931
19.3957
19.3658
19.3211
19.273
19.2284
19.1911
19.1635
19.1468
19.1405
19.1445
19.1581
19.1803
19.209
19.2419
19.2789
19.3178
18.4422
18.6975
18.9946
19.2938
19.549
19.7272
19.8214
19.8441
19.8222
19.7782
19.725
19.6708
19.6218
19.5827
19.5569
19.5465
19.5524
19.5752
19.6147
19.6702
19.7398
19.8206
19.9172
18.5408
18.8793
19.3046
19.7767
20.2116
20.534
20.7251
20.8055
20.8167
20.7891
20.741
20.6843
20.6282
20.5802
20.547
20.534
20.5446
20.5817
20.6476
20.7443
20.8732
21.0333
21.2158
18.7962
19.2885
19.9331
20.7077
21.4567
22.0444
22.4406
22.6709
22.7741
22.7866
22.7481
22.6882
22.6265
22.5769
22.5498
22.5537
22.5957
22.6819
22.8186
23.0123
23.2701
23.5995
24.0082
23.6992
24.8556
25.7774
26.4706
27.0086
27.2937
27.3908
27.3979
27.3842
27.3937
27.4545
27.5868
27.8048
28.1195
28.5407
29.0789
29.745
30.5503
31.5086
26.1763
28.4728
30.4946
31.9853
40.1497
40.7598
41.3843
41.6489
41.8041
41.9972
42.2949
42.7264
43.2973
43.9972
44.8114
45.7279
46.7421
47.8591
49.0973
45.7833
51.6534
55.4842
56.4403
55.6801
81.2222
80.3409
79.2327
78.2144
77.3163
76.508
75.7952
75.1918
74.7013
74.3137
74.0348
73.8757
73.8572
106.195
157.72
136.873
122.923
113.582
158.304
146.239
136.481
128.531
121.926
116.337
111.554
107.429
103.854
100.75
98.0672
95.7789
352.197
384.728
294.459
232.003
259.183
227.104
201.928
181.707
165.627
152.764
142.287
133.61
126.321
120.125
114.807
110.216
842.813
578.001
459.755
351.357
301.588
264.623
235.84
212.821
193.993
178.368
165.262
154.185
144.767
136.405
129.001
385.848
347.706
312.964
282.927
257.406
235.417
216.453
200.106
185.975
173.707
163.003
153.567
145.176
18.8321
19.0396
19.3441
19.7485
20.2182
20.7041
21.1544
21.5285
21.8055
21.9822
22.0671
22.0787
22.0474
22.0026
19.1277
19.5326
20.1611
21.026
22.0197
23.0895
24.1367
25.0348
25.6935
26.0862
26.2428
26.2494
26.2273
26.1752
19.5426
20.3064
21.5823
23.4057
25.5176
28.1746
31.0321
33.5288
35.2615
36.1184
36.2801
36.2825
36.2385
36.1521
36.0699
36.0184
36.0151
36.0769
36.3932
36.9061
37.5907
38.4276
19.3841
20.1118
21.52
24.0243
27.9694
29.1866
35.2626
44.1849
53.1035
59.3516
62.2411
62.3965
61.7172
76.9931
75.4038
74.1428
73.264
73.0065
73.7142
74.9397
76.4886
78.2143
80.0138
19.674
20.8353
23.2724
28.12
30.6227
45.6262
78.3113
124.738
156.088
168.121
166.729
159.754
151.397
142.64
173.533
167.233
163.426
161.847
160.898
159.722
158.234
156.322
153.98
19.8934
21.5591
25.3413
27.9545
45.3827
100.888
193.378
455.035
523.076
508.194
496.944
428.305
364.256
360.685
328.4
344.022
316.176
291.262
269.014
249.078
231.322
215.705
202.023
190.027
19.9278
21.7376
23.2232
32.9484
71.7701
172.493
1013.69
962.605
668.233
509.615
430.728
358.894
316.655
284.254
258.778
238.119
221.041
206.695
194.486
183.975
19.6929
21.4029
22.8965
34.4943
64.1302
363.662
659.81
505.352
412.646
342.979
306.099
277.696
254.743
235.603
219.553
206.003
194.505
184.717
19.2397
20.5416
23.9145
27.151
54.6429
160.56
1014.45
895.751
573.399
412.932
320.166
282.071
253.972
232.268
214.919
200.757
189.024
179.176
170.823
163.691
157.591
18.8025
19.4058
20.9198
22.1488
28.5833
45.8682
87.2612
230.404
306.216
312.323
301.919
283.749
220.906
204.533
192.892
177.982
171.89
166.162
160.805
155.781
151.104
146.806
142.903
139.397
136.289
133.588
18.4944
18.7189
19.2917
20.3534
21.0688
23.6065
27.8704
33.7479
40.6428
47.4365
54.4039
61.1931
66.6798
69.9476
75.3565
76.3474
77.0749
78.0266
79.3123
80.8874
82.5555
84.24
85.8887
87.4798
89.0278
90.5782
18.3091
18.3769
18.5886
19.0089
19.6674
20.5361
21.704
23.4082
25.6763
27.8764
29.6696
31.6458
33.0107
33.7794
34.2767
34.635
35.0095
35.5053
36.2011
37.1341
38.3306
39.8047
41.5666
43.6059
45.9085
48.4569
18.2063
18.2128
18.3077
18.5255
18.8886
19.4248
20.1493
21.106
22.1176
22.9148
23.4222
23.7911
24.0284
24.1501
24.2101
24.2551
24.3261
24.4553
24.6679
24.9823
25.4183
25.9918
26.7216
27.6276
28.7283
30.035
18.1571
18.1419
18.1956
18.3404
18.5927
18.9657
19.4538
20.0098
20.5282
20.9154
21.1287
21.2225
21.2532
21.2492
21.2315
21.2178
21.2248
21.2676
21.3602
21.513
21.7339
22.0336
22.4214
22.9051
23.4911
24.1615
18.1471
18.131
18.1764
18.2983
18.5027
18.7862
19.1196
19.4605
19.759
19.9789
20.0937
20.1237
20.1076
20.0723
20.0345
20.0062
19.9972
20.0166
20.0723
20.1689
20.3111
20.5037
20.7492
21.0476
21.3932
18.1685
18.1663
18.225
18.3527
18.544
18.7794
19.0299
19.2581
19.4438
19.575
19.6441
19.6561
19.6348
19.603
19.5763
19.5639
19.5727
19.6073
19.6708
19.7658
19.8949
20.0594
20.2579
20.4837
20.7329
18.2154
18.2404
18.3311
18.4876
18.6922
18.9137
19.119
19.2842
19.4067
19.4948
19.5488
19.5657
19.5562
19.5391
19.5284
19.531
19.55
19.5863
19.6395
19.7088
19.7941
19.8954
20.0104
20.1354
20.2664
18.3453
18.4853
18.6919
18.9318
19.1624
19.3539
19.4966
19.6007
19.6791
19.7361
19.7702
19.7847
19.7914
19.8006
19.8172
19.8425
19.8755
19.9137
19.9541
19.9957
20.0398
20.0854
20.1295
20.171
18.6653
18.9397
19.2348
19.4957
19.6988
19.8493
19.9657
20.0616
20.1431
20.2087
20.256
20.2889
20.3148
20.3388
20.3623
20.3849
20.4048
20.4195
20.4299
20.4379
20.4435
20.4444
20.4395
18.8297
19.1733
19.5308
19.834
20.0628
20.2331
20.3707
20.4912
20.6006
20.6976
20.7744
20.8263
20.8582
20.8792
20.8944
20.9051
20.9108
20.9097
20.9024
20.8922
20.8796
20.8619
20.8383
19.3149
19.7148
20.0509
20.3036
20.4941
20.652
20.7952
20.9329
21.0638
21.1747
21.2538
21.3036
21.3364
21.3602
21.3772
21.3872
21.3879
21.3809
21.3703
21.3566
21.3368
21.3091
19.314
19.7128
20.0475
20.2989
20.4885
20.6457
20.7881
20.925
21.0549
21.1648
21.2429
21.2919
21.3238
21.3467
21.3631
21.3726
21.3734
21.3673
21.3582
21.346
21.3279
21.3019
19.173
19.5286
19.8293
20.056
20.2248
20.3613
20.4804
20.5883
20.6834
20.7582
20.8083
20.8383
20.8574
20.8709
20.8802
20.8847
20.8824
20.8746
20.8642
20.8516
20.8343
20.8112
20.7828
18.9407
19.2347
19.4939
19.6954
19.8447
19.96
20.0546
20.1342
20.1971
20.2412
20.2707
20.2929
20.3129
20.3323
20.351
20.3674
20.3791
20.3866
20.3925
20.3967
20.3968
20.3916
20.3818
18.6941
18.9337
19.1637
19.3541
19.4958
19.5982
19.6746
19.7301
19.7626
19.7752
19.7796
19.7859
19.7991
19.8202
19.8486
19.8821
19.9178
19.9547
19.9935
20.0343
20.074
20.1116
20.1468
18.4903
18.695
18.9163
19.1209
19.284
19.4032
19.4871
19.5368
19.5501
19.5373
19.517
19.5025
19.5005
19.5141
19.5447
19.592
19.6551
19.7338
19.8284
19.9369
20.0552
20.1794
20.3044
18.5475
18.7837
19.0338
19.2602
19.4422
19.5684
19.633
19.6413
19.6161
19.5799
19.5476
19.5283
19.5281
19.5523
19.6035
19.684
19.796
19.9411
20.1184
20.323
20.5504
20.7938
21.0382
18.5059
18.7898
19.1224
19.4628
19.7595
19.9759
20.0882
20.1167
20.0989
20.0611
20.0193
19.9853
19.9687
19.9782
20.0214
20.1041
20.2296
20.4023
20.6251
20.8982
21.2181
21.5881
22.0078
18.5945
18.9663
19.4539
20.023
20.552
20.9431
21.1609
21.259
21.2922
21.2888
21.2698
21.2539
21.257
21.2942
21.3784
21.5207
21.729
22.0138
22.3844
22.8495
23.4168
24.0759
24.8342
18.8898
19.4227
20.1676
21.1149
22.169
22.9744
23.4901
23.867
24.1202
24.2611
24.343
24.4141
24.5134
24.6735
24.9159
25.2631
25.735
26.3522
27.1358
28.1085
29.2928
30.7072
32.3361
25.6337
27.849
29.7171
31.9502
33.596
34.6041
35.3039
35.8472
36.414
37.1117
38.0285
39.2128
40.6885
42.4583
44.5136
46.8449
49.4367
52.2733
55.3492
29.733
33.7099
37.4688
40.9573
43.9018
45.7442
73.7625
75.4221
76.7731
78.2272
79.8944
81.7799
83.7298
85.6369
87.4569
89.1754
90.8131
92.4183
94.0639
85.3228
95.5758
102.849
107.663
109.677
109.256
165.995
161.001
156.354
152.004
147.905
144.067
140.525
137.294
134.378
131.781
129.515
127.606
553.298
567.807
461.914
351.025
348.139
297.148
317.46
277.564
248.568
226.539
209.212
195.267
183.848
174.351
166.357
159.57
153.789
148.881
1190.45
668.162
498.95
393.106
345.758
306.303
276.159
252.188
232.463
216.116
202.462
190.98
181.275
173.053
166.089
671.206
544.427
446.483
363.227
319.573
285.757
259.404
238.276
220.947
206.444
194.154
183.631
174.541
166.639
451.786
340.096
313.609
289.565
267.654
247.655
229.898
214.32
200.694
188.759
178.269
169.008
160.8
18.7236
18.8717
19.1104
19.4558
19.8876
20.3675
20.8442
21.269
21.6117
21.8622
22.0211
22.0958
22.1018
22.0999
22.0773
18.9326
19.2311
19.7332
20.4854
21.4186
22.5191
23.6784
24.7468
25.6043
26.1998
26.5253
26.6213
26.6777
26.6829
26.6476
19.222
19.7919
20.8196
22.4099
24.4645
27.4161
30.7402
33.7876
36.1105
37.5308
38.0477
38.1307
38.0887
37.9328
37.8022
37.6264
37.4441
37.2785
37.136
37.0269
36.9579
36.9326
36.9534
19.6105
20.661
22.6578
26.1115
27.5686
34.9964
45.8389
56.2631
64.121
68.6321
69.9163
69.159
67.5015
65.675
78.2003
75.8649
73.8237
72.105
70.7205
69.6443
68.8366
68.2568
67.8708
20.0776
21.8794
25.5572
27.9211
44.3664
87.8537
132.729
177.031
198.579
201.719
194.107
183.469
169.699
155.516
143.914
159.929
152.212
145.968
140.865
136.619
133.01
129.859
127.037
20.5159
23.1411
25.0979
39.1995
101.294
269.589
515.848
1314.85
663.113
750.473
712.838
555.475
441.395
343.461
327.943
290.294
289.659
265.219
245.252
228.383
214.001
201.516
190.564
180.878
20.7323
23.9285
27.4153
53.3643
152.402
893.899
642.769
477.673
373.338
326.031
291.471
264.79
243.527
226.139
211.62
199.299
188.633
20.4753
23.4369
27.373
57.5461
319.774
655.911
465.43
323.069
268.53
234.938
211.156
193.773
180.271
169.352
160.19
152.25
19.7633
21.7953
24.0595
45.7951
129.539
782.11
559.772
418.461
303.036
268.464
242.957
223.333
207.759
194.979
184.212
174.961
166.911
159.813
19.0621
20.2541
23.0023
26.2139
47.0906
141.703
355.349
662.585
808.93
469.162
664.485
474.49
424.963
408.689
360.346
294.529
270.525
250.318
232.793
217.481
204.215
192.732
182.804
174.206
166.801
160.386
18.6158
18.9967
19.9626
21.6918
23.3988
29.0916
38.3669
50.0512
68.209
92.2309
116.011
143.514
167.029
180.51
185.448
178.814
173.211
168.575
164.625
161.109
157.8
154.614
151.521
148.544
145.753
143.227
18.3663
18.4838
18.7918
19.3657
20.1535
21.1577
22.5732
23.8936
29.4811
38.6263
47.15
62.7357
66.7781
68.3287
69.0522
69.5163
70.3118
71.8159
74.0287
76.8471
80.152
83.8116
87.6013
91.3385
94.9543
98.406
18.2405
18.2644
18.3892
18.6541
19.0645
19.6675
20.4922
21.0818
23.1412
25.7425
27.7337
30.7024
32.0611
32.8758
33.4577
34.073
34.851
35.8811
37.2684
39.0313
41.1619
43.6388
46.4622
49.6352
53.146
18.19
18.1854
18.2564
18.4274
18.7199
19.1547
19.7888
20.64
21.559
22.4005
22.92
23.1937
23.6507
24.0425
24.4305
24.8814
25.4502
26.174
27.0915
28.2356
29.614
31.2303
33.08
35.1607
37.4407
18.1924
18.1911
18.2591
18.4134
18.6649
19.0034
19.4413
19.9074
20.3252
20.6871
20.922
21.0245
21.1629
21.323
21.5164
21.7746
22.1311
22.6154
23.2514
24.0519
25.0314
26.186
27.5012
28.9418
30.4836
18.2369
18.2621
18.361
18.5427
18.7998
19.1064
19.4322
19.7125
19.944
20.1457
20.279
20.3343
20.4063
20.5114
20.6768
20.9285
21.2902
21.7755
22.3962
23.1563
24.036
25.0397
26.1426
27.3013
28.4995
18.3171
18.3914
18.5543
18.8047
19.1122
19.4255
19.7002
19.9076
20.0778
20.2332
20.3688
20.4635
20.5318
20.631
20.7883
21.0078
21.2949
21.6527
22.0849
22.5909
23.175
23.8394
24.5679
25.3254
26.0849
18.5704
18.834
19.1986
19.6045
19.9723
20.2642
20.4811
20.671
20.8559
21.0388
21.2035
21.3476
21.4967
21.6711
21.88
22.1293
22.4197
22.7436
23.0852
23.4413
23.8157
24.2035
24.5746
24.9311
19.1714
19.706
20.2797
20.7913
21.2075
21.5473
21.8471
22.135
22.4253
22.7035
22.9526
23.1791
23.3974
23.6169
23.839
24.0625
24.2794
24.4759
24.6524
24.822
24.9801
25.1096
25.2091
19.4869
20.2079
20.9847
21.6724
22.2326
22.6953
23.1161
23.5237
23.9355
24.3394
24.6976
24.9815
25.2039
25.3963
25.5711
25.7315
25.8728
25.9782
26.056
26.1236
26.1769
26.2011
26.1951
20.5184
21.4474
22.2836
22.9762
23.5572
24.104
24.6623
25.2584
25.8653
26.4033
26.8141
27.1107
27.3487
27.5551
27.7364
27.886
27.9898
28.061
28.1188
28.1571
28.1569
28.1161
20.5161
21.4413
22.2729
22.9614
23.54
24.0849
24.6411
25.2349
25.8394
26.3753
26.7843
27.0792
27.3157
27.5211
27.7027
27.8546
27.9631
28.0413
28.1066
28.1524
28.1591
28.1247
20.2068
20.9793
21.6624
22.2198
22.6824
23.1043
23.5129
23.9254
24.3295
24.6879
24.9714
25.1922
25.3824
25.5552
25.7137
25.8514
25.9544
26.0304
26.0957
26.1473
26.1695
26.1619
26.134
19.7082
20.2798
20.789
21.2037
21.544
21.8449
22.1334
22.4229
22.6977
22.9423
23.1627
23.3728
23.5826
23.7935
24.005
24.21
24.3926
24.5573
24.7161
24.8646
24.9856
25.0776
25.1502
19.2028
19.6089
19.9767
20.2684
20.4865
20.6768
20.8684
21.0596
21.2298
21.3766
21.5258
21.6966
21.8979
22.134
22.4059
22.7061
23.0192
23.3419
23.6806
24.0296
24.3665
24.6946
25.0091
18.8092
19.1168
19.43
19.7044
19.9093
20.074
20.222
20.3498
20.4385
20.5012
20.5936
20.741
20.9478
21.2175
21.5564
21.967
22.4485
23.0066
23.6467
24.3514
25.0869
25.8253
26.5406
18.8058
19.1144
19.4412
19.7206
19.9473
20.1403
20.265
20.3129
20.3693
20.4512
20.5851
20.7961
21.103
21.5259
22.0758
22.7573
23.5505
24.4635
25.4794
26.5585
27.6875
28.8198
29.8555
18.6701
19.0096
19.448
19.9205
20.3401
20.693
20.9172
21.0112
21.1323
21.2661
21.4252
21.6408
21.9436
22.3636
22.9257
23.6465
24.5371
25.5949
26.8116
28.1561
29.5956
31.1582
32.777
18.723
19.1549
19.8057
20.6682
21.6093
22.4481
22.9698
23.242
23.6892
24.0653
24.4304
24.851
25.3818
26.0642
26.9365
28.0272
29.3417
30.891
32.6748
34.6936
36.9379
39.3003
41.8845
19.0692
19.6688
20.6522
22.1764
22.5114
23.5589
24.4869
30.5564
32.008
32.9501
33.67
34.4191
35.3139
36.4612
37.9594
39.8365
42.0864
44.7087
47.7012
51.0697
54.8136
58.8446
62.9232
26.1011
30.614
34.5852
65.2149
70.7308
73.3851
74.7504
75.5994
76.7838
78.574
81.0242
84.0622
87.5686
91.1403
94.6834
98.1393
101.445
104.588
107.607
41.2928
56.869
73.6746
93.0344
108.736
116.815
182.44
177.134
172.533
168.609
165.158
161.943
158.826
155.724
152.635
149.62
146.764
144.147
141.841
151.654
201.053
204.248
236.313
244.242
241.515
287.782
264.968
245.729
229.034
214.436
201.719
190.686
181.112
172.781
165.525
159.2
153.671
1843.79
1006.87
597.485
540.446
495.782
393.336
308.211
272.038
245.456
224.979
208.787
195.607
184.58
175.204
167.085
159.952
153.623
608.378
438.86
323.971
271.468
238.64
215.036
197.396
183.512
172.193
162.682
154.476
147.237
140.732
654.734
488.69
373.53
325.483
290.043
262.481
240.511
222.61
207.733
195.061
184.116
174.603
166.295
522.558
411.865
291.543
267.143
247.283
230.501
216.194
203.765
192.85
183.179
174.555
166.838
159.93
18.7433
18.9128
19.1826
19.55
19.9941
20.4673
20.9145
21.3006
21.6067
21.8291
21.9686
22.0349
22.065
22.0907
22.0977
18.9884
19.3504
19.9388
20.7355
21.774
22.9542
24.107
25.1904
26.0275
26.5719
26.8199
26.8812
26.9451
26.9766
26.9707
19.3531
20.089
21.2895
23.0141
25.8597
29.3231
32.6294
36.8487
39.3817
40.5689
40.5086
40.5889
40.526
40.3013
39.9594
39.5659
39.164
38.7793
38.4285
38.1145
37.8361
37.5925
37.3826
19.8835
21.2879
23.6802
24.9101
31.6835
43.1074
54.5834
86.6498
89.5076
89.2557
87.4466
85.4974
81.0051
75.6584
70.7843
73.4458
71.0598
68.9184
67.032
65.3859
63.9515
62.7009
61.6107
20.5779
23.0471
24.5728
35.0127
72.1014
122.887
173.694
194.737
200.996
197.911
188.872
176.903
162.715
147.445
133.632
123.506
134.359
127.773
122.001
116.947
112.514
108.605
105.132
21.3047
25.3366
29.6336
59.5725
179.386
487.93
550.768
514.269
433.25
416.327
446.222
548.939
547.554
396.15
340.607
281.086
271.627
241.815
219.264
201.365
186.738
174.52
164.135
155.191
21.3642
23.0754
36.7396
71.2395
715.282
940.556
502.119
384.953
310.329
275.75
249.166
227.986
210.708
196.313
184.123
173.665
21.0357
22.7985
37.5809
88.1614
1002.44
452.036
375.108
289.066
259.842
238.442
221.49
207.515
195.653
185.356
176.273
20.2015
21.3956
31.0673
87.554
739.594
341.091
278.888
259.362
233.023
212.695
200.85
192.206
183.976
176.377
169.439
163.106
157.24
19.4653
21.0589
22.9514
36.2586
88.6959
353.277
1009.25
441.739
490.369
612.728
666.155
732.795
552.798
523.339
385.565
324.38
274.306
253.684
235.91
219.994
206.228
194.324
183.951
174.841
166.86
159.888
18.7701
19.3927
20.7131
22.2352
28.2003
39.6154
53.7692
70.4968
112.214
249.315
409.608
445.03
425.321
386.715
345.665
281.932
262.802
246.567
232.452
219.9
208.468
198.222
188.929
180.426
172.81
166.073
18.439
18.6239
19.0613
19.7554
20.6288
21.7226
22.8911
28.4859
51.9635
129.875
211.405
225.281
249.322
233.047
217.125
203.695
192.851
184.297
177.674
172.516
168.343
164.845
161.82
159.137
156.544
153.978
18.2888
18.3401
18.5094
18.8241
19.272
19.8507
20.3987
23.1468
30.221
46.0934
57.0922
63.4172
91.8077
92.5365
92.3806
92.3584
92.9291
94.2127
96.1561
98.6449
101.182
103.683
106.151
108.593
110.986
18.2426
18.2597
18.3645
18.58
18.9216
19.3724
19.7363
21.2702
23.8993
27.5842
31.0839
32.8031
43.1113
46.3712
49.1595
51.6988
54.3261
57.1652
60.2369
63.5309
67.0139
70.6028
74.2426
77.8111
81.1751
18.2689
18.2997
18.4163
18.6383
18.9712
19.3627
19.5617
20.4197
21.44
22.6556
24.1434
25.0712
28.5448
30.39
32.2773
34.3047
36.6249
39.2924
42.3144
45.6202
49.2062
52.9414
56.7155
60.3042
63.771
18.3558
18.4397
18.6272
18.9291
19.3132
19.7775
20.3163
20.7959
21.1942
21.2715
21.6696
22.0474
24.1651
25.7617
27.5856
29.7375
32.2821
35.2047
38.4907
41.8114
45.1519
48.5489
51.9229
55.1947
58.4173
18.4996
18.6808
19.011
19.4835
20.0103
20.5435
20.9928
21.3028
21.7438
22.1999
22.6981
23.1162
23.5174
24.6218
26.0362
27.4933
29.0934
30.9135
33.0141
35.3982
38.0899
41.0351
44.1168
47.0668
49.7969
19.0227
19.5896
20.3391
21.1464
21.8764
22.4311
22.8429
23.4452
24.0322
24.6381
25.2264
25.7833
26.4206
27.2235
28.2487
29.5388
31.0931
32.8433
34.6347
36.4065
38.1868
39.9472
41.4905
20.342
21.5837
22.9769
24.3113
25.4728
26.4423
27.2692
28.0387
28.8689
29.7245
30.5211
31.298
32.0986
32.9419
33.8193
34.7431
35.6639
36.4519
37.1711
37.9006
38.5875
39.1267
21.0778
22.9043
25.0577
27.0707
28.7702
30.1808
31.3989
32.4959
33.6336
34.8092
35.8595
36.644
37.2342
37.7464
38.2103
38.6362
39.0031
39.2198
39.3716
39.5352
39.6628
39.6916
23.7285
26.5015
29.1546
31.3986
33.3001
35.1761
37.1581
39.3259
41.3561
42.9345
43.9608
44.6013
45.0973
45.5061
45.8645
46.1417
46.2605
46.3032
46.363
46.3757
46.2637
46.0541
23.7215
26.4812
29.1175
31.3478
33.2429
35.1145
37.0901
39.2523
41.2797
42.859
43.8871
44.5288
45.0299
45.4541
45.8374
46.1441
46.2916
46.3627
46.4513
46.4907
46.3992
46.2073
22.9025
25.0545
27.0728
28.7796
30.2079
31.4464
32.5626
33.7192
34.9136
35.9773
36.7671
37.3537
37.8612
38.3172
38.7371
39.0928
39.2935
39.4291
39.5753
39.6855
39.695
39.6391
21.5904
22.9836
24.321
25.4861
26.468
27.3102
28.0905
28.93
29.7875
30.5742
31.3296
32.0958
32.8967
33.7227
34.5829
35.4438
36.1767
36.8387
37.5072
38.1382
38.6293
39.0298
39.4458
20.3483
21.158
21.8905
22.4487
22.8708
23.4906
24.1758
24.8714
25.4956
26.0559
26.6764
27.4394
28.3964
29.576
30.974
32.5254
34.0958
35.6572
37.2514
38.8357
40.2547
41.5996
42.905
19.4892
20.0133
20.5457
20.9958
21.3023
21.7249
22.1573
22.6245
23.025
23.4113
24.489
25.8661
27.2809
28.8228
30.5804
32.6223
34.9448
37.581
40.4947
43.5478
46.4965
49.2355
51.7368
19.3222
19.7906
20.336
20.8214
21.2099
21.2233
21.4529
21.7521
23.8725
25.223
26.801
28.716
30.9757
33.6413
36.6974
39.8115
42.9821
46.2496
49.5567
52.8171
56.0711
59.1299
61.5885
18.9797
19.3755
19.5692
20.1775
20.7885
21.4382
22.209
22.7421
28.138
29.7277
31.3692
33.1582
35.2162
37.634
40.4169
43.5193
46.9348
50.5218
54.2095
57.7391
61.1588
64.5027
67.5973
18.9268
19.3803
19.6607
20.7565
22.3233
24.2867
26.3889
27.6315
42.9874
45.938
48.5149
50.882
53.3706
56.1003
59.0908
62.3248
65.7578
69.3189
72.9587
76.6386
80.177
83.4045
86.9501
19.2767
19.8692
20.2496
22.1194
26.7045
33.7485
39.8893
42.9217
90.6387
91.8654
92.2214
92.6325
93.575
95.1816
97.4146
100.182
102.912
105.551
108.115
110.634
113.088
115.447
117.458
38.5381
57.6536
100.611
116.831
257.79
241.119
224.754
210.564
198.929
189.647
182.382
176.619
171.884
167.86
164.363
161.275
158.184
155.337
152.729
73.2686
171.501
333.929
380.729
370.829
335.006
298.096
278.327
260.016
244.377
230.567
217.862
206.591
196.385
187.026
178.596
171.122
164.518
158.634
318.261
535.27
510.787
467.525
410.496
358.864
311.479
274.397
252.331
234.103
218.371
204.77
192.922
182.58
173.531
165.551
158.224
150.858
824.737
764.972
1123.63
1364.81
702.211
479.502
324.412
276.37
227.941
207.782
195.236
186.662
179.06
171.844
165.148
159.04
153.434
148.212
444.269
282.854
273.542
285.871
257.084
235.999
219.257
205.446
193.732
183.575
174.623
166.64
159.463
1059.57
485.999
397.003
311.585
277.176
250.601
229.378
212.051
197.63
185.426
174.96
165.896
157.994
873.671
425.683
277.511
247.145
224.201
205.999
191.125
178.702
168.141
159.039
151.119
144.188
138.12
18.7442
18.9286
19.2234
19.6193
20.0837
20.5561
20.9859
21.3404
21.615
21.8122
21.933
21.9892
22.0328
22.08
22.114
19.0196
19.4291
20.1085
21.0212
22.1743
23.3946
24.6208
25.6264
26.3462
26.7837
26.9481
26.9991
27.0563
27.1055
27.1268
19.4499
20.3194
21.8116
23.9665
27.3348
30.9197
35.7021
38.9117
40.6832
41.362
41.2334
41.1222
41.0492
40.8436
40.4913
40.0822
39.6011
39.1256
38.6927
38.2991
37.9459
37.6318
37.355
20.1157
21.8312
25.1287
26.9732
36.6724
49.3195
82.7656
86.7717
87.7329
87.0278
85.2042
82.5774
80.2221
75.2052
69.9784
71.039
68.4898
66.134
64.0236
62.1512
60.4934
59.0231
57.7166
21.0393
24.095
26.5598
45.3417
96.6377
152.266
182.777
195.079
193.337
186.796
178.275
165.812
154.182
140.294
126.519
113.777
125.722
117.776
110.945
105.044
99.9204
95.4435
91.5077
21.8654
23.5965
36.5121
102.484
370.167
983.966
467.614
378.155
384.642
382.397
369.521
387.338
541.051
465.787
305.009
273.326
223.931
215.894
194.091
176.815
162.718
150.98
141.046
132.533
22.3882
25.2221
46.0765
142.359
559.125
394.533
301.489
261.607
232.954
210.819
193.02
178.314
165.916
155.31
21.9955
25.0225
49.8368
243.471
560.61
393.355
302.128
265.631
239.165
218.446
201.632
187.624
175.677
165.271
20.8616
22.9223
40.7492
123.506
357.29
353.416
287.147
257.873
235.438
217.09
201.801
188.79
177.55
167.705
158.961
19.8605
22.0806
25.2632
47.9044
236.904
619.511
219.171
261.209
478.799
574.133
641.682
696.368
581.179
442.449
322.208
280.491
255.229
241.017
226.527
212.881
200.439
189.182
179.044
169.898
161.572
18.9165
19.7736
21.5993
23.9435
33.2458
51.4731
64.4109
81.1704
125.378
876.977
560.085
434.021
362.548
319.956
300.54
280.4
260.445
242.724
227.607
215.103
204.013
191.558
180.356
171.024
162.849
18.5118
18.7711
19.3507
20.2017
21.182
22.4643
24.0088
32.5886
142.154
1000.12
551.622
422.641
366.072
322.574
289.764
264.461
244.831
229.71
217.413
207.085
198.402
190.864
183.814
176.92
169.82
18.3456
18.4367
18.6726
19.0546
19.4939
19.8758
21.2918
28.237
114.633
266.047
352.376
452.162
386.763
334.746
295.366
265.125
241.457
222.573
207.239
194.585
184.081
175.388
168.256
162.47
157.628
18.3148
18.3717
18.5385
18.8309
19.1934
19.4741
20.6907
26.4855
62.5466
86.4782
125.139
178.123
179.481
256.792
236.769
219.305
204.457
191.977
181.516
172.664
165.111
158.527
152.688
148.217
144.087
18.3831
18.4769
18.6905
19.0454
19.4594
19.7078
20.8328
24.419
32.5852
49.4518
61.248
73.8605
75.2784
128.818
126.587
125.375
125.172
125.857
127.157
128.023
129.916
130.968
131.288
128.869
125.259
18.5441
18.7463
19.1234
19.6769
20.2494
20.4715
21.4077
23.1263
25.0366
28.4908
34.5356
39.4928
43.3142
79.3373
84.7862
90.4676
96.7142
103.262
110.048
108.403
107.268
108.229
110.625
114.171
118.229
18.8048
19.2145
19.929
20.9078
21.8939
22.0358
22.8489
23.768
28.1904
28.2916
29.9657
32.3216
34.0102
51.1654
58.263
58.275
60.4582
64.9925
71.5828
80.2798
90.2144
100.295
109.655
117.24
122.751
19.9124
21.1788
22.8467
24.7547
24.8753
25.6835
26.5375
32.9322
32.704
33.0988
34.2158
35.4541
37.4056
40.5588
45.2536
51.3857
58.7714
67.1709
75.5878
83.1886
89.8649
95.6691
100.372
22.9788
26.1318
30.3563
34.6107
38.2253
40.9585
40.6386
40.7937
41.8549
43.9658
46.2366
48.8248
52.2483
56.4918
61.2007
66.1628
71.1922
75.5533
78.8894
82.1192
85.125
87.4677
37.0396
43.6505
48.8547
52.7683
52.2714
52.3566
53.5119
55.7588
58.3171
60.3909
61.8316
62.985
63.9508
64.8556
65.7757
66.402
66.5379
66.8954
67.3668
67.7298
41.7892
50.9244
58.0003
63.533
69.172
74.9209
81.1033
80.1712
80.1696
80.7096
80.7271
80.6384
80.5802
80.6466
80.8526
80.786
80.3008
79.9919
79.8204
79.4781
78.7578
41.7259
50.805
57.821
63.3347
68.9596
74.6942
80.8808
80.4096
81.3496
82.8123
83.6731
84.3767
85.0918
85.9452
86.9194
87.5169
87.6695
87.97
88.4192
88.5648
88.2237
37.1622
43.8986
49.1668
53.1916
53.1159
54.074
56.1675
59.585
63.3124
66.0637
67.5772
68.6023
69.3626
70.0283
70.6686
70.9264
70.6797
70.5943
70.5904
70.3921
69.8374
26.1651
30.4403
34.754
38.3885
41.1834
41.3365
42.2855
44.0317
46.698
49.422
51.862
54.1679
56.4233
58.623
60.881
63.3238
65.4267
66.9053
68.5604
70.2845
71.777
72.685
73.7433
22.8711
24.7927
25.4158
26.9166
28.3736
33.2177
35.3293
35.5593
37.0689
38.9942
41.4491
44.8297
49.4347
55.2539