/*--------------------------------*- C++ -*----------------------------------*\
  =========                 |
  \\      /  F ield         | OpenFOAM: The Open Source CFD Toolbox
   \\    /   O peration     | Website:  https://openfoam.org
    \\  /    A nd           | Version:  13
     \\/     M anipulation  |
\*---------------------------------------------------------------------------*/
FoamFile
{
    format      ascii;
    class       volScalarField;
    location    "700";
    object      p;
}
// * * * * * * * * * * * * * * * * * * * * * * * * * * * * * * * * * * * * * //

dimensions      [0 2 -2 0 0 0 0];

internalField   nonuniform List<scalar> 
169896
(
13.9594
13.9592
13.9587
13.958
13.957
13.9558
13.9543
13.9525
13.9504
13.9481
13.9454
13.9424
13.9391
13.9355
13.9314
13.9269
13.922
13.9166
13.9107
13.9043
13.8973
13.8896
13.8813
13.8722
13.8623
13.8516
13.84
13.8274
13.8137
13.7988
13.7828
13.7654
13.7466
13.7262
13.7042
13.6804
13.6547
13.6269
13.5969
13.5644
13.5294
13.4917
13.451
13.4072
13.3599
13.309
13.2543
13.1954
13.1321
13.0641
12.9912
12.9129
12.829
12.7392
12.6431
12.5404
12.4307
12.3137
12.189
12.0562
11.9151
11.7651
11.6061
11.4378
11.2597
11.0718
10.8737
10.6653
10.4464
10.217
9.97688
9.72612
9.46472
9.19268
13.9596
13.9594
13.959
13.9583
13.9573
13.9561
13.9546
13.9528
13.9508
13.9484
13.9458
13.9428
13.9395
13.9358
13.9318
13.9274
13.9225
13.9171
13.9113
13.9049
13.8979
13.8903
13.882
13.873
13.8632
13.8525
13.8409
13.8284
13.8148
13.8
13.7841
13.7668
13.748
13.7278
13.7059
13.6822
13.6566
13.629
13.5991
13.5669
13.532
13.4945
13.454
13.4103
13.3633
13.3126
13.2581
13.1995
13.1365
13.0688
12.9961
12.9182
12.8346
12.7451
12.6493
12.547
12.4376
12.321
12.1966
12.0642
11.9234
11.7738
11.6151
11.4471
11.2693
11.0817
10.8839
10.6757
10.457
10.2278
9.98786
9.73723
9.47591
9.20392
13.9601
13.9599
13.9595
13.9588
13.9578
13.9566
13.9551
13.9534
13.9513
13.949
13.9464
13.9435
13.9402
13.9366
13.9326
13.9282
13.9234
13.9181
13.9123
13.906
13.8991
13.8916
13.8834
13.8745
13.8648
13.8543
13.8428
13.8304
13.817
13.8024
13.7866
13.7695
13.751
13.7309
13.7093
13.6858
13.6605
13.6331
13.6036
13.5716
13.5372
13.5
13.4599
13.4166
13.37
13.3198
13.2658
13.2077
13.1452
13.0781
13.006
12.9286
12.8457
12.7568
12.6617
12.5601
12.4514
12.3354
12.2118
12.0801
11.94
11.7911
11.6332
11.4658
11.2887
11.1016
10.9044
10.6967
10.4786
10.2497
10.0102
9.75982
9.49872
9.22688
13.9608
13.9606
13.9602
13.9595
13.9586
13.9574
13.9559
13.9542
13.9522
13.9499
13.9474
13.9445
13.9413
13.9377
13.9338
13.9295
13.9248
13.9196
13.9139
13.9077
13.9009
13.8935
13.8855
13.8767
13.8672
13.8569
13.8456
13.8334
13.8202
13.8059
13.7903
13.7735
13.7553
13.7356
13.7143
13.6912
13.6663
13.6394
13.6102
13.5788
13.5448
13.5082
13.4687
13.426
13.3801
13.3306
13.2773
13.2199
13.1582
13.0919
13.0207
12.9443
12.8623
12.7744
12.6803
12.5797
12.4721
12.3572
12.2346
12.104
11.965
11.8172
11.6602
11.4939
11.3177
11.1316
10.9352
10.7284
10.5109
10.2828
10.0437
9.79384
9.53308
9.26147
13.9617
13.9616
13.9612
13.9605
13.9596
13.9584
13.957
13.9553
13.9534
13.9512
13.9487
13.9459
13.9427
13.9393
13.9354
13.9312
13.9266
13.9216
13.916
13.9099
13.9033
13.8961
13.8883
13.8797
13.8704
13.8603
13.8494
13.8374
13.8245
13.8105
13.7953
13.7789
13.761
13.7418
13.7209
13.6984
13.674
13.6476
13.6191
13.5883
13.555
13.5191
13.4803
13.4385
13.3934
13.3449
13.2925
13.2362
13.1756
13.1104
13.0403
12.9651
12.8843
12.7978
12.705
12.6057
12.4996
12.3861
12.265
12.1358
11.9982
11.8518
11.6963
11.5313
11.3565
11.1716
10.9764
10.7707
10.5542
10.3269
10.0887
9.83938
9.57911
9.30784
13.9629
13.9628
13.9624
13.9617
13.9608
13.9597
13.9583
13.9567
13.9548
13.9527
13.9502
13.9475
13.9445
13.9411
13.9374
13.9334
13.9289
13.924
13.9186
13.9127
13.9063
13.8993
13.8917
13.8834
13.8744
13.8646
13.854
13.8424
13.8298
13.8162
13.8015
13.7855
13.7682
13.7494
13.7292
13.7072
13.6835
13.6578
13.63
13.6
13.5676
13.5326
13.4948
13.454
13.41
13.3626
13.3114
13.2564
13.1971
13.1333
13.0646
12.9909
12.9118
12.8268
12.7358
12.6382
12.5338
12.4221
12.3028
12.1754
12.0397
11.8951
11.7413
11.578
11.4049
11.2216
11.0279
10.8236
10.6084
10.3823
10.145
9.89653
9.6369
9.36611
13.9643
13.9642
13.9638
13.9632
13.9623
13.9612
13.9599
13.9583
13.9565
13.9545
13.9521
13.9495
13.9466
13.9434
13.9398
13.9359
13.9316
13.9269
13.9217
13.916
13.9099
13.9031
13.8958
13.8878
13.8791
13.8697
13.8594
13.8483
13.8362
13.823
13.8088
13.7934
13.7766
13.7585
13.7389
13.7177
13.6948
13.6699
13.6431
13.614
13.5826
13.5487
13.512
13.4724
13.4297
13.3836
13.3339
13.2804
13.2227
13.1605
13.0936
13.0217
12.9445
12.8615
12.7724
12.6769
12.5746
12.4651
12.348
12.2228
12.0893
11.9469
11.7953
11.6341
11.463
11.2817
11.0898
10.8872
10.6736
10.4489
10.2128
9.96538
9.70658
9.43642
13.9659
13.9658
13.9654
13.9648
13.964
13.963
13.9617
13.9602
13.9585
13.9565
13.9543
13.9518
13.949
13.9459
13.9425
13.9388
13.9347
13.9302
13.9252
13.9198
13.914
13.9075
13.9005
13.8929
13.8846
13.8756
13.8657
13.855
13.8435
13.8309
13.8172
13.8024
13.7864
13.769
13.7502
13.7299
13.7078
13.6839
13.6581
13.6301
13.5999
13.5672
13.5319
13.4937
13.4525
13.408
13.3599
13.3081
13.2522
13.192
13.1272
13.0574
12.9823
12.9016
12.8149
12.7218
12.622
12.515
12.4004
12.2779
12.1469
12.0071
11.8581
11.6994
11.5307
11.3517
11.1621
10.9615
10.7498
10.5268
10.2923
10.0461
9.78834
9.51897
13.9677
13.9676
13.9672
13.9667
13.9659
13.9649
13.9638
13.9623
13.9607
13.9588
13.9567
13.9544
13.9517
13.9488
13.9456
13.9421
13.9382
13.9339
13.9292
13.9241
13.9186
13.9125
13.9058
13.8986
13.8907
13.8821
13.8728
13.8627
13.8517
13.8397
13.8267
13.8127
13.7974
13.7809
13.7629
13.7435
13.7225
13.6997
13.675
13.6483
13.6194
13.5881
13.5543
13.5177
13.4782
13.4355
13.3893
13.3395
13.2857
13.2277
13.1652
13.0978
13.0252
12.9471
12.8631
12.7728
12.6758
12.5717
12.4601
12.3406
12.2126
12.0758
11.9297
11.7739
11.6081
11.4318
11.2448
11.0467
10.8372
10.6162
10.3835
10.1389
9.88238
9.614
13.9697
13.9696
13.9693
13.9687
13.968
13.9671
13.966
13.9647
13.9631
13.9614
13.9594
13.9572
13.9547
13.952
13.949
13.9457
13.942
13.9381
13.9337
13.9289
13.9236
13.9179
13.9117
13.9049
13.8975
13.8894
13.8807
13.8711
13.8607
13.8495
13.8372
13.824
13.8096
13.794
13.777
13.7587
13.7388
13.7172
13.6938
13.6685
13.6411
13.6114
13.5792
13.5444
13.5067
13.466
13.422
13.3744
13.3229
13.2674
13.2074
13.1427
13.073
12.9978
12.9168
12.8297
12.7359
12.6351
12.5268
12.4107
12.2861
12.1527
12.01
11.8576
11.695
11.5219
11.3379
11.1426
10.9358
10.7172
10.4866
10.2438
9.98888
9.72173
13.9719
13.9718
13.9715
13.971
13.9703
13.9695
13.9685
13.9672
13.9658
13.9642
13.9623
13.9603
13.958
13.9555
13.9527
13.9496
13.9463
13.9425
13.9385
13.934
13.9292
13.9239
13.9181
13.9118
13.9049
13.8974
13.8892
13.8803
13.8706
13.8601
13.8487
13.8363
13.8228
13.8082
13.7924
13.7752
13.7565
13.7363
13.7143
13.6905
13.6647
13.6367
13.6064
13.5736
13.538
13.4994
13.4577
13.4126
13.3637
13.3109
13.2538
13.1921
13.1255
13.0535
12.9759
12.8922
12.802
12.7049
12.6004
12.4881
12.3673
12.2378
12.099
11.9503
11.7915
11.6219
11.4413
11.2493
11.0456
10.8298
10.6016
10.3611
10.108
9.84235
13.9742
13.9741
13.9738
13.9734
13.9728
13.972
13.9711
13.97
13.9687
13.9672
13.9655
13.9636
13.9615
13.9592
13.9567
13.9539
13.9508
13.9474
13.9437
13.9396
13.9351
13.9303
13.925
13.9192
13.9128
13.9059
13.8984
13.8902
13.8813
13.8716
13.8611
13.8496
13.8372
13.8236
13.809
13.793
13.7757
13.7569
13.7365
13.7143
13.6902
13.6641
13.6358
13.6051
13.5717
13.5356
13.4964
13.4539
13.4079
13.358
13.304
13.2456
13.1824
13.114
13.0401
12.9603
12.874
12.781
12.6806
12.5725
12.4561
12.3308
12.1963
12.0519
11.8972
11.7318
11.5551
11.3668
11.1665
10.954
10.7288
10.4908
10.2399
9.97607
13.9767
13.9766
13.9764
13.976
13.9754
13.9747
13.9739
13.9729
13.9717
13.9704
13.9689
13.9672
13.9653
13.9632
13.9609
13.9584
13.9556
13.9525
13.9492
13.9455
13.9415
13.9371
13.9323
13.927
13.9213
13.915
13.9082
13.9008
13.8927
13.8838
13.8742
13.8638
13.8524
13.8401
13.8266
13.812
13.7961
13.7789
13.7601
13.7397
13.7175
13.6934
13.6672
13.6388
13.6078
13.5743
13.5378
13.4982
13.4552
13.4086
13.358
13.3031
13.2436
13.1791
13.1092
13.0335
12.9516
12.863
12.7673
12.6638
12.5521
12.4316
12.3018
12.1622
12.0122
11.8513
11.679
11.495
11.2987
11.0898
10.8679
10.633
10.3847
10.123
13.9793
13.9793
13.979
13.9787
13.9782
13.9776
13.9768
13.9759
13.9749
13.9737
13.9724
13.9709
13.9692
13.9674
13.9654
13.9631
13.9607
13.958
13.955
13.9517
13.9482
13.9443
13.94
13.9353
13.9302
13.9247
13.9186
13.9119
13.9047
13.8967
13.8881
13.8788
13.8685
13.8574
13.8453
13.8321
13.8178
13.8021
13.7851
13.7666
13.7464
13.7244
13.7005
13.6745
13.6461
13.6153
13.5817
13.5452
13.5055
13.4623
13.4153
13.3642
13.3087
13.2484
13.1829
13.1118
13.0346
12.9508
12.86
12.7616
12.6551
12.5398
12.4153
12.2809
12.136
11.9802
11.8129
11.6336
11.4418
11.2372
11.0192
10.7877
10.5425
10.2835
13.9821
13.982
13.9818
13.9815
13.9811
13.9806
13.9799
13.9792
13.9783
13.9772
13.9761
13.9748
13.9734
13.9718
13.97
13.9681
13.966
13.9637
13.9611
13.9583
13.9552
13.9518
13.9481
13.944
13.9396
13.9347
13.9294
13.9236
13.9172
13.9103
13.9027
13.8944
13.8854
13.8756
13.8649
13.8532
13.8404
13.8265
13.8113
13.7948
13.7767
13.757
13.7355
13.712
13.6864
13.6585
13.628
13.5947
13.5585
13.5189
13.4758
13.4288
13.3776
13.3217
13.2609
13.1946
13.1225
13.0439
12.9585
12.8656
12.7647
12.6551
12.5364
12.4077
12.2686
12.1184
11.9566
11.7826
11.5959
11.396
11.1824
10.955
10.7133
10.4574
13.9849
13.9848
13.9847
13.9844
13.9841
13.9837
13.9831
13.9825
13.9817
13.9809
13.9799
13.9788
13.9777
13.9763
13.9749
13.9733
13.9715
13.9695
13.9674
13.965
13.9624
13.9596
13.9565
13.953
13.9493
13.9452
13.9406
13.9357
13.9303
13.9243
13.9178
13.9107
13.903
13.8945
13.8852
13.8751
13.864
13.8519
13.8386
13.8241
13.8083
13.7909
13.7719
13.7511
13.7284
13.7035
13.6763
13.6465
13.6139
13.5782
13.5392
13.4965
13.4498
13.3987
13.3428
13.2818
13.215
13.1421
13.0624
12.9755
12.8806
12.7772
12.6647
12.5423
12.4095
12.2655
12.1098
11.9417
11.7606
11.5661
11.3575
11.1347
10.8972
10.645
13.9878
13.9878
13.9877
13.9875
13.9872
13.9868
13.9864
13.9859
13.9853
13.9846
13.9839
13.983
13.9821
13.981
13.9799
13.9786
13.9772
13.9756
13.9739
13.972
13.9699
13.9676
13.9651
13.9623
13.9593
13.9559
13.9522
13.9482
13.9437
13.9388
13.9334
13.9275
13.9211
13.914
13.9062
13.8977
13.8884
13.8781
13.8669
13.8545
13.8409
13.826
13.8097
13.7917
13.7719
13.7502
13.7264
13.7002
13.6714
13.6398
13.6051
13.5669
13.525
13.4789
13.4283
13.3728
13.3117
13.2448
13.1713
13.0907
13.0024
12.9057
12.7999
12.6843
12.5583
12.4211
12.2721
12.1105
11.9357
11.7471
11.5443
11.3266
11.094
10.8461
13.9908
13.9908
13.9907
13.9906
13.9904
13.9901
13.9898
13.9894
13.989
13.9885
13.9879
13.9873
13.9866
13.9858
13.985
13.984
13.983
13.9818
13.9805
13.9791
13.9776
13.9759
13.974
13.9718
13.9695
13.9669
13.9641
13.9609
13.9575
13.9536
13.9494
13.9448
13.9396
13.934
13.9278
13.9209
13.9134
13.905
13.8958
13.8857
13.8745
13.8621
13.8485
13.8334
13.8167
13.7983
13.778
13.7556
13.7308
13.7034
13.6732
13.6398
13.6028
13.562
13.517
13.4672
13.4123
13.3516
13.2847
13.2108
13.1295
13.0399
12.9414
12.8332
12.7145
12.5847
12.443
12.2885
12.1207
11.9388
11.7423
11.5306
11.3034
11.0604
13.9938
13.9938
13.9938
13.9937
13.9936
13.9934
13.9932
13.993
13.9927
13.9923
13.992
13.9916
13.9911
13.9907
13.9901
13.9895
13.9889
13.9881
13.9873
13.9864
13.9854
13.9842
13.9829
13.9815
13.9799
13.9782
13.9762
13.974
13.9715
13.9687
13.9657
13.9623
13.9586
13.9544
13.9497
13.9446
13.9389
13.9325
13.9254
13.9175
13.9087
13.899
13.8881
13.876
13.8626
13.8476
13.8309
13.8123
13.7917
13.7687
13.7431
13.7146
13.6829
13.6476
13.6083
13.5646
13.516
13.462
13.402
13.3353
13.2614
13.1794
13.0886
12.9883
12.8776
12.7557
12.6219
12.4753
12.3151
12.1406
11.9511
11.746
11.525
11.2878
13.9969
13.9969
13.9969
13.9968
13.9968
13.9967
13.9966
13.9965
13.9964
13.9963
13.9961
13.9959
13.9958
13.9956
13.9954
13.9951
13.9948
13.9945
13.9941
13.9937
13.9932
13.9927
13.992
13.9913
13.9905
13.9895
13.9884
13.9871
13.9857
13.984
13.9822
13.9801
13.9777
13.975
13.972
13.9686
13.9647
13.9603
13.9554
13.9498
13.9435
13.9364
13.9284
13.9193
13.9091
13.8977
13.8847
13.8701
13.8537
13.8352
13.8144
13.791
13.7647
13.7351
13.7019
13.6645
13.6226
13.5755
13.5227
13.4636
13.3974
13.3235
13.241
13.149
13.0468
12.9335
12.8083
12.6701
12.5182
12.3518
12.1701
11.9724
11.7584
11.5276
14
14
14
14
14
14.0001
14.0001
14.0001
14.0002
14.0002
14.0003
14.0003
14.0004
14.0005
14.0006
14.0007
14.0008
14.0009
14.001
14.0011
14.0011
14.0011
14.0011
14.0011
14.001
14.0009
14.0006
14.0003
13.9999
13.9994
13.9987
13.9979
13.9969
13.9958
13.9943
13.9927
13.9907
13.9883
13.9856
13.9823
13.9786
13.9741
13.969
13.9631
13.9562
13.9483
13.9391
13.9286
13.9165
13.9027
13.8868
13.8686
13.8478
13.8241
13.7971
13.7663
13.7312
13.6914
13.6462
13.595
13.537
13.4715
13.3976
13.3146
13.2214
13.1173
13.0012
12.8722
12.7293
12.5717
12.3985
12.209
12.0027
11.7792
14.003
14.003
14.0031
14.0032
14.0033
14.0034
14.0035
14.0037
14.0039
14.0041
14.0044
14.0047
14.005
14.0054
14.0058
14.0063
14.0068
14.0073
14.0078
14.0084
14.009
14.0096
14.0102
14.0109
14.0116
14.0122
14.0129
14.0135
14.0141
14.0147
14.0153
14.0158
14.0162
14.0165
14.0167
14.0168
14.0167
14.0164
14.0158
14.0149
14.0137
14.012
14.0098
14.007
14.0034
13.9991
13.9938
13.9874
13.9797
13.9706
13.9597
13.9469
13.9318
13.9141
13.8934
13.8694
13.8414
13.8091
13.7717
13.7287
13.6792
13.6225
13.5578
13.4841
13.4006
13.3061
13.1998
13.0805
12.9473
12.7992
12.6353
12.4548
12.2571
12.0418
14.006
14.0061
14.0062
14.0063
14.0065
14.0067
14.007
14.0073
14.0076
14.008
14.0085
14.009
14.0096
14.0103
14.011
14.0118
14.0127
14.0136
14.0146
14.0156
14.0168
14.018
14.0193
14.0206
14.022
14.0235
14.025
14.0266
14.0282
14.0299
14.0317
14.0335
14.0353
14.0371
14.039
14.0408
14.0426
14.0443
14.0459
14.0474
14.0486
14.0497
14.0504
14.0507
14.0506
14.0498
14.0484
14.0462
14.043
14.0386
14.0328
14.0253
14.016
14.0045
13.9903
13.9731
13.9525
13.9278
13.8985
13.8639
13.8233
13.7758
13.7206
13.6567
13.5832
13.4989
13.4029
13.2941
13.1713
13.0334
12.8796
12.7088
12.5205
12.3142
14.009
14.009
14.0092
14.0094
14.0096
14.0099
14.0103
14.0107
14.0113
14.0118
14.0125
14.0133
14.0141
14.015
14.0161
14.0172
14.0185
14.0198
14.0212
14.0228
14.0245
14.0263
14.0282
14.0302
14.0323
14.0346
14.037
14.0395
14.0422
14.045
14.0479
14.0509
14.0541
14.0575
14.0609
14.0645
14.0681
14.0718
14.0756
14.0794
14.0832
14.087
14.0906
14.0941
14.0973
14.1002
14.1026
14.1046
14.1058
14.1062
14.1055
14.1035
14.1
14.0946
14.0871
14.0769
14.0637
14.0468
14.0258
13.9999
13.9684
13.9304
13.885
13.8313
13.7682
13.6947
13.6095
13.5117
13.3998
13.2729
13.1298
12.9696
12.7915
12.5951
14.0119
14.012
14.0121
14.0124
14.0127
14.0131
14.0136
14.0142
14.0148
14.0156
14.0164
14.0174
14.0185
14.0197
14.0211
14.0225
14.0241
14.0259
14.0278
14.0298
14.032
14.0343
14.0369
14.0395
14.0424
14.0455
14.0487
14.0522
14.0558
14.0597
14.0637
14.0681
14.0726
14.0774
14.0824
14.0877
14.0932
14.0989
14.1048
14.1109
14.1172
14.1236
14.1302
14.1367
14.1433
14.1498
14.1561
14.1621
14.1678
14.1729
14.1774
14.1809
14.1832
14.1841
14.1831
14.18
14.1743
14.1654
14.1527
14.1357
14.1134
14.0851
14.0499
14.0067
13.9544
13.892
13.8183
13.7318
13.6316
13.5162
13.3845
13.2355
13.0685
12.8828
14.0147
14.0148
14.015
14.0153
14.0157
14.0162
14.0168
14.0175
14.0183
14.0192
14.0203
14.0214
14.0228
14.0243
14.0259
14.0277
14.0297
14.0318
14.0341
14.0366
14.0393
14.0422
14.0453
14.0486
14.0522
14.056
14.0601
14.0644
14.0691
14.074
14.0792
14.0847
14.0906
14.0968
14.1034
14.1103
14.1176
14.1253
14.1333
14.1417
14.1504
14.1594
14.1688
14.1784
14.1883
14.1983
14.2084
14.2185
14.2286
14.2385
14.2479
14.2568
14.265
14.2721
14.2778
14.2817
14.2835
14.2826
14.2784
14.2703
14.2574
14.239
14.2141
14.1817
14.1406
14.0896
14.0276
13.9531
13.8649
13.7616
13.642
13.5049
13.3496
13.1754
14.0174
14.0175
14.0177
14.0181
14.0185
14.0191
14.0198
14.0206
14.0216
14.0227
14.0239
14.0253
14.0269
14.0286
14.0306
14.0327
14.035
14.0375
14.0402
14.0431
14.0463
14.0498
14.0535
14.0574
14.0617
14.0662
14.0711
14.0763
14.0819
14.0878
14.0941
14.1008
14.108
14.1156
14.1237
14.1322
14.1413
14.1508
14.1609
14.1715
14.1825
14.1941
14.2063
14.2188
14.2319
14.2454
14.2592
14.2734
14.2877
14.3022
14.3167
14.3309
14.3448
14.358
14.3703
14.3813
14.3906
14.3976
14.4019
14.4027
14.3994
14.3909
14.3765
14.355
14.3252
14.286
14.236
14.1738
14.0981
14.0074
13.9003
13.7757
13.6328
13.4708
14.02
14.0201
14.0204
14.0208
14.0213
14.022
14.0227
14.0237
14.0248
14.026
14.0274
14.029
14.0308
14.0328
14.035
14.0374
14.0401
14.0429
14.046
14.0494
14.0531
14.057
14.0613
14.0658
14.0707
14.076
14.0816
14.0877
14.0941
14.101
14.1084
14.1163
14.1247
14.1336
14.1431
14.1532
14.164
14.1753
14.1874
14.2
14.2134
14.2275
14.2423
14.2578
14.2739
14.2907
14.3082
14.3262
14.3448
14.3638
14.3831
14.4026
14.4221
14.4413
14.4601
14.478
14.4946
14.5096
14.5222
14.532
14.5381
14.5396
14.5356
14.5251
14.5068
14.4795
14.4418
14.3922
14.3292
14.2514
14.1573
14.0457
13.9157
13.7665
14.0224
14.0226
14.0228
14.0233
14.0239
14.0246
14.0255
14.0266
14.0278
14.0292
14.0308
14.0326
14.0346
14.0368
14.0392
14.0419
14.0449
14.0481
14.0516
14.0554
14.0595
14.0639
14.0687
14.0738
14.0793
14.0853
14.0916
14.0985
14.1058
14.1136
14.122
14.1309
14.1405
14.1507
14.1616
14.1732
14.1855
14.1987
14.2126
14.2273
14.2428
14.2593
14.2766
14.2949
14.314
14.334
14.355
14.3768
14.3994
14.4227
14.4467
14.4713
14.4962
14.5213
14.5463
14.571
14.5948
14.6175
14.6384
14.657
14.6724
14.6838
14.6902
14.6906
14.6838
14.6684
14.643
14.6061
14.5561
14.4915
14.4106
14.3124
14.1956
14.0597
14.0247
14.0249
14.0252
14.0257
14.0263
14.0271
14.0281
14.0293
14.0306
14.0321
14.0339
14.0359
14.0381
14.0405
14.0432
14.0462
14.0494
14.0529
14.0568
14.0609
14.0655
14.0703
14.0756
14.0813
14.0874
14.094
14.101
14.1086
14.1167
14.1254
14.1348
14.1447
14.1554
14.1668
14.179
14.192
14.2059
14.2206
14.2363
14.2529
14.2706
14.2893
14.309
14.3299
14.3519
14.375
14.3992
14.4246
14.451
14.4786
14.5071
14.5365
14.5666
14.5973
14.6284
14.6595
14.6904
14.7205
14.7495
14.7765
14.8011
14.8221
14.8388
14.85
14.8545
14.851
14.8379
14.8136
14.7766
14.7252
14.6578
14.573
14.4697
14.3474
14.0269
14.027
14.0273
14.0279
14.0286
14.0295
14.0305
14.0318
14.0332
14.0349
14.0368
14.0389
14.0413
14.0439
14.0469
14.0501
14.0536
14.0574
14.0616
14.0661
14.071
14.0763
14.0821
14.0883
14.0949
14.1021
14.1098
14.118
14.1269
14.1364
14.1466
14.1576
14.1693
14.1818
14.1952
14.2095
14.2248
14.2411
14.2584
14.2769
14.2965
14.3173
14.3393
14.3626
14.3872
14.4132
14.4406
14.4693
14.4994
14.5309
14.5636
14.5976
14.6327
14.6687
14.7056
14.7429
14.7804
14.8177
14.8543
14.8897
14.9229
14.9534
14.98
15.0017
15.0173
15.0253
15.0242
15.0125
14.9884
14.9501
14.896
14.8246
14.7349
14.6261
14.0288
14.0289
14.0293
14.0299
14.0306
14.0316
14.0327
14.0341
14.0356
14.0374
14.0394
14.0417
14.0443
14.0471
14.0502
14.0537
14.0574
14.0615
14.066
14.0709
14.0761
14.0818
14.088
14.0946
14.1018
14.1095
14.1178
14.1267
14.1363
14.1465
14.1576
14.1694
14.182
14.1956
14.2101
14.2257
14.2422
14.2599
14.2788
14.2989
14.3203
14.343
14.3672
14.3928
14.4199
14.4485
14.4788
14.5106
14.5441
14.5792
14.6159
14.6542
14.6939
14.735
14.7772
14.8203
14.8641
14.9082
14.9521
14.9952
15.0368
15.0762
15.1123
15.1441
15.1703
15.1894
15.2001
15.2005
15.1888
15.1633
15.1223
15.0642
14.9877
14.8925
14.0305
14.0307
14.0311
14.0317
14.0325
14.0335
14.0347
14.0361
14.0378
14.0397
14.0418
14.0442
14.0469
14.0499
14.0533
14.0569
14.0609
14.0653
14.07
14.0752
14.0807
14.0868
14.0933
14.1004
14.108
14.1162
14.125
14.1345
14.1447
14.1557
14.1674
14.18
14.1936
14.2081
14.2236
14.2402
14.258
14.277
14.2973
14.3189
14.3419
14.3664
14.3925
14.4201
14.4495
14.4806
14.5135
14.5482
14.5848
14.6232
14.6636
14.7058
14.7497
14.7954
14.8426
14.8911
14.9408
14.9911
15.0417
15.0921
15.1415
15.1892
15.2343
15.2755
15.3117
15.3415
15.3632
15.3752
15.3755
15.3623
15.3338
15.2884
15.2248
15.1423
14.0321
14.0322
14.0326
14.0333
14.0341
14.0352
14.0364
14.0379
14.0397
14.0417
14.0439
14.0465
14.0493
14.0525
14.0559
14.0598
14.064
14.0686
14.0735
14.079
14.0848
14.0912
14.0981
14.1055
14.1135
14.1222
14.1315
14.1415
14.1522
14.1638
14.1762
14.1895
14.2038
14.2192
14.2356
14.2532
14.272
14.2922
14.3137
14.3366
14.3611
14.3872
14.415
14.4445
14.4759
14.5092
14.5444
14.5817
14.6211
14.6626
14.7062
14.7519
14.7997
14.8495
14.9012
14.9546
15.0095
15.0656
15.1224
15.1793
15.2359
15.2913
15.3445
15.3945
15.4399
15.4795
15.5115
15.5342
15.5457
15.5441
15.5273
15.4938
15.4423
15.3721
14.0334
14.0336
14.034
14.0347
14.0355
14.0366
14.0379
14.0395
14.0413
14.0434
14.0457
14.0484
14.0513
14.0546
14.0583
14.0623
14.0666
14.0714
14.0766
14.0822
14.0884
14.095
14.1022
14.1099
14.1183
14.1273
14.137
14.1475
14.1587
14.1708
14.1838
14.1977
14.2127
14.2288
14.246
14.2644
14.2842
14.3053
14.3279
14.3521
14.3778
14.4053
14.4346
14.4657
14.4989
14.5341
14.5714
14.6109
14.6527
14.6968
14.7433
14.7922
14.8433
14.8968
14.9525
15.0102
15.0698
15.1309
15.1931
15.256
15.3189
15.3811
15.4416
15.4994
15.5533
15.6017
15.643
15.6754
15.6971
15.7059
15.6998
15.6773
15.6367
15.5776
14.0345
14.0347
14.0351
14.0358
14.0367
14.0378
14.0392
14.0408
14.0427
14.0448
14.0472
14.05
14.053
14.0564
14.0602
14.0643
14.0688
14.0738
14.0791
14.085
14.0913
14.0982
14.1056
14.1136
14.1223
14.1316
14.1417
14.1525
14.1642
14.1767
14.1902
14.2046
14.2202
14.2368
14.2547
14.2739
14.2944
14.3164
14.3399
14.3651
14.3919
14.4205
14.4511
14.4836
14.5182
14.555
14.5941
14.6355
14.6794
14.7258
14.7747
14.8262
14.8802
14.9368
14.9959
15.0573
15.1208
15.1863
15.2532
15.3211
15.3895
15.4576
15.5244
15.589
15.6501
15.7062
15.7556
15.7966
15.8271
15.845
15.8484
15.8354
15.8045
15.7551
14.0354
14.0356
14.036
14.0367
14.0376
14.0388
14.0402
14.0418
14.0438
14.0459
14.0484
14.0513
14.0544
14.0579
14.0617
14.066
14.0706
14.0757
14.0812
14.0872
14.0937
14.1007
14.1083
14.1166
14.1255
14.1351
14.1454
14.1565
14.1685
14.1814
14.1953
14.2102
14.2262
14.2433
14.2617
14.2815
14.3027
14.3253
14.3496
14.3755
14.4032
14.4328
14.4644
14.498
14.5338
14.5719
14.6124
14.6554
14.701
14.7492
14.8001
14.8537
14.9101
14.9692
15.031
15.0954
15.1622
15.2312
15.3019
15.374
15.4469
15.5198
15.5919
15.662
15.7291
15.7915
15.8477
15.8957
15.9336
15.9592
15.9703
15.9653
15.9424
15.9009
14.036
14.0362
14.0366
14.0373
14.0383
14.0395
14.0409
14.0426
14.0445
14.0468
14.0493
14.0522
14.0554
14.0589
14.0629
14.0672
14.0719
14.077
14.0827
14.0888
14.0954
14.1026
14.1104
14.1188
14.1278
14.1376
14.1482
14.1595
14.1718
14.1849
14.1991
14.2143
14.2306
14.2482
14.267
14.2872
14.3088
14.332
14.3568
14.3833
14.4117
14.442
14.4743
14.5088
14.5455
14.5846
14.6262
14.6704
14.7172
14.7667
14.8191
14.8744
14.9326
14.9936
15.0575
15.1242
15.1935
15.2651
15.3388
15.414
15.4903
15.5669
15.643
15.7174
15.789
15.8563
15.9176
15.9711
16.0146
16.0461
16.0632
16.0643
16.0475
16.0122
14.0364
14.0366
14.037
14.0377
14.0387
14.0399
14.0413
14.043
14.045
14.0473
14.0499
14.0528
14.056
14.0596
14.0636
14.0679
14.0727
14.0779
14.0836
14.0898
14.0965
14.1038
14.1117
14.1202
14.1294
14.1393
14.15
14.1615
14.1739
14.1872
14.2016
14.217
14.2335
14.2513
14.2704
14.2909
14.3129
14.3364
14.3615
14.3885
14.4173
14.448
14.4809
14.5159
14.5533
14.593
14.6353
14.6802
14.7279
14.7784
14.8318
14.8881
14.9475
15.0098
15.0751
15.1433
15.2142
15.2877
15.3633
15.4406
15.5192
15.5983
15.677
15.7543
15.829
15.8996
15.9643
16.0214
16.0688
16.1042
16.1254
16.1304
16.1177
16.0864
14.0388
14.0401
14.0415
14.0432
14.0452
14.0475
14.0501
14.053
14.0563
14.0599
14.0639
14.0683
14.0731
14.0783
14.084
14.0903
14.097
14.1043
14.1122
14.1208
14.1301
14.14
14.1508
14.1624
14.1748
14.1883
14.2027
14.2182
14.2349
14.2528
14.272
14.2926
14.3147
14.3384
14.3638
14.3909
14.4199
14.4509
14.484
14.5193
14.557
14.597
14.6397
14.685
14.7331
14.784
14.8379
14.8947
14.9547
15.0176
15.0836
15.1526
15.2243
15.2986
15.3751
15.4535
15.5332
15.6135
15.6935
15.7722
15.8483
15.9204
15.9869
16.0457
16.0948
16.1321
16.1551
16.162
16.1511
16.1217
16.044
16.093
16.13
16.1529
16.1596
16.0164
16.0633
16.0981
16.1187
16.1231
13.946
13.9458
13.9453
13.9444
13.9433
13.942
13.9403
13.9382
13.9359
13.9333
13.9303
13.927
13.9232
13.9191
13.9146
13.9097
13.9042
13.8983
13.8918
13.8847
13.877
13.8686
13.8595
13.8496
13.8389
13.8273
13.8148
13.8012
13.7865
13.7706
13.7535
13.735
13.715
13.6934
13.6702
13.6451
13.6181
13.589
13.5576
13.5238
13.4875
13.4483
13.4062
13.3609
13.3123
13.26
13.2038
13.1436
13.079
13.0097
12.9355
12.8561
12.7712
12.6804
12.5835
12.4801
12.3698
12.2524
12.1275
11.9947
11.8537
11.7043
11.546
11.3786
11.2018
11.0154
10.8193
10.6131
10.3968
10.1703
9.93337
9.68613
9.42852
9.16057
13.9462
13.946
13.9455
13.9447
13.9436
13.9422
13.9405
13.9385
13.9362
13.9336
13.9306
13.9273
13.9236
13.9195
13.915
13.9101
13.9047
13.8987
13.8923
13.8852
13.8776
13.8692
13.8602
13.8504
13.8397
13.8282
13.8157
13.8022
13.7876
13.7718
13.7547
13.7363
13.7164
13.695
13.6718
13.6469
13.62
13.591
13.5598
13.5262
13.4899
13.451
13.409
13.364
13.3155
13.2634
13.2075
13.1475
13.0832
13.0142
12.9403
12.8611
12.7765
12.686
12.5894
12.4863
12.3764
12.2593
12.1347
12.0022
11.8616
11.7125
11.5545
11.3874
11.2109
11.0249
10.829
10.623
10.407
10.1806
9.94389
9.69679
9.43929
9.17141
13.9467
13.9465
13.946
13.9452
13.9441
13.9427
13.9411
13.9391
13.9368
13.9342
13.9313
13.928
13.9243
13.9203
13.9158
13.9109
13.9056
13.8997
13.8933
13.8863
13.8787
13.8705
13.8615
13.8518
13.8413
13.8299
13.8175
13.8041
13.7897
13.774
13.7571
13.7389
13.7192
13.698
13.6751
13.6504
13.6237
13.595
13.5641
13.5308
13.4949
13.4562
13.4147
13.37
13.322
13.2703
13.2149
13.1554
13.0915
13.023
12.9497
12.8711
12.7871
12.6972
12.6012
12.4988
12.3895
12.2731
12.1492
12.0174
11.8774
11.729
11.5717
11.4052
11.2294
11.0439
10.8485
10.6431
10.4275
10.2016
9.96524
9.71845
9.4612
9.19352
13.9474
13.9472
13.9467
13.9459
13.9448
13.9435
13.9419
13.9399
13.9377
13.9351
13.9322
13.929
13.9254
13.9214
13.917
13.9122
13.9069
13.9011
13.8949
13.888
13.8805
13.8724
13.8636
13.854
13.8437
13.8324
13.8202
13.8071
13.7928
13.7774
13.7608
13.7428
13.7234
13.7025
13.6799
13.6556
13.6293
13.601
13.5705
13.5376
13.5023
13.4641
13.4231
13.379
13.3316
13.2806
13.2259
13.1671
13.104
13.0363
12.9638
12.8861
12.8029
12.714
12.619
12.5175
12.4092
12.2938
12.1709
12.0401
11.9012
11.7537
11.5974
11.4319
11.257
11.0724
10.8779
10.6733
10.4584
10.2331
9.99737
9.75105
9.4942
9.22681
13.9483
13.9481
13.9476
13.9469
13.9458
13.9445
13.9429
13.941
13.9388
13.9363
13.9335
13.9303
13.9268
13.9229
13.9186
13.9139
13.9087
13.9031
13.8969
13.8902
13.8829
13.8749
13.8663
13.8569
13.8468
13.8358
13.8238
13.8109
13.797
13.7819
13.7656
13.748
13.729
13.7085
13.6863
13.6625
13.6367
13.6089
13.579
13.5468
13.512
13.4746
13.4343
13.391
13.3444
13.2943
13.2405
13.1826
13.1205
13.0539
12.9825
12.906
12.824
12.7363
12.6425
12.5423
12.4354
12.3213
12.1997
12.0704
11.9328
11.7867
11.6317
11.4675
11.2939
11.1105
10.9171
10.7136
10.4997
10.2753
10.0403
9.79469
9.53838
9.27144
13.9494
13.9493
13.9488
13.9481
13.947
13.9458
13.9442
13.9424
13.9402
13.9378
13.935
13.9319
13.9285
13.9247
13.9205
13.9159
13.9109
13.9054
13.8994
13.8929
13.8858
13.878
13.8696
13.8605
13.8506
13.8399
13.8283
13.8157
13.8021
13.7874
13.7716
13.7544
13.7359
13.7159
13.6943
13.671
13.6459
13.6188
13.5896
13.5581
13.5242
13.4876
13.4482
13.4059
13.3603
13.3113
13.2586
13.2019
13.1411
13.0758
13.0058
12.9306
12.8502
12.764
12.6718
12.5732
12.4679
12.3555
12.2357
12.1081
11.9722
11.8278
11.6745
11.512
11.3399
11.1581
10.9662
10.764
10.5514
10.3281
10.0942
9.8494
9.59383
9.32745
13.9508
13.9506
13.9502
13.9495
13.9485
13.9473
13.9457
13.944
13.9419
13.9395
13.9368
13.9339
13.9305
13.9269
13.9228
13.9184
13.9135
13.9082
13.9024
13.8961
13.8892
13.8817
13.8736
13.8648
13.8552
13.8448
13.8336
13.8214
13.8083
13.794
13.7786
13.762
13.744
13.7247
13.7037
13.6811
13.6568
13.6305
13.6021
13.5715
13.5386
13.503
13.4648
13.4236
13.3792
13.3315
13.2801
13.2249
13.1656
13.1019
13.0334
12.96
12.8813
12.797
12.7067
12.6101
12.5068
12.3965
12.2787
12.1531
12.0193
11.877
11.7258
11.5653
11.3951
11.2152
11.025
10.8246
10.6135
10.3917
10.1589
9.91527
9.66061
9.39498
13.9524
13.9522
13.9518
13.9511
13.9502
13.949
13.9475
13.9458
13.9438
13.9415
13.939
13.9361
13.9329
13.9294
13.9255
13.9212
13.9166
13.9115
13.9059
13.8998
13.8932
13.886
13.8782
13.8697
13.8605
13.8505
13.8397
13.828
13.8153
13.8016
13.7868
13.7708
13.7535
13.7348
13.7146
13.6928
13.6693
13.6439
13.6166
13.587
13.5552
13.5208
13.4838
13.444
13.401
13.3548
13.305
13.2515
13.1939
13.132
13.0655
12.9941
12.9175
12.8353
12.7472
12.6529
12.5519
12.4439
12.3286
12.2054
12.0741
11.9343
11.7854
11.6273
11.4595
11.2817
11.0937
10.8953
10.6861
10.4659
10.2348
9.99241
9.73888
9.47417
13.9542
13.954
13.9536
13.9529
13.952
13.9509
13.9495
13.9479
13.946
13.9438
13.9413
13.9386
13.9356
13.9322
13.9285
13.9244
13.92
13.9151
13.9098
13.904
13.8977
13.8908
13.8833
13.8752
13.8664
13.8569
13.8466
13.8354
13.8233
13.8102
13.796
13.7806
13.7641
13.7462
13.7269
13.706
13.6835
13.6591
13.6329
13.6045
13.5739
13.541
13.5054
13.467
13.4257
13.3811
13.3331
13.2815
13.2259
13.1661
13.1017
13.0326
12.9583
12.8786
12.7931
12.7014
12.6031
12.4978
12.3853
12.265
12.1365
11.9994
11.8534
11.698
11.5329
11.3578
11.1723
10.9762
10.7692
10.5511
10.3217
10.081
9.8288
9.56521
13.9561
13.956
13.9556
13.9549
13.9541
13.953
13.9517
13.9501
13.9483
13.9463
13.944
13.9414
13.9385
13.9353
13.9318
13.928
13.9237
13.9191
13.9141
13.9086
13.9026
13.8961
13.889
13.8814
13.873
13.864
13.8542
13.8436
13.8321
13.8196
13.8061
13.7916
13.7758
13.7588
13.7405
13.7206
13.6991
13.676
13.6509
13.6239
13.5947
13.5632
13.5293
13.4926
13.453
13.4104
13.3644
13.3148
13.2614
13.204
13.1421
13.0755
13.0039
12.9269
12.8442
12.7554
12.6602
12.5581
12.4486
12.3315
12.2062
12.0724
11.9296
11.7774
11.6154
11.4432
11.2606
11.0672
10.8628
10.6471
10.4199
10.181
9.93049
9.66827
13.9582
13.9581
13.9577
13.9571
13.9564
13.9553
13.9541
13.9526
13.9509
13.949
13.9468
13.9444
13.9417
13.9387
13.9354
13.9318
13.9278
13.9235
13.9188