/*--------------------------------*- C++ -*----------------------------------*\
  =========                 |
  \\      /  F ield         | OpenFOAM: The Open Source CFD Toolbox
   \\    /   O peration     | Website:  https://openfoam.org
    \\  /    A nd           | Version:  13
     \\/     M anipulation  |
\*---------------------------------------------------------------------------*/
FoamFile
{
    format      ascii;
    class       volScalarField;
    location    "700";
    object      k;
}
// * * * * * * * * * * * * * * * * * * * * * * * * * * * * * * * * * * * * * //

dimensions      [0 2 -2 0 0 0 0];

internalField   nonuniform List<scalar> 
171634
(
0.343727
0.341891
0.34008
0.33829
0.336519
0.334764
0.333025
0.3313
0.329588
0.327888
0.326201
0.324527
0.322865
0.321217
0.319584
0.317966
0.316364
0.314779
0.313211
0.311662
0.31013
0.308616
0.343749
0.341916
0.340107
0.338319
0.336551
0.334799
0.333062
0.331339
0.329628
0.327929
0.326242
0.324567
0.322905
0.321257
0.319623
0.318004
0.316401
0.314815
0.313247
0.311696
0.310164
0.30865
0.343797
0.341971
0.340168
0.338386
0.336623
0.334876
0.333143
0.331423
0.329714
0.328016
0.32633
0.324655
0.322992
0.321342
0.319706
0.318085
0.31648
0.314892
0.313321
0.311768
0.310234
0.308719
0.34387
0.342053
0.340259
0.338486
0.336731
0.334991
0.333264
0.331549
0.329843
0.328148
0.326462
0.324787
0.323123
0.321471
0.319833
0.318209
0.316601
0.315009
0.313435
0.311879
0.310343
0.308825
0.343975
0.342171
0.340391
0.338631
0.336888
0.335158
0.33344
0.331732
0.330032
0.328339
0.326655
0.32498
0.323315
0.32166
0.320018
0.318391
0.316778
0.315182
0.313604
0.312044
0.310504
0.308984
0.344116
0.342331
0.340569
0.338827
0.3371
0.335386
0.33368
0.331982
0.330289
0.328602
0.326921
0.325246
0.323579
0.321922
0.320276
0.318643
0.317026
0.315425
0.313841
0.312277
0.310733
0.30921
0.344301
0.342541
0.340805
0.339088
0.337384
0.33569
0.334002
0.332318
0.330637
0.328958
0.327281
0.325608
0.32394
0.32228
0.32063
0.318992
0.317368
0.315761
0.314172
0.312603
0.311055
0.309528
0.344541
0.342816
0.341114
0.33943
0.337758
0.336093
0.33443
0.332767
0.331102
0.329435
0.327766
0.326096
0.324429
0.322767
0.321113
0.31947
0.31784
0.316227
0.314633
0.313058
0.311506
0.309976
0.344852
0.343173
0.341518
0.33988
0.338252
0.336627
0.335
0.333367
0.331726
0.330077
0.328421
0.326759
0.325096
0.323434
0.321777
0.320129
0.318494
0.316876
0.315276
0.313697
0.31214
0.310608
0.345253
0.343637
0.342047
0.340474
0.338908
0.33734
0.335764
0.334176
0.332571
0.330951
0.329315
0.327668
0.326013
0.324354
0.322697
0.321048
0.319409
0.317786
0.316182
0.3146
0.313041
0.311508
0.345773
0.344245
0.342746
0.341263
0.339786
0.338301
0.336801
0.335278
0.333729
0.332153
0.330552
0.328929
0.32729
0.325642
0.32399
0.322342
0.320702
0.319078
0.317472
0.315889
0.314331
0.312799
0.346451
0.345045
0.343675
0.342325
0.340977
0.339616
0.338229
0.336805
0.335341
0.333834
0.332287
0.330706
0.329096
0.327467
0.325828
0.324186
0.32255
0.320928
0.319324
0.317742
0.316187
0.314659
0.347342
0.346111
0.344928
0.343772
0.342618
0.341443
0.340227
0.338956
0.337622
0.336223
0.334762
0.333245
0.331683
0.330086
0.328467
0.326838
0.325209
0.323591
0.32199
0.320411
0.31886
0.317339
0.34852
0.347543
0.346638
0.345774
0.344914
0.344022
0.343068
0.342029
0.340893
0.339656
0.338322
0.336901
0.335406
0.333854
0.332261
0.330646
0.329023
0.327405
0.325803
0.324224
0.322673
0.321153
0.350092
0.349488
0.348996
0.348569
0.348149
0.347682
0.347116
0.346417
0.345566
0.344558
0.343398
0.342102
0.34069
0.339186
0.337614
0.336001
0.33437
0.332737
0.331117
0.329521
0.327954
0.326422
0.352191
0.352118
0.352207
0.352387
0.352575
0.352688
0.352656
0.352424
0.35196
0.351256
0.350322
0.349178
0.347854
0.346387
0.344815
0.343176
0.341503
0.339822
0.338153
0.336509
0.334898
0.333328
0.354915
0.355473
0.356187
0.357008
0.357867
0.358685
0.359381
0.35982
0.359908
0.359641
0.359024
0.358086
0.356872
0.355439
0.353846
0.35215
0.350398
0.348631
0.346876
0.345151
0.343468
0.341834
0.357957
0.359069
0.360441
0.362011
0.36368
0.36532
0.366802
0.368026
0.368924
0.369386
0.369294
0.368684
0.367634
0.366241
0.36461
0.362834
0.360987
0.359122
0.357277
0.355475
0.353732
0.352056
0.361191
0.363051
0.365339
0.367987
0.370852
0.373723
0.376364
0.378588
0.380295
0.38145
0.382049
0.381838
0.380955
0.379573
0.37787
0.37599
0.37404
0.372094
0.3702
0.368387
0.366671
0.365063
0.394615
0.392821
0.391021
0.389297
0.387697
0.386245
0.384958
0.383844
0.417253
0.416277
0.415479
0.41491
0.414585
0.414496
0.414619
0.414921
0.352586
0.351117
0.350426
0.350833
0.356524
0.354599
0.352912
0.351757
0.351565
0.352321
0.353879
0.356579
0.354733
0.353197
0.352309
0.352529
0.353552
0.355423
0.356624
0.354826
0.353379
0.352643
0.353007
0.354187
0.356243
0.359087
0.356622
0.354824
0.353377
0.35264
0.353004
0.354183
0.356237
0.359079
0.362587
0.36056
0.358548
0.356576
0.354729
0.353192
0.352303
0.352522
0.353544
0.355412
0.358051
0.36464
0.362595
0.360561
0.358531
0.35652
0.354592
0.352904
0.351748
0.351554
0.352309
0.353866
0.356163
0.364655
0.36261
0.36057
0.35852
0.356463
0.354441
0.352574
0.351103
0.35041
0.350816
0.351978
0.353871
0.364683
0.362643
0.360604
0.358543
0.35645
0.354346
0.352317
0.350554
0.34939
0.349261
0.350061
0.351597
0.364727
0.362699
0.360672
0.358617
0.356513
0.354361
0.35222
0.350242
0.348722
0.348096
0.34861
0.349895
0.351894
0.366822
0.364789
0.362786
0.360787
0.358763
0.356683
0.354537
0.35236
0.35028
0.348568
0.347669
0.348029
0.349218
0.351223
0.368942
0.366879
0.364872
0.362905
0.360955
0.358992
0.356984
0.354911
0.352797
0.350754
0.349049
0.348152
0.348539
0.34984
0.352081
0.368986
0.366946
0.364974
0.363057
0.361179
0.359312
0.357428
0.355512
0.353582
0.35175
0.350297
0.349742
0.350383
0.352067
0.354894
0.369035
0.367022
0.365091
0.363238
0.361452
0.35972
0.358023
0.35636
0.354763
0.353366
0.352493
0.352688
0.353874
0.356365
0.360342
0.365951
0.372937
0.381037
0.389949
0.369085
0.367101
0.365217
0.363437
0.361764
0.360201
0.358753
0.357449
0.356362
0.355675
0.355762
0.356668
0.358915
0.363108
0.369623
0.378898
0.388718
0.391404
0.401426
0.369132
0.367177
0.365341
0.36364
0.362092
0.360724
0.359578
0.358731
0.358321
0.358489
0.359315
0.361299
0.365304
0.372892
0.384612
0.38867
0.402373
0.420411
0.441018
0.461881
0.369172
0.367243
0.365452
0.363827
0.362405
0.36124
0.36042
0.36008
0.360297
0.361074
0.362767
0.366038
0.372274
0.384128
0.38953
0.412017
0.449672
0.500323
0.527021
0.552214
0.570432
0.3692
0.367291
0.365538
0.363977
0.362666
0.361686
0.361167
0.361281
0.361889
0.363223
0.365699
0.370109
0.378093
0.39249
0.400688
0.438414
0.518327
0.597985
0.742076
0.80377
0.814977
0.842161
0.369213
0.367316
0.365586
0.364071
0.362839
0.361996
0.361703
0.362028
0.362928
0.364658
0.367652
0.372697
0.381303
0.395663
0.405432
0.443731
0.518338
0.607001
0.82847
1.15442
1.09442
1.42376
0.369208
0.367313
0.365592
0.364096
0.362902
0.362127
0.361949
0.362376
0.363412
0.3653
0.368437
0.373488
0.38162
0.394708
0.414093
0.428569
0.478144
0.538954
0.615556
0.726875
0.854387
0.968157
1.10031
1.08626
1.10503
0.369187
0.367283
0.365554
0.36405
0.36285
0.36207
0.361884
0.362316
0.363335
0.365158
0.368104
0.372663
0.379593
0.390073
0.404897
0.423609
0.439575
0.481707
0.526446
0.572504
0.61116
0.623957
0.617085
0.610598
0.557076
0.555487
0.555377
0.554111
0.546222
0.5332
0.516627
0.49807
0.47887
0.460038
0.442256
0.425177
0.409566
0.39578
0.383903
0.374023
0.366045
0.359531
0.36915
0.367228
0.365475
0.36394
0.362693
0.361844
0.361549
0.361901
0.362787
0.364378
0.366911
0.370718
0.376267
0.384211
0.395214
0.409039
0.424621
0.435505
0.46436
0.491069
0.510854
0.521706
0.525632
0.504599
0.503957
0.505309
0.507449
0.509082
0.510142
0.510202
0.509061
0.506154
0.501084
0.494047
0.48534
0.475264
0.464177
0.452443
0.440396
0.428338
0.416527
0.405167
0.394502
0.369101
0.367154
0.365365
0.363779
0.362458
0.361495
0.361023
0.361211
0.361889
0.363158
0.365182
0.368176
0.372415
0.378245
0.386035
0.395795
0.40666
0.417499
0.427785
0.436719
0.443413
0.447663
0.449848
0.450534
0.450723
0.451335
0.452353
0.453728
0.455367
0.457178
0.459034
0.460776
0.462178
0.463046
0.463292
0.462873
0.461787
0.460063
0.457752
0.454902
0.451541
0.447642
0.443106
0.37114
0.369043
0.367065
0.365234
0.363586
0.362174
0.361072
0.360386
0.360258
0.360702
0.361627
0.363142
0.365377
0.368486
0.372636
0.377974
0.384494
0.391761
0.398969
0.405609
0.411224
0.415487
0.418312
0.419836
0.42021
0.4196
0.418638
0.41764
0.416749
0.41604
0.415558
0.415316
0.415297
0.415466
0.415783
0.416218
0.416758
0.417414
0.418219
0.419233
0.420526
0.422135
0.423847
0.425588
0.371101
0.36898
0.366969
0.365091
0.363376
0.361867
0.36062
0.359716
0.359261
0.359369
0.359951
0.360988
0.362555
0.36473
0.367583
0.371148
0.375376
0.380049
0.384784
0.389169
0.392864
0.395684
0.397582
0.398612
0.398681
0.397863
0.396504
0.394862
0.393111
0.391367
0.389708
0.388179
0.386806
0.3856
0.384567
0.383715
0.383059
0.382626
0.382459
0.382626
0.383211
0.384314
0.386007
0.388301
0.371061
0.368916
0.366871
0.364946
0.363164
0.361559
0.360173
0.359064
0.358306
0.357993
0.358202
0.358816
0.359816
0.361239
0.363104
0.365398
0.368056
0.370937
0.373831
0.376498
0.378751
0.380478
0.381647
0.382227
0.381992
0.381092
0.379705
0.378006
0.376139
0.37421
0.372294
0.370435
0.368663
0.366991
0.365432
0.363995
0.362693
0.361545
0.360579
0.359838
0.359377
0.359264
0.359574
0.360369
0.371023
0.368854
0.366776
0.364806
0.362961
0.361266
0.359753
0.358463
0.357444
0.356761
0.356479
0.356643
0.357182
0.358011
0.359129
0.360508
0.362087
0.363767
0.365422
0.366921
0.36816
0.36907
0.369529
0.369424
0.368797
0.367731
0.366328
0.364691
0.362914
0.361071
0.359216
0.357384
0.355599
0.353875
0.352221
0.350646
0.349157
0.347765
0.346486
0.34534
0.344356
0.343569
0.34302
0.342748
0.370987
0.368795
0.366687
0.364675
0.362772
0.360997
0.359374
0.357928
0.356694
0.35571
0.355018
0.354658
0.354647
0.354974
0.355538
0.356258
0.357086
0.357955
0.358783
0.359489
0.359937
0.360029
0.359759
0.359134
0.358185
0.35696
0.355516
0.353916
0.352217
0.350467
0.348701
0.346949
0.34523
0.343555
0.341931
0.340364
0.338859
0.337421
0.336059
0.334782
0.333605
0.332549
0.331626
0.330854
0.370954
0.368742
0.366606
0.364556
0.362602
0.360758
0.359039
0.357465
0.356057
0.354837
0.353829
0.353055
0.352528
0.352247
0.352182
0.352279
0.352469
0.352666
0.352788
0.352763
0.352537
0.352075
0.35137
0.350431
0.34928
0.347949
0.346475
0.344897
0.343254
0.341578
0.339896
0.338227
0.336585
0.334978
0.333412
0.33189
0.330417
0.328996
0.32763
0.326325
0.325086
0.323923
0.322843
0.321852
0.370926
0.368696
0.366535
0.364451
0.362452
0.360549
0.358751
0.357072
0.355525
0.354122
0.352877
0.351798
0.350889
0.350145
0.349548
0.349063
0.348644
0.348232
0.347772
0.347213
0.346518
0.34567
0.344662
0.343501
0.342202
0.340786
0.339277
0.337703
0.336087
0.334453
0.332819
0.3312
0.329604
0.328039
0.32651
0.325019
0.323569
0.322162
0.320801
0.319487
0.318224
0.317015
0.315863
0.314771
0.370902
0.368655
0.366473
0.36436
0.362323
0.36037
0.358507
0.356743
0.355086
0.353543
0.352119
0.350818
0.349638
0.34857
0.347598
0.346699
0.345841
0.344988
0.344102
0.343153
0.342118
0.340985
0.339749
0.338416
0.336994
0.335497
0.333943
0.33235
0.330733
0.329109
0.327492
0.32589
0.324312
0.322762
0.321245
0.319762
0.318316
0.316908
0.315538
0.314209
0.312921
0.311677
0.310476
0.30932
0.370883
0.368621
0.36642
0.364282
0.362213
0.360218
0.358302
0.35647
0.354726
0.353075
0.351519
0.350055
0.348681
0.347388
0.346162
0.344984
0.343833
0.342684
0.341514
0.340303
0.339035
0.337704
0.336308
0.334848
0.333332
0.33177
0.330173
0.328554
0.326925
0.325297
0.323679
0.322079
0.320502
0.318953
0.317433
0.315946
0.314492
0.313072
0.311687
0.310337
0.309024
0.307747
0.306506
0.3053
0.370867
0.368593
0.366375
0.364217
0.362121
0.360092
0.358132
0.356245
0.354434
0.3527
0.351043
0.34946
0.347947
0.346495
0.345093
0.343728
0.342382
0.341038
0.339681
0.338298
0.336878
0.335417
0.333913
0.332368
0.330788
0.32918
0.327552
0.325913
0.324273
0.322639
0.321017
0.319415
0.317835
0.316282
0.314757
0.313262
0.311797
0.310365
0.308964
0.307594
0.306257
0.304952
0.303677
0.302433
0.370855
0.368571
0.366339
0.364163
0.362045
0.359987
0.357992
0.356062
0.354198
0.352399
0.350666
0.348994
0.347379
0.345814
0.34429
0.342795
0.341316
0.339843
0.338362
0.336866
0.335346
0.3338
0.332227
0.330628
0.329008
0.327371
0.325725
0.324075
0.322428
0.320791
0.319169
0.317565
0.315984
0.314429
0.312899
0.311398
0.309926
0.308482
0.307068
0.305684
0.304327
0.303
0.301699
0.300424
0.370846
0.368553
0.36631
0.364119
0.361982
0.359902
0.357878
0.355913
0.354007
0.352159
0.350367
0.348629
0.346939
0.345292
0.34368
0.342094
0.340524
0.338961
0.337397
0.335825
0.33424
0.332639
0.331021
0.329389
0.327744
0.326092
0.324436
0.322781
0.321134
0.319498
0.317877
0.316276
0.314696
0.313141
0.31161
0.310106
0.308628
0.307178
0.305755
0.304358
0.302988
0.301643
0.300322
0.299025
0.37084
0.368539
0.366286
0.364083
0.361931
0.359832
0.357785
0.355793
0.353854
0.351967
0.350131
0.348342
0.346597
0.34489
0.343214
0.341563
0.339928
0.338303
0.336682
0.335058
0.333429
0.331791
0.330145
0.328492
0.326834
0.325173
0.323513
0.321859
0.320215
0.318583
0.316967
0.31537
0.313793
0.31224
0.310711
0.309206
0.307726
0.306272
0.304842
0.303437
0.302057
0.300699
0.299363
0.298047
0.370836
0.368528
0.366267
0.364054
0.36189
0.359775
0.357711
0.355696
0.353731
0.351814
0.349944
0.348117
0.34633
0.344578
0.342856
0.341157
0.339476
0.337808
0.336146
0.334486
0.332826
0.331165
0.329501
0.327835
0.326169
0.324505
0.322846
0.321194
0.319554
0.317928
0.316318
0.314726
0.313155
0.311605
0.310078
0.308574
0.307094
0.305637
0.304204
0.302793
0.301405
0.300037
0.29869
0.297361
0.370833
0.36852
0.366253
0.364032
0.361857
0.35973
0.357651
0.355619
0.353634
0.351694
0.349797
0.347941
0.346123
0.344337
0.34258
0.340847
0.339133
0.337432
0.335741
0.334056
0.332376
0.330698
0.329022
0.327348
0.325678
0.324014
0.322357
0.32071
0.319075
0.317454
0.31585
0.314265
0.312699
0.311153
0.309629
0.308127
0.306648
0.30519
0.303754
0.30234
0.300946
0.299571
0.298214
0.296875
0.370831
0.368514
0.366241
0.364014
0.361831
0.359695
0.357604
0.355558
0.353557
0.351599
0.349682
0.347804
0.345962
0.344151
0.342369
0.34061
0.338871
0.337147
0.335435
0.333733
0.332038
0.330349
0.328665
0.326987
0.325315
0.323651
0.321997
0.320355
0.318725
0.31711
0.315512
0.313932
0.312371
0.31083
0.309309
0.30781
0.306331
0.304873
0.303436
0.302019
0.30062
0.29924
0.297876
0.296528
0.37083
0.36851
0.366233
0.364
0.361811
0.359667
0.357567
0.355511
0.353497
0.351526
0.349594
0.347699
0.345839
0.34401
0.342208
0.340431
0.338674
0.336933
0.335207
0.333492
0.331786
0.330089
0.3284
0.326719
0.325047
0.323385
0.321734
0.320095
0.318471
0.316861
0.315268
0.313693
0.312136
0.310599
0.309082
0.307584
0.306107
0.304649
0.303211
0.301791
0.30039
0.299005
0.297636
0.296281
0.37083
0.368507
0.366227
0.36399
0.361796
0.359646
0.357539
0.355475
0.353453
0.351471
0.349527
0.34762
0.345747
0.343904
0.342089
0.340298
0.338528
0.336776
0.335039
0.333314
0.331602
0.329899
0.328207
0.326525
0.324853
0.323192
0.321543
0.319908
0.318287
0.316682
0.315094
0.313523
0.31197
0.310436
0.308921
0.307425
0.305949
0.304492
0.303053
0.301632
0.300228
0.29884
0.297467
0.296107
0.37083
0.368505
0.366223
0.363983
0.361786
0.359632
0.35752
0.35545
0.353422
0.351432
0.349481
0.347566
0.345683
0.343831
0.342006
0.340206
0.338427
0.336667
0.334922
0.333192
0.331475
0.329769
0.328074
0.326391
0.324719
0.32306
0.321413
0.319781
0.318163
0.316561
0.314976
0.313408
0.311858
0.310326
0.308813
0.307319
0.305843
0.304386
0.302947
0.301525
0.300119
0.298729
0.297353
0.295989
0.37083
0.368504
0.36622
0.363979
0.361779
0.359622
0.357508
0.355434
0.353401
0.351407
0.34945
0.347529
0.345641
0.343782
0.341951
0.340145
0.33836
0.336594
0.334845
0.333111
0.33139
0.329682
0.327986
0.326302
0.324631
0.322972
0.321327
0.319696
0.318081
0.316481
0.314898
0.313332
0.311784
0.310255
0.308743
0.30725
0.305775
0.304318
0.302879
0.301456
0.300049
0.298657
0.297279
0.295914
0.370831
0.368504
0.36622
0.363978
0.361777
0.359619
0.357503
0.355428
0.353393
0.351397
0.349438
0.347514
0.345623
0.343762
0.341928
0.340119
0.338331
0.336563
0.334811
0.333075
0.331353
0.329644
0.327947
0.326263
0.324592
0.322933
0.321289
0.319659
0.318044
0.316445
0.314863
0.313298
0.311751
0.310222
0.308711
0.307218
0.305744
0.304287
0.302847
0.301424
0.300016
0.298623
0.297244
0.295878
0.343722
0.341885
0.340073
0.338283
0.336512
0.334758
0.333019
0.331294
0.329582
0.327883
0.326196
0.324522
0.322861
0.321214
0.319582
0.317964
0.316363
0.314779
0.313212
0.311663
0.310132
0.30862
0.343744
0.34191
0.340101
0.338313
0.336545
0.334793
0.333056
0.331333
0.329622
0.327923
0.326237
0.324563
0.322902
0.321254
0.319621
0.318003
0.316401
0.314816
0.313248
0.311698
0.310167
0.308654
0.343792
0.341965
0.340162
0.33838
0.336617
0.33487
0.333137
0.331417
0.329708
0.328011
0.326325
0.324651
0.322989
0.32134
0.319705
0.318084
0.31648
0.314893
0.313323
0.311771
0.310238
0.308724
0.343865
0.342047
0.340254
0.33848
0.336725
0.334985
0.333258
0.331543
0.329838
0.328143
0.326458
0.324783
0.32312
0.321469
0.319832
0.318209
0.316601
0.315011
0.313438
0.311883
0.310347
0.308831
0.343971
0.342166
0.340386
0.338626
0.336882
0.335153
0.333435
0.331726
0.330026
0.328335
0.326651
0.324977
0.323312
0.321659
0.320018
0.318391
0.31678
0.315185
0.313608
0.312049
0.310511
0.308992
0.344112
0.342327
0.340565
0.338822
0.337095
0.33538
0.333675
0.331977
0.330284
0.328598
0.326917
0.325243
0.323577
0.321921
0.320276
0.318645
0.317028
0.315428
0.313847
0.312284
0.310741
0.30922
0.344298
0.342538
0.340801
0.339083
0.337378
0.335684
0.333996
0.332312
0.330631
0.328952
0.327276
0.325604
0.323937
0.322278
0.320629
0.318993
0.31737
0.315765
0.314178
0.31261
0.311064
0.309539
0.344538
0.342811
0.341109
0.339424
0.337751
0.336085
0.334421
0.332758
0.331093
0.329426
0.327758
0.326089
0.324423
0.322762
0.321109
0.319468
0.31784
0.316228
0.314635
0.313063
0.311512
0.309984
0.344846
0.343166
0.34151
0.339871
0.338241
0.336615
0.334987
0.333353
0.331712
0.330063
0.328407
0.326746
0.325083
0.323422
0.321767
0.320121
0.318488
0.316871
0.315273
0.313696
0.312142
0.310612
0.345245
0.343627
0.342035
0.34046
0.338891
0.337322
0.335744
0.334154
0.332548
0.330927
0.329292
0.327645
0.32599
0.324333
0.322678
0.32103
0.319393
0.317773
0.316171
0.314591
0.313036
0.311505
0.345762
0.344231
0.342728
0.341243
0.339762
0.338274
0.33677
0.335245
0.333693
0.332116
0.330514
0.328891
0.327253
0.325606
0.323956
0.322309
0.320673
0.319051
0.317449
0.315869
0.314314
0.312786
0.346436
0.345026
0.343652
0.342296
0.340943
0.339576
0.338183
0.336755
0.335286
0.333777
0.332228
0.330646
0.329037
0.32741
0.325773
0.324134
0.322502
0.320884
0.319284
0.317707
0.316157
0.314634
0.347322
0.346086
0.344897
0.343733
0.34257
0.341385
0.34016
0.338881
0.33754
0.336136
0.334672
0.333155
0.331594
0.33
0.328385
0.326761
0.325139
0.323527
0.321933
0.320363
0.318819
0.317305
0.348497
0.347513
0.346598
0.345722
0.344849
0.343942
0.342972
0.341919
0.340772
0.339528
0.338191
0.336771
0.335279
0.333733
0.332149
0.330544
0.328932
0.327327
0.325737
0.324171
0.322633
0.321127
0.350068
0.349456
0.348952
0.348508
0.348068
0.347576
0.346986
0.346265
0.345398
0.34438
0.343218
0.341927
0.340526
0.339036
0.337483
0.33589
0.33428
0.33267
0.331073
0.3295
0.327956
0.326447
0.352175
0.352095
0.352171
0.352332
0.352493
0.352573
0.352506
0.352241
0.351753
0.351037
0.350106
0.348977
0.347679
0.346245
0.344711
0.343113
0.341482
0.339844
0.338217
0.336614
0.335044
0.333513
0.354926
0.355488
0.3562
0.357013
0.357854
0.358642
0.3593
0.359676
0.359722
0.359436
0.358829
0.357927
0.356769
0.355403
0.353885
0.352266
0.350594
0.348905
0.347225
0.345572
0.343958
0.342391
0.358023
0.359154
0.360543
0.36212
0.363775
0.365377
0.366801
0.367962
0.368808
0.369235
0.369164
0.368634
0.367706
0.366457
0.364977
0.363352
0.361648
0.359919
0.3582
0.356514
0.354878
0.353302
0.361353
0.363273
0.36563
0.368339
0.371219
0.374034
0.376561
0.378652
0.380247
0.381338
0.38195
0.381915
0.381293
0.380216
0.378859
0.377311
0.375648
0.37393
0.372212
0.370549
0.368959
0.367454
0.396597
0.395314
0.393896
0.392429
0.390963
0.389574
0.388295
0.38714
0.420208
0.419736
0.41914
0.418499
0.417912
0.417457
0.417129
0.416926
0.353359
0.352208
0.351954
0.352705
0.356963
0.355225
0.353812
0.353058
0.353392
0.354557
0.356666
0.357052
0.355417
0.354195
0.353763
0.354373
0.355893
0.358438
0.357115
0.355541
0.354431
0.354182
0.354938
0.356648
0.359433
0.363251
0.357113
0.355539
0.354428
0.354179
0.354934
0.356643
0.359427
0.363241
0.362747
0.360789
0.358876
0.357049
0.355412
0.35419
0.353757
0.354366
0.355885
0.358429
0.361952
0.364747
0.362748
0.360778
0.358839
0.356958
0.355217
0.353804
0.353048
0.353382
0.354546
0.356654
0.359662
0.364756
0.362752
0.36077
0.358801
0.356856
0.354992
0.353347
0.352194
0.351938
0.352689
0.354289
0.356719
0.364776
0.362773
0.360784
0.358793
0.356793
0.354816
0.352955
0.351424
0.350577
0.35085
0.351944
0.353842
0.36481
0.362816
0.360833
0.358836
0.356808
0.354754
0.352735
0.350912
0.349593
0.349226
0.349939
0.351461
0.353734
0.366876
0.364864
0.362889
0.360929
0.358953
0.356935
0.354863
0.352773
0.350793
0.349197
0.348442
0.348919
0.350252
0.352432
0.368976
0.366927
0.364938
0.362996
0.361079
0.359158
0.357201
0.355188
0.353141
0.351169
0.349542
0.348743
0.349217
0.35063
0.353017
0.369017
0.366988
0.365032
0.363137
0.361288
0.359459
0.357623
0.355763
0.353898
0.352144
0.350797
0.3504
0.351175
0.353049
0.356139
0.369062
0.367058
0.365141
0.363308
0.36155
0.359854
0.358207
0.356607
0.355098
0.353835
0.35318
0.353582
0.355107
0.358109
0.362811
0.36913
0.376643
0.385506
0.396257
0.369109
0.367132
0.365261
0.363499
0.361853
0.360328
0.358937
0.357719
0.35677
0.356326
0.356656
0.358005
0.361055
0.3667
0.375137
0.378086
0.386679
0.39782
0.410994
0.369152
0.367204
0.365379
0.363695
0.362174
0.360849
0.359772
0.359043
0.358842
0.359223
0.36046
0.363247
0.368973
0.379392
0.383415
0.399227
0.422754
0.448626
0.468019
0.485175
0.369189
0.367266
0.365486
0.363877
0.362481
0.361364
0.360626
0.360438
0.360807
0.36188
0.364161
0.368687
0.378019
0.395047
0.40554
0.448112
0.493288
0.575619
0.647463
0.693976
0.369215
0.367311
0.365566
0.364021
0.362736
0.361805
0.361378
0.36159
0.362376
0.364058
0.367243
0.373288
0.384388
0.391971
0.423583
0.513593
0.636304
0.737903
0.369225
0.367332
0.365611
0.364109
0.362902
0.362107
0.361906
0.362324
0.363398
0.365471
0.369163
0.375755
0.387217
0.395049
0.429252
0.482666
0.644459
0.369219
0.367327
0.365612
0.364127
0.362956
0.362224
0.362129
0.362639
0.363827
0.36601
0.369732
0.375989
0.386863
0.404398
0.418883
0.477455
0.550989
0.785496
1.01812
0.887735
0.369195
0.367294
0.365569
0.364074
0.362892
0.362147
0.362029
0.362529
0.363671
0.365718
0.36909
0.374484
0.383192
0.39682
0.416483
0.43478
0.490562
0.557327
0.615599
0.653472
0.651481
0.613904
0.584041
0.542617
0.531702
0.50874
0.506579
0.504897
0.5038
0.500822
0.495778
0.489387
0.482056
0.474218
0.466265
0.458504
0.451213
0.444659
0.439115
0.434958
0.432694
0.433302
0.369157
0.367237
0.365487
0.363957
0.362724
0.361901
0.361655
0.362057
0.363032
0.364779
0.36759
0.37191
0.378443
0.388227
0.401728
0.418169
0.431155
0.464788
0.494265
0.512962
0.51913
0.514487
0.506607
0.500235
0.487141
0.486871
0.486841
0.486427
0.486123
0.485545
0.484453
0.482797
0.480637
0.478122
0.475451
0.472452
0.469081
0.465484
0.461827
0.458282
0.454526
0.451467
0.449873
0.369106
0.36716
0.365373
0.363791
0.362479
0.361533
0.361094
0.361337
0.362069
0.363434
0.365623
0.368902
0.373645
0.380363
0.389441
0.400188
0.411391
0.422862
0.433221
0.44123
0.446456
0.449276
0.450519
0.451279
0.451852
0.45233
0.452801
0.453278
0.453788
0.454453
0.455147
0.455787
0.456295
0.456564
0.456619
0.456496
0.456251
0.455964
0.45574
0.455687
0.455712
0.455815
0.456034
0.371144
0.369047
0.36707
0.365239
0.363594
0.362187
0.361095
0.360429
0.360336
0.360816
0.361798
0.363405
0.36579
0.369143
0.373686
0.379589
0.3866
0.393922
0.401034
0.40741
0.412586
0.416338
0.418731
0.420018
0.420529
0.420766
0.420644
0.420314
0.419827
0.419238
0.418631
0.418134
0.417754
0.417488
0.417323
0.417257
0.4173
0.417482
0.417854
0.418493
0.419498
0.420966
0.422781
0.424962
0.371105
0.368984
0.366973
0.365095
0.363381
0.361874
0.360632
0.359738
0.359303
0.359443
0.360055
0.361139
0.362779
0.365064
0.368078
0.371858
0.376293
0.381039
0.385683
0.389845
0.393258
0.395815
0.397537
0.398517
0.398851
0.398492
0.397749
0.396694
0.395416
0.394015
0.392566
0.391149
0.389825
0.388613
0.387525
0.386574
0.385778
0.385162
0.384765
0.384644
0.384871
0.385539
0.386722
0.388491
0.371065
0.368919
0.366874
0.364948
0.363167
0.361562
0.360178
0.359073
0.358325
0.358027
0.358261
0.358896
0.359929
0.361398
0.363323
0.365687
0.368408
0.371306
0.374145
0.3767
0.378823
0.380437
0.381542
0.382152
0.382082
0.381426
0.380324
0.378929
0.377352
0.37567
0.373951
0.372259
0.370626
0.36907
0.367603
0.366237
0.364982
0.363856
0.362882
0.362093
0.361534
0.361261
0.361338
0.361826
0.371026
0.368857
0.366779
0.364807
0.362962
0.361267
0.359754
0.358464
0.357449
0.356771
0.356499
0.356677
0.357228
0.358074
0.35921
0.360606
0.362193
0.363861
0.365477
0.366918
0.368096
0.368953
0.369377
0.369293
0.368743
0.367794
0.366529
0.365036
0.363401
0.361693
0.359962
0.358244
0.356565
0.354938
0.353374
0.35188
0.350463
0.349133
0.347903
0.34679
0.345816
0.34501
0.344406
0.344037
0.37099
0.368798
0.366689
0.364676
0.362772
0.360997
0.359372
0.357926
0.356691
0.355708
0.355018
0.354661
0.354653
0.354982
0.355549
0.356268
0.357088
0.357938
0.358736
0.359405
0.35979
0.359839
0.359551
0.358934
0.35802
0.356848
0.35547
0.353942
0.352315
0.350638
0.348946
0.347266
0.345615
0.344004
0.342442
0.340934
0.339484
0.338097
0.33678
0.335541
0.334393
0.333348
0.332423
0.331632
0.370958
0.368745
0.366609
0.364557
0.362602
0.360757
0.359037
0.357461
0.356051
0.35483
0.35382
0.353044
0.352514
0.352228
0.352156
0.35224
0.352409
0.352579
0.352667
0.352608
0.352348
0.351862
0.351145
0.350208
0.349072
0.347766
0.346324
0.344783
0.343179
0.341543
0.339902
0.338273
0.33667
0.335101
0.333572
0.332086
0.330648
0.329258
0.327922
0.326644
0.325429
0.324284
0.323216
0.322231
0.37093
0.368699
0.366537
0.364452
0.362453
0.360548
0.358749
0.357068
0.355519
0.354113
0.352865
0.351782
0.350869
0.350118
0.349512
0.349015
0.348579
0.348146
0.347661
0.347077
0.346361
0.345496
0.344478
0.343314
0.34202
0.340614
0.33912
0.337563
0.335966
0.334353
0.332741
0.331143
0.32957
0.328027
0.326519
0.325049
0.323619
0.322231
0.320888
0.319591
0.318343
0.317147
0.316006
0.314922
0.370906
0.368658
0.366475
0.364362
0.362324
0.360369
0.358505
0.356739
0.35508
0.353534
0.352108
0.350803
0.349618
0.348544
0.347565
0.346656
0.345786
0.344919
0.344017
0.343053
0.342004
0.340859
0.339616
0.338279
0.336858
0.335365
0.333817
0.332231
0.330624
0.329011
0.327405
0.325816
0.32425
0.322713
0.321208
0.319737
0.318303
0.316905
0.315547
0.314228
0.31295
0.311714
0.310521
0.309371
0.370887
0.368625
0.366422
0.364284
0.362215
0.360218
0.358301
0.356467
0.354722
0.353068
0.351509
0.350042
0.348664
0.347366
0.346134
0.34495
0.343791
0.342633
0.341453
0.340232
0.338956
0.337618
0.336217
0.334754
0.333237
0.331676
0.330082
0.328467
0.326843
0.325221
0.32361
0.322016
0.320447
0.318905
0.317392
0.315912
0.314465
0.313053
0.311674
0.310331
0.309024
0.307752
0.306517
0.305316
0.370871
0.368597
0.366378
0.364219
0.362123
0.360092
0.358132
0.356243
0.354431
0.352694
0.351035
0.349449
0.347933
0.346478
0.345072
0.343701
0.34235
0.341001
0.339638
0.338249
0.336824
0.335359
0.333852
0.332305
0.330725
0.329117
0.327491
0.325854
0.324217
0.322586
0.320969
0.319371
0.317796
0.316247
0.314726
0.313236
0.311776
0.310348
0.308952
0.307587
0.306254
0.304953
0.303682
0.302441
0.370859
0.368574
0.366342
0.364166
0.362047
0.359988
0.357992
0.356061
0.354195
0.352395
0.35066
0.348986
0.347369
0.345801
0.344274
0.342775
0.341293
0.339816
0.338332
0.336832
0.33531
0.333762
0.332187
0.330587
0.328967
0.327331
0.325685
0.324037
0.322393
0.320758
0.319138
0.317538
0.31596
0.314407
0.312882
0.311384
0.309915
0.308475
0.307064
0.305683
0.30433
0.303005
0.301707
0.300435
0.37085
0.368556
0.366313
0.364122
0.361985
0.359903
0.357879
0.355913
0.354005
0.352156
0.350363
0.348623
0.346932
0.345283
0.343668
0.34208
0.340508
0.338943
0.337377
0.335803
0.334216
0.332613
0.330995
0.329363
0.327718
0.326066
0.324411
0.322759
0.321113
0.319479
0.317861
0.316262
0.314685
0.313131
0.311603
0.310102
0.308627
0.307179
0.305759
0.304365
0.302997
0.301654
0.300336
0.29904
0.370844
0.368543
0.366289
0.364086
0.361934
0.359834
0.357787
0.355793
0.353853
0.351965
0.350128
0.348338
0.346591
0.344883
0.343205
0.341552
0.339916
0.33829
0.336667
0.335043
0.333412
0.331775
0.330129
0.328476
0.326818
0.325158
0.3235
0.321847
0.320204
0.318573
0.316959
0.315364
0.31379
0.312239
0.310711
0.309209
0.307731
0.306279
0.304852
0.303449
0.30207
0.300715
0.299381
0.298067
0.370839
0.368532
0.366271
0.364057
0.361893
0.359777
0.357712
0.355697
0.353731
0.351813
0.349942
0.348114
0.346326
0.344573
0.342849
0.34115
0.339468
0.337798
0.336135
0.334475
0.332815
0.331154
0.32949
0.327824
0.326159
0.324496
0.322838
0.321188
0.319549
0.317924
0.316316
0.314726
0.313156
0.311609
0.310083
0.308581
0.307103
0.305648
0.304217
0.302808
0.301421
0.300055
0.298709
0.297382
0.370836
0.368523
0.366255
0.364034
0.361859
0.359732
0.357652
0.355619
0.353633
0.351692
0.349795
0.347938
0.346119
0.344332
0.342575
0.340841
0.339125
0.337424
0.335733
0.334048
0.332368
0.33069
0.329014
0.327341
0.325672
0.324008
0.322353
0.320707
0.319073
0.317454
0.315852
0.314267
0.312703
0.311159
0.309637
0.308136
0.306658
0.305202
0.303768
0.302355
0.300962
0.299589
0.298233
0.296895
0.370833
0.368516
0.366243
0.364015
0.361832
0.359695
0.357603
0.355557
0.353555
0.351596
0.349679
0.3478
0.345957
0.344146
0.342363
0.340603
0.338864
0.33714
0.335428
0.333726
0.33203
0.330341
0.328658
0.326981
0.32531
0.323647
0.321994
0.320352
0.318724
0.317111
0.315514