/*--------------------------------*- C++ -*----------------------------------*\
  =========                 |
  \\      /  F ield         | OpenFOAM: The Open Source CFD Toolbox
   \\    /   O peration     | Website:  https://openfoam.org
    \\  /    A nd           | Version:  13
     \\/     M anipulation  |
\*---------------------------------------------------------------------------*/
FoamFile
{
    format      ascii;
    class       volScalarField;
    location    "700";
    object      nut;
}
// * * * * * * * * * * * * * * * * * * * * * * * * * * * * * * * * * * * * * //

dimensions      [0 2 -1 0 0 0 0];

internalField   nonuniform List<scalar> 
171634
(
0.01903
0.0190162
0.0190026
0.018989
0.0189754
0.0189618
0.0189482
0.0189345
0.0189207
0.0189068
0.0188928
0.0188787
0.0188645
0.0188503
0.018836
0.0188218
0.0188076
0.0187935
0.0187794
0.0187655
0.0187516
0.0187379
0.0190307
0.019017
0.0190034
0.0189899
0.0189764
0.0189629
0.0189493
0.0189357
0.0189219
0.018908
0.018894
0.0188799
0.0188657
0.0188515
0.0188372
0.018823
0.0188088
0.0187946
0.0187805
0.0187666
0.0187527
0.018739
0.0190322
0.0190186
0.0190052
0.0189918
0.0189785
0.0189651
0.0189517
0.0189381
0.0189244
0.0189105
0.0188965
0.0188824
0.0188682
0.018854
0.0188397
0.0188254
0.0188111
0.0187969
0.0187828
0.0187688
0.0187549
0.0187412
0.0190344
0.0190211
0.0190079
0.0189948
0.0189817
0.0189685
0.0189552
0.0189418
0.0189282
0.0189144
0.0189004
0.0188863
0.0188721
0.0188579
0.0188435
0.0188292
0.0188148
0.0188006
0.0187864
0.0187723
0.0187584
0.0187446
0.0190376
0.0190246
0.0190118
0.018999
0.0189862
0.0189733
0.0189603
0.0189471
0.0189336
0.0189199
0.0189061
0.018892
0.0188778
0.0188634
0.018849
0.0188346
0.0188202
0.0188059
0.0187916
0.0187775
0.0187635
0.0187497
0.0190418
0.0190293
0.019017
0.0190047
0.0189924
0.0189799
0.0189672
0.0189542
0.018941
0.0189275
0.0189137
0.0188997
0.0188855
0.0188711
0.0188567
0.0188421
0.0188276
0.0188132
0.0187988
0.0187846
0.0187706
0.0187567
0.0190472
0.0190355
0.0190238
0.0190122
0.0190004
0.0189885
0.0189763
0.0189637
0.0189509
0.0189376
0.018924
0.0189101
0.0188959
0.0188815
0.018867
0.0188524
0.0188378
0.0188232
0.0188088
0.0187945
0.0187804
0.0187665
0.0190542
0.0190433
0.0190326
0.0190218
0.0190109
0.0189998
0.0189883
0.0189763
0.0189639
0.018951
0.0189376
0.0189239
0.0189098
0.0188954
0.0188809
0.0188662
0.0188516
0.0188369
0.0188224
0.0188081
0.018794
0.0187801
0.0190631
0.0190534
0.0190439
0.0190344
0.0190246
0.0190146
0.019004
0.0189929
0.0189812
0.0189688
0.0189559
0.0189425
0.0189286
0.0189143
0.0188998
0.0188851
0.0188704
0.0188558
0.0188413
0.0188269
0.0188129
0.018799
0.0190743
0.0190663
0.0190585
0.0190507
0.0190426
0.0190341
0.0190249
0.0190151
0.0190044
0.0189929
0.0189806
0.0189677
0.0189541
0.0189401
0.0189258
0.0189112
0.0188966
0.018882
0.0188676
0.0188533
0.0188394
0.0188257
0.0190888
0.019083
0.0190776
0.0190722
0.0190664
0.0190601
0.019053
0.019045
0.0190359
0.0190257
0.0190145
0.0190024
0.0189895
0.0189759
0.0189619
0.0189477
0.0189333
0.0189189
0.0189047
0.0188907
0.018877
0.0188637
0.0191074
0.0191048
0.0191027
0.0191007
0.0190984
0.0190954
0.0190913
0.019086
0.0190793
0.0190711
0.0190616
0.0190508
0.019039
0.0190263
0.0190129
0.0189992
0.0189852
0.0189712
0.0189574
0.0189438
0.0189306
0.0189177
0.0191315
0.0191334
0.0191362
0.0191392
0.019142
0.0191439
0.0191444
0.0191432
0.0191401
0.019135
0.019128
0.0191192
0.019109
0.0190975
0.0190851
0.0190721
0.0190588
0.0190454
0.0190321
0.0190191
0.0190064
0.0189942
0.0191629
0.0191714
0.0191813
0.0191918
0.0192021
0.0192113
0.0192186
0.0192234
0.0192255
0.0192247
0.0192212
0.0192152
0.019207
0.019197
0.0191857
0.0191735
0.0191608
0.0191479
0.019135
0.0191224
0.0191102
0.0190985
0.0192044
0.0192222
0.0192424
0.0192637
0.0192846
0.0193038
0.0193201
0.0193327
0.0193412
0.0193455
0.0193459
0.0193427
0.0193364
0.0193275
0.0193168
0.0193048
0.019292
0.0192789
0.0192658
0.0192529
0.0192404
0.0192284
0.0192588
0.0192891
0.0193221
0.0193556
0.0193877
0.0194168
0.0194416
0.0194613
0.0194753
0.0194836
0.0194867
0.019485
0.0194792
0.0194702
0.0194586
0.0194453
0.0194311
0.0194163
0.0194015
0.0193869
0.0193727
0.0193589
0.0193258
0.0187636
0.0180113
0.0176212
0.0176309
0.018073
0.0189723
0.0195464
0.0195629
0.0195729
0.0195768
0.0195751
0.0195686
0.0195581
0.0195446
0.019529
0.019512
0.0194944
0.0194766
0.0194588
0.0194412
0.0194239
0.0169965
0.0158245
0.0149761
0.0144781
0.0143676
0.0146761
0.0154189
0.0165879
0.0181892
0.0194882
0.0194931
0.0194918
0.0194851
0.0194737
0.0194588
0.0194414
0.0194222
0.0194019
0.0193809
0.0193594
0.0193376
0.0193155
0.0144081
0.0131794
0.0122598
0.0116707
0.0114494
0.0116346
0.0122829
0.0133714
0.0148589
0.0167649
0.0191031
0.0191
0.0190926
0.019081
0.0190656
0.019047
0.0190258
0.0190026
0.0189774
0.0189503
0.0189213
0.0188899
0.0181527
0.0181363
0.0181149
0.0180876
0.0180535
0.0180113
0.0179592
0.0178949
0.0164697
0.0164488
0.0164071
0.016338
0.0162345
0.0160904
0.0159013
0.0156647
0.0191891
0.0191919
0.0192135
0.0183952
0.0192079
0.0192
0.0191977
0.0192084
0.0192419
0.0163297
0.0130361
0.0192097
0.0192038
0.0192053
0.0192224
0.0192654
0.0150038
0.0120828
0.019211
0.0192062
0.0192099
0.0192307
0.0185044
0.0143592
0.0116021
0.00991337
0.0192109
0.0192062
0.0192099
0.0192307
0.0185079
0.014362
0.0116049
0.00991712
0.0192376
0.0192279
0.0192184
0.0192096
0.0192037
0.0192051
0.0192222
0.0192651
0.0150093
0.0120888
0.0102906
0.0192473
0.0192374
0.0192275
0.0192175
0.0192078
0.0191998
0.0191975
0.0192081
0.0192415
0.0163373
0.0130436
0.0110091
0.0192472
0.0192372
0.0192272
0.0192167
0.0192057
0.0191955
0.0191887
0.0191915
0.019213
0.0184049
0.0144724
0.0119969
0.0192472
0.0192373
0.0192272
0.0192164
0.0192046
0.0191923
0.0191815
0.019177
0.0191871
0.0192216
0.0161452
0.013042
0.0192474
0.0192378
0.019228
0.0192172
0.0192051
0.0191916
0.0191781
0.0191683
0.0191695
0.0191923
0.0176823
0.0138404
0.0115003
0.0192576
0.019248
0.0192389
0.0192297
0.0192196
0.0192081
0.0191947
0.0191803
0.019168
0.0191645
0.0191808
0.0185222
0.0140959
0.0114057
0.019268
0.0192579
0.0192489
0.0192406
0.0192325
0.0192239
0.019214
0.0192024
0.0191896
0.0191784
0.0191753
0.0191919
0.0181561
0.0136211
0.0108428
0.0192681
0.0192584
0.0192501
0.019243
0.0192365
0.0192302
0.0192233
0.0192156
0.0192074
0.0192015
0.019205
0.0192302
0.016529
0.0124145
0.00982786
0.0192681
0.019259
0.0192516
0.0192458
0.0192415
0.0192384
0.019236
0.0192345
0.0192346
0.0192397
0.0192578
0.018826
0.0139944
0.0105627
0.00837941
0.00698677
0.00617009
0.00539906
0.00495842
0.019268
0.0192595
0.0192531
0.019249
0.0192474
0.0192482
0.0192518
0.019259
0.0192716
0.0192942
0.0190009
0.0147599
0.0109838
0.0081504
0.00633652
0.0050619
0.00519137
0.00632733
0.00438915
0.0192678
0.0192599
0.0192545
0.0192522
0.0192534
0.0192588
0.0192697
0.0192879
0.0193168
0.0182464
0.0148373
0.0113544
0.00823141
0.00570919
0.00433707
0.00553165
0.00368754
0.0034579
0.00318907
0.0027721
0.0192674
0.0192599
0.0192555
0.0192548
0.0192589
0.0192691
0.0192877
0.0193179
0.0181264
0.0150714
0.0119567
0.00898589
0.00632373
0.00425946
0.00462061
0.00245037
0.00198638
0.00179074
0.00341114
0.00245465
0.00210641
0.0192666
0.0192595
0.0192558
0.0192565
0.019263
0.0192775
0.0193031
0.0191057
0.0160633
0.0130799
0.0102306
0.00761993
0.00535293
0.00363992
0.00317716
0.0016938
0.00115266
0.00134068
0.000678176
0.00179987
0.00151604
0.00193609
0.0192653
0.0192584
0.0192551
0.0192567
0.0192649
0.0192824
0.0193131
0.0179487
0.0149136
0.0120503
0.00941175
0.0070694
0.00509301
0.0036574
0.00291359
0.00177653
0.00131824
0.00102412
0.000959009
0.000907749
0.00109611
0.00101649
0.0192637
0.0192566
0.0192533
0.0192552
0.0192641
0.019283
0.019316
0.0175128
0.0145299
0.011782
0.00930727
0.00715553
0.0053628
0.00397063
0.00308404
0.00285401
0.00208165
0.00230476
0.00175837
0.00167887
0.00166095
0.00161875
0.00151151
0.00179853
0.0020236
0.0192616
0.0192541
0.0192504
0.0192519
0.0192604
0.0192789
0.0193114
0.0176913
0.0147797
0.0121257
0.00977638
0.00775791
0.00610379
0.00480542
0.00402346
0.00356989
0.00310982
0.00242805
0.00217813
0.00241585
0.0029682
0.00363343
0.00345275
0.00333076
0.00342009
0.00331166
0.00319785
0.00309789
0.00300292
0.00291782
0.00284533
0.00278672
0.00274233
0.00271193
0.00269497
0.0026886
0.00269343
0.00270958
0.00273682
0.0027756
0.00282622
0.00288835
0.0192591
0.019251
0.0192466
0.0192471
0.0192542
0.0192708
0.0193004
0.0183877
0.0155368
0.0129701
0.010708
0.00877405
0.00717664
0.00590578
0.00494987
0.00447076
0.00403015
0.00475478
0.00328256
0.00366461
0.00459706
0.006166
0.00751134
0.00787694
0.00780605
0.00744793
0.00700832
0.00700519
0.00662435
0.00624135
0.0058787
0.00554652
0.00524751
0.00498198
0.0047481
0.00454293
0.00436321
0.00420574
0.00406764
0.00394653
0.00384061
0.00374883
0.00367133
0.0192563
0.0192474
0.019242
0.0192411
0.0192462
0.0192597
0.0192848
0.0193249
0.0167193
0.0142102
0.0120101
0.0101186
0.00854085
0.00726233
0.00626391
0.00560253
0.00546054
0.00511056
0.00564753
0.00647936
0.00771199
0.00935219
0.0113079
0.0134966
0.0134565
0.0133664
0.0128273
0.0124859
0.012206
0.0119083
0.0116002
0.0112869
0.0108656
0.0103243
0.0097928
0.00928151
0.0087958
0.0083371
0.00790413
0.007494
0.00710311
0.00672795
0.00636728
0.0192654
0.0192533
0.0192436
0.0192369
0.0192343
0.019237
0.0192469
0.0192665
0.0192993
0.0182544
0.0157864
0.01362
0.0117565
0.0101896
0.00891252
0.00792191
0.0072406
0.00698688
0.00728174
0.00783464
0.00873346
0.0100489
0.011848
0.0141504
0.016414
0.0163996
0.0163885
0.0163711
0.0163381
0.0162817
0.0161945
0.0160692
0.0158998
0.0156824
0.0154158
0.0151006
0.014739
0.0143341
0.0138892
0.0134066
0.0128882
0.0122352
0.0110635
0.0100198
0.0192631
0.0192503
0.0192396
0.0192316
0.0192272
0.0192273
0.0192334
0.0192475
0.0192722
0.0193096
0.0176747
0.0155318
0.0136861
0.012135
0.0108739
0.00990556
0.00925125
0.00895063
0.00903944
0.00956412
0.0105665
0.0120483
0.0140272
0.016598
0.0181488
0.0181355
0.0181218
0.0181053
0.0180844
0.018058
0.0180251
0.0179844
0.0179342
0.0178724
0.0177965
0.0177034
0.01759
0.0174522
0.0172855
0.0170847
0.016843
0.0165532
0.0162075
0.0155373
0.0192608
0.0192472
0.0192356
0.0192264
0.0192201
0.0192177
0.0192202
0.0192291
0.0192462
0.0192737
0.0193125
0.0177449
0.0159252
0.0143987
0.0131707
0.0122502
0.0116582
0.0114318
0.0116107
0.0122532
0.0133461
0.0148624
0.0168331
0.0190908
0.0190846
0.0190742
0.0190598
0.0190418
0.0190208
0.0189973
0.0189716
0.0189439
0.0189141
0.018882
0.0188472
0.018809
0.0187667
0.0187192
0.0186649
0.018602
0.018528
0.0184393
0.0183313
0.0181985
0.0192585
0.0192443
0.0192317
0.0192213
0.0192133
0.0192086
0.0192078
0.019212
0.0192225
0.0192408
0.0192685
0.0193056
0.0184543
0.0169796
0.0158085
0.0149599
0.0144603
0.0143469
0.0146528
0.0153968
0.0165775
0.0182141
0.0194849
0.0194883
0.0194854
0.0194771
0.0194642
0.0194479
0.0194291
0.0194086
0.0193871
0.0193648
0.0193422
0.0193191
0.0192957
0.0192718
0.0192474
0.0192225
0.0191968
0.0191701
0.0191423
0.019113
0.0190814
0.0190468
0.0192564
0.0192415
0.0192281
0.0192165
0.019207
0.0192002
0.0191965
0.0191968
0.0192018
0.0192125
0.01923
0.0192553
0.019288
0.019327
0.0187405
0.0179884
0.0175982
0.0176074
0.0180507
0.0189566
0.019547
0.0195631
0.0195726
0.0195758
0.0195733
0.019566
0.0195547
0.0195405
0.0195242
0.0195066
0.0194884
0.0194699
0.0194516
0.0194334
0.0194156
0.0193981
0.0193811
0.0193644
0.0193483
0.0193328
0.019318
0.0193043
0.0192916
0.0192803
0.0192544
0.0192389
0.0192247
0.0192121
0.0192012
0.0191925
0.0191864
0.0191834
0.0191839
0.0191887
0.0191982
0.0192132
0.0192338
0.01926
0.0192905
0.0193236
0.0193573
0.0193895
0.0194187
0.0194436
0.0194632
0.0194771
0.0194852
0.019488
0.0194859
0.0194798
0.0194703
0.0194584
0.0194448
0.0194302
0.0194151
0.0194
0.0193852
0.0193707
0.0193567
0.0193433
0.0193305
0.0193183
0.0193069
0.0192963
0.0192867
0.0192782
0.019271
0.0192652
0.0192526
0.0192366
0.0192217
0.0192081
0.0191961
0.0191858
0.0191776
0.0191719
0.0191688
0.0191689
0.0191725
0.0191797
0.0191907
0.0192055
0.0192235
0.0192439
0.0192653
0.0192864
0.0193058
0.0193222
0.0193349
0.0193434
0.0193477
0.019348
0.0193446
0.0193382
0.0193292
0.0193183
0.0193061
0.0192932
0.0192799
0.0192667
0.0192537
0.0192411
0.0192291
0.0192176
0.0192068
0.0191967
0.0191873
0.0191787
0.0191709
0.0191642
0.0191585
0.019154
0.0192509
0.0192344
0.0192189
0.0192046
0.0191915
0.0191799
0.01917
0.0191621
0.0191562
0.0191527
0.0191517
0.0191533
0.0191574
0.0191639
0.0191725
0.0191826
0.0191933
0.0192037
0.0192131
0.0192205
0.0192254
0.0192276
0.0192268
0.0192233
0.0192173
0.019209
0.019199
0.0191877
0.0191754
0.0191626
0.0191497
0.0191368
0.0191242
0.019112
0.0191002
0.0190891
0.0190785
0.0190686
0.0190594
0.0190508
0.0190431
0.0190361
0.01903
0.0190247
0.0192494
0.0192325
0.0192165
0.0192014
0.0191875
0.0191748
0.0191635
0.0191538
0.0191457
0.0191394
0.019135
0.0191324
0.0191316
0.0191324
0.0191344
0.0191373
0.0191405
0.0191434
0.0191454
0.0191461
0.019145
0.0191419
0.0191369
0.0191299
0.0191212
0.019111
0.0190995
0.0190871
0.0190741
0.0190608
0.0190474
0.0190341
0.0190211
0.0190085
0.0189963
0.0189846
0.0189735
0.018963
0.018953
0.0189437
0.0189351
0.0189271
0.0189197
0.0189131
0.0192481
0.0192308
0.0192144
0.0191987
0.0191841
0.0191705
0.019158
0.0191469
0.019137
0.0191286
0.0191216
0.0191159
0.0191115
0.0191082
0.0191058
0.0191038
0.0191019
0.0190997
0.0190968
0.0190928
0.0190876
0.019081
0.0190729
0.0190634
0.0190527
0.0190409
0.0190282
0.0190149
0.0190011
0.0189872
0.0189733
0.0189595
0.018946
0.0189328
0.01892
0.0189077
0.0188958
0.0188845
0.0188737
0.0188635
0.0188537
0.0188446
0.0188359
0.0188278
0.019247
0.0192294
0.0192125
0.0191964
0.0191811
0.0191668
0.0191534
0.0191411
0.0191299
0.0191197
0.0191108
0.0191028
0.0190958
0.0190896
0.0190839
0.0190786
0.0190732
0.0190676
0.0190614
0.0190544
0.0190464
0.0190374
0.0190273
0.0190162
0.0190041
0.0189913
0.0189778
0.0189639
0.0189496
0.0189353
0.018921
0.0189068
0.0188929
0.0188792
0.018866
0.0188531
0.0188407
0.0188287
0.0188172
0.0188061
0.0187955
0.0187854
0.0187757
0.0187663
0.019246
0.0192281
0.0192109
0.0191944
0.0191786
0.0191636
0.0191495
0.0191363
0.0191239
0.0191126
0.019102
0.0190924
0.0190834
0.0190751
0.0190672
0.0190594
0.0190517
0.0190437
0.0190353
0.0190262
0.0190164
0.0190058
0.0189944
0.0189822
0.0189694
0.0189559
0.0189419
0.0189276
0.0189132
0.0188986
0.0188841
0.0188697
0.0188555
0.0188416
0.0188281
0.0188149
0.018802
0.0187896
0.0187775
0.0187659
0.0187546
0.0187437
0.0187331
0.0187229
0.0192451
0.019227
0.0192095
0.0191927
0.0191765
0.019161
0.0191462
0.0191323
0.0191191
0.0191067
0.019095
0.0190841
0.0190737
0.0190638
0.0190542
0.0190447
0.0190353
0.0190257
0.0190157
0.0190052
0.0189942
0.0189826
0.0189703
0.0189575
0.0189441
0.0189302
0.0189161
0.0189016
0.018887
0.0188724
0.0188578
0.0188434
0.0188291
0.0188151
0.0188014
0.018788
0.0187749
0.0187621
0.0187497
0.0187376
0.0187259
0.0187144
0.0187032
0.0186923
0.0192444
0.0192261
0.0192084
0.0191912
0.0191747
0.0191588
0.0191435
0.019129
0.0191151
0.019102
0.0190894
0.0190774
0.019066
0.0190549
0.0190441
0.0190334
0.0190227
0.0190119
0.0190008
0.0189894
0.0189775
0.0189652
0.0189524
0.0189391
0.0189254
0.0189114
0.0188971
0.0188827
0.0188681
0.0188535
0.0188389
0.0188245
0.0188103
0.0187962
0.0187824
0.0187689
0.0187556
0.0187427
0.01873
0.0187177
0.0187056
0.0186937
0.0186821
0.0186706
0.0192437
0.0192253
0.0192074
0.01919
0.0191732
0.0191569
0.0191413
0.0191263
0.0191119
0.0190981
0.0190849
0.0190721
0.0190598
0.0190479
0.0190362
0.0190246
0.019013
0.0190014
0.0189895
0.0189774
0.0189649
0.0189521
0.0189389
0.0189254
0.0189116
0.0188975
0.0188831
0.0188687
0.0188542
0.0188397
0.0188252
0.0188108
0.0187966
0.0187826
0.0187688
0.0187552
0.0187419
0.0187288
0.018716
0.0187034
0.0186911
0.0186789
0.0186669
0.0186551
0.0192432
0.0192247
0.0192066
0.019189
0.0191719
0.0191554
0.0191395
0.0191241
0.0191093
0.019095
0.0190813
0.0190679
0.019055
0.0190424
0.01903
0.0190178
0.0190055
0.0189933
0.0189808
0.0189682
0.0189553
0.0189422
0.0189288
0.0189151
0.0189012
0.018887
0.0188727
0.0188583
0.0188439
0.0188295
0.0188151
0.0188009
0.0187867
0.0187727
0.018759
0.0187454
0.018732
0.0187189
0.018706
0.0186932
0.0186807
0.0186683
0.0186561
0.0186439
0.0192428
0.0192241
0.0192059
0.0191882
0.0191709
0.0191542
0.019138
0.0191224
0.0191072
0.0190926
0.0190784
0.0190647
0.0190513
0.0190382
0.0190253
0.0190125
0.0189998
0.0189871
0.0189743
0.0189613
0.0189481
0.0189348
0.0189212
0.0189074
0.0188934
0.0188793
0.018865
0.0188507
0.0188363
0.018822
0.0188077
0.0187936
0.0187795
0.0187656
0.0187518
0.0187383
0.0187249
0.0187117
0.0186987
0.0186859
0.0186732
0.0186606
0.0186482
0.0186358
0.0192424
0.0192237
0.0192054
0.0191875
0.0191702
0.0191533
0.0191369
0.0191211
0.0191057
0.0190908
0.0190763
0.0190622
0.0190485
0.019035
0.0190217
0.0190086
0.0189956
0.0189825
0.0189694
0.0189562
0.0189428
0.0189293
0.0189156
0.0189017
0.0188877
0.0188736
0.0188594
0.0188451
0.0188309
0.0188166
0.0188024
0.0187883
0.0187743
0.0187605
0.0187468
0.0187332
0.0187198
0.0187066
0.0186936
0.0186806
0.0186679
0.0186552
0.0186426
0.0186301
0.0192422
0.0192234
0.019205
0.0191871
0.0191696
0.0191526
0.0191361
0.0191201
0.0191045
0.0190894
0.0190748
0.0190604
0.0190465
0.0190328
0.0190192
0.0190059
0.0189926
0.0189793
0.018966
0.0189526
0.0189391
0.0189255
0.0189117
0.0188978
0.0188838
0.0188697
0.0188555
0.0188413
0.0188271
0.0188129
0.0187987
0.0187847
0.0187708
0.018757
0.0187433
0.0187297
0.0187164
0.0187031
0.01869
0.0186771
0.0186642
0.0186515
0.0186388
0.0186261
0.019242
0.0192232
0.0192048
0.0191868
0.0191693
0.0191522
0.0191356
0.0191195
0.0191038
0.0190886
0.0190737
0.0190593
0.0190451
0.0190313
0.0190176
0.0190041
0.0189906
0.0189772
0.0189638
0.0189503
0.0189367
0.018923
0.0189091
0.0188952
0.0188812
0.0188671
0.0188529
0.0188388
0.0188246
0.0188105
0.0187964
0.0187824
0.0187685
0.0187547
0.0187411
0.0187276
0.0187142
0.0187009
0.0186878
0.0186748
0.018662
0.0186491
0.0186364
0.0186237
0.019242
0.0192231
0.0192047
0.0191867
0.0191691
0.019152
0.0191354
0.0191192
0.0191035
0.0190882
0.0190733
0.0190588
0.0190446
0.0190306
0.0190169
0.0190033
0.0189897
0.0189762
0.0189627
0.0189492
0.0189355
0.0189218
0.0189079
0.018894
0.01888
0.0188659
0.0188517
0.0188376
0.0188234
0.0188093
0.0187953
0.0187813
0.0187674
0.0187536
0.01874
0.0187265
0.0187131
0.0186999
0.0186868
0.0186737
0.0186608
0.018648
0.0186352
0.0186224
0.0190298
0.019016
0.0190024
0.0189888
0.0189752
0.0189617
0.018948
0.0189343
0.0189205
0.0189066
0.0188926
0.0188785
0.0188644
0.0188502
0.018836
0.0188218
0.0188076
0.0187935
0.0187794
0.0187655
0.0187517
0.018738
0.0190306
0.0190168
0.0190032
0.0189897
0.0189762
0.0189627
0.0189492
0.0189355
0.0189217
0.0189079
0.0188939
0.0188798
0.0188656
0.0188514
0.0188372
0.018823
0.0188088
0.0187946
0.0187806
0.0187667
0.0187529
0.0187392
0.0190321
0.0190185
0.0190051
0.0189917
0.0189784
0.018965
0.0189515
0.018938
0.0189243
0.0189104
0.0188965
0.0188824
0.0188682
0.018854
0.0188397
0.0188255
0.0188112
0.018797
0.018783
0.018769
0.0187551
0.0187414
0.0190343
0.019021
0.0190079
0.0189947
0.0189816
0.0189684
0.0189552
0.0189417
0.0189281
0.0189144
0.0189005
0.0188864
0.0188722
0.018858
0.0188437
0.0188293
0.018815
0.0188008
0.0187867
0.0187726
0.0187588
0.018745
0.0190376
0.0190247
0.0190119
0.0189991
0.0189863
0.0189734
0.0189604
0.0189472
0.0189337
0.0189201
0.0189062
0.0188922
0.018878
0.0188637
0.0188494
0.018835
0.0188206
0.0188063
0.0187921
0.018778
0.0187641
0.0187503
0.019042
0.0190295
0.0190172
0.0190049
0.0189926
0.0189801
0.0189674
0.0189545
0.0189413
0.0189278
0.0189141
0.0189001
0.0188859
0.0188716
0.0188572
0.0188427
0.0188283
0.0188139
0.0187996
0.0187854
0.0187714
0.0187577
0.0190476
0.0190358
0.0190241
0.0190125
0.0190008
0.0189888
0.0189766
0.0189641
0.0189513
0.018938
0.0189245
0.0189106
0.0188964
0.0188821
0.0188676
0.0188531
0.0188386
0.0188241
0.0188097
0.0187955
0.0187815
0.0187677
0.0190546
0.0190437
0.0190329
0.0190222
0.0190113
0.0190001
0.0189886
0.0189767
0.0189643
0.0189514
0.0189381
0.0189244
0.0189104
0.018896
0.0188816
0.018867
0.0188524
0.0188378
0.0188234
0.0188091
0.0187951
0.0187813
0.0190634
0.0190537
0.0190442
0.0190347
0.0190249
0.0190149
0.0190043
0.0189932
0.0189815
0.0189692
0.0189563
0.0189429
0.018929
0.0189148
0.0189004
0.0188858
0.0188712
0.0188566
0.0188422
0.0188279
0.0188139
0.0188002
0.0190747
0.0190666
0.0190588
0.0190509
0.0190428
0.0190342
0.0190251
0.0190152
0.0190045
0.018993
0.0189808
0.0189679
0.0189543
0.0189404
0.0189261
0.0189116
0.0188971
0.0188826
0.0188683
0.0188541
0.0188403
0.0188268
0.019089
0.0190832
0.0190777
0.0190722
0.0190664
0.0190601
0.0190529
0.0190448
0.0190357
0.0190255
0.0190143
0.0190022
0.0189893
0.0189758
0.0189619
0.0189477
0.0189334
0.0189192
0.0189051
0.0188912
0.0188776
0.0188644
0.0191075
0.0191049
0.0191027
0.0191006
0.0190981
0.019095
0.0190908
0.0190854
0.0190786
0.0190704
0.0190609
0.0190501
0.0190383
0.0190256
0.0190124
0.0189987
0.0189849
0.0189711
0.0189574
0.018944
0.0189309
0.0189182
0.0191315
0.0191333
0.0191359
0.0191388
0.0191414
0.019143
0.0191433
0.019142
0.0191387
0.0191335
0.0191265
0.0191177
0.0191075
0.0190961
0.0190839
0.0190711
0.0190579
0.0190447
0.0190317
0.0190189
0.0190064
0.0189945
0.0191629
0.0191712
0.0191808
0.0191911
0.0192011
0.0192099
0.0192168
0.0192214
0.0192232
0.0192223
0.0192187
0.0192127
0.0192046
0.0191949
0.0191838
0.0191719
0.0191595
0.0191469
0.0191345
0.0191223
0.0191104
0.0190991
0.0192043
0.019222
0.0192419
0.0192627
0.0192832
0.0193018
0.0193176
0.0193297
0.0193378
0.019342
0.0193424
0.0193393
0.0193333
0.0193249
0.0193147
0.0193033
0.0192911
0.0192787
0.0192663
0.0192541
0.0192423
0.019231
0.0192589
0.019289
0.0193217
0.0193548
0.0193863
0.0194147
0.0194389
0.019458
0.0194715
0.0194798
0.019483
0.0194818
0.0194768
0.0194688
0.0194583
0.0194463
0.0194332
0.0194198
0.0194063
0.019393
0.0193801
0.0193676
0.0193264
0.01879
0.0180679
0.0177239
0.0177941
0.0183034
0.0192597
0.0195455
0.019561
0.0195707
0.019575
0.0195744
0.0195695
0.0195611
0.0195499
0.0195368
0.0195223
0.0195072
0.0194919
0.0194766
0.0194614
0.0194466
0.016955
0.0157979
0.01498
0.0145348
0.0145001
0.0148952
0.0157066
0.0169007
0.0184466
0.0194834
0.019489
0.0194902
0.0194873
0.0194808
0.0194711
0.0194589
0.0194449
0.0194295
0.0194133
0.0193965
0.0193792
0.0193615
0.0143012
0.0130831
0.0121913
0.0116593
0.0115335
0.0118596
0.0126256
0.0137649
0.0151849
0.0168404
0.0187792
0.0190738
0.0190763
0.0190764
0.0190703
0.01906
0.0190471
0.0190328
0.0190173
0.0189994
0.0189794
0.0189572
0.0180714
0.0180699
0.0180648
0.0180567
0.0180464
0.0180296
0.0180053
0.0179732
0.0160908
0.0161145
0.0161304
0.0161378
0.0161321
0.0161003
0.0160423
0.0159572
0.0192088
0.0192197
0.0192517
0.0168607
0.0192191
0.0192159
0.0192206
0.0192413
0.0191321
0.0148763
0.011954
0.0192217
0.0192211
0.0192305
0.0192587
0.0174377
0.0136074
0.0109909
0.0192235
0.0192244
0.0192365
0.0192688
0.0166448
0.0130108
0.0105326
0.00900655
0.0192234
0.0192243
0.0192365
0.0192687
0.0166478
0.0130133
0.0105353
0.00901024
0.0192418
0.0192338
0.0192268
0.0192216
0.019221
0.0192304
0.0192585
0.0174438
0.0136123
0.0109961
0.00938134
0.0192502
0.0192414
0.0192331
0.0192254
0.0192189
0.0192157
0.0192204
0.019241
0.0191415
0.0148821
0.0119597
0.0101411
0.0192499
0.019241
0.0192324
0.0192239
0.0192158
0.0192095
0.0192084
0.0192193
0.0192513
0.0168667
0.0133978
0.0112034
0.0192497
0.0192408
0.019232
0.0192229
0.0192134
0.0192043
0.0191979
0.0191994
0.0192175
0.0192609
0.0151945
0.0123894
0.0192497
0.0192409
0.0192322
0.019223
0.0192127
0.0192017
0.0191913
0.0191856
0.0191921
0.0192215
0.0169693
0.0133903
0.0111921
0.0192591
0.0192501
0.0192417
0.0192334
0.0192246
0.0192146
0.0192031
0.019191
0.0191814
0.0191811
0.0192012
0.0181006
0.0138377
0.01122
0.0192691
0.0192594
0.0192508
0.0192431
0.0192358
0.0192283
0.0192197
0.0192097
0.0191986
0.0191893
0.0191884
0.0192077
0.0178367
0.0134083
0.0106885
0.0192691
0.0192597
0.0192518
0.0192452
0.0192395
0.0192341
0.0192284
0.0192221
0.0192156
0.0192119
0.0192181
0.0192472
0.0159454
0.0120058
0.00957686
0.019269
0.0192601
0.0192531
0.0192478
0.0192442
0.019242
0.0192409
0.0192409
0.0192433
0.0192518
0.019275
0.0175035
0.0129221
0.00974744
0.00786829
0.00666153
0.00607251
0.00544106
0.00456811
0.0192689
0.0192606
0.0192545
0.0192508
0.0192498
0.0192516
0.0192567
0.019266
0.0192821
0.0193103
0.0174127
0.0131796
0.00957849
0.00695059
0.00557006
0.00669453
0.00536934
0.00472091
0.00426999
0.0192686
0.0192608
0.0192557
0.0192538
0.0192557
0.0192622
0.0192747
0.0192958
0.0193295
0.0169625
0.0133309
0.00981615
0.00677862
0.00479865
0.00582715
0.0034145
0.00346261
0.00378025
0.0038172
0.0031708
0.0192681
0.0192608
0.0192566
0.0192563
0.0192611
0.0192724
0.019293
0.0193267
0.0172211
0.0139207
0.010632
0.0075975
0.00491905
0.00340009
0.00298631
0.00196657
0.00225465
0.0015809
0.00126405
0.00078871
0.0192672
0.0192602
0.0192567
0.0192578
0.019265
0.0192807
0.0193084
0.0184697
0.0152564
0.0120846
0.00909947
0.00637057
0.00442196
0.00399248
0.00190795
0.00125671
0.00117119
0.000160312
0.0192659
0.019259
0.0192559
0.0192579
0.0192667
0.0192854
0.0193182
0.0173975
0.014229
0.0112207
0.00847861
0.00607111
0.00432681
0.00344536
0.00194036
0.0015409
0.000924716
0.0192642
0.0192572
0.0192541
0.0192562
0.0192657
0.0192856
0.0193206
0.0170514
0.0139659
0.011108
0.00854738
0.00635721
0.00447164
0.00322874
0.00270076
0.00170861
0.00146369
0.000869304
0.00127211
0.00166889
0.019262
0.0192546
0.0192511
0.0192528
0.0192617
0.0192811
0.0193152
0.0173146
0.0143196
0.0115896
0.00916647
0.00709996
0.0053825
0.00415369
0.0033878
0.00288933
0.00220319
0.00204383
0.00225624
0.00183786
0.0017565
0.00178945
0.00188258
0.00213042
0.00231205
0.00291447
0.00300571
0.00305321
0.00307239
0.00307299
0.00306433
0.00305467
0.0030482
0.00304746
0.00305384
0.00306799
0.00309029
0.00312109
0.00316098
0.00321147
0.00327519
0.00335767
0.0192595
0.0192515
0.0192472
0.0192478
0.0192553
0.0192725
0.0193033
0.0180921
0.0151783
0.0125515
0.0102372
0.00825652
0.0066228
0.00531107
0.00459081
0.00408157
0.00468492
0.00325532
0.00359013
0.00445305
0.00540502
0.00520945
0.00521444
0.00531434
0.00624926
0.00637425
0.0064768
0.00654333
0.00652393
0.00643081
0.00629225
0.00612856
0.00595524
0.00578294
0.00561866
0.00546442
0.00532076
0.00518775
0.00506465
0.0049503
0.00484077
0.00473861
0.00463063
0.0192567
0.0192479
0.0192425
0.0192417
0.019247
0.0192609
0.0192869
0.0192999
0.0164528
0.013899
0.0116589
0.00973497
0.00812962
0.00682861
0.00588132
0.00561763
0.00514365
0.00541846
0.00607954
0.00708685
0.00838427
0.00970703
0.0107287
0.0111806
0.0108598
0.0108782
0.0109667
0.0111701
0.0113812
0.0115571
0.0116955
0.0117825
0.0117494
0.0114616
0.0111467
0.0108134
0.0104681
0.010114
0.00975155
0.00937962
0.00876771
0.00809212
0.00745419
0.0192658
0.0192537
0.019244
0.0192374
0.0192348
0.0192376
0.0192478
0.0192679
0.0193015
0.018065
0.0155641
0.0133702
0.0114833
0.00989853
0.00861316
0.00763875
0.00712238
0.00722847
0.00761053
0.008265
0.00925326
0.0105728
0.0121035
0.0136135
0.0148733
0.0159012
0.0159486
0.0159729
0.0159918
0.0160029
0.0160045
0.0159804
0.015928
0.0158464
0.0157353
0.0155939
0.0154212
0.0152158
0.0149754
0.0146964
0.0143739
0.0140021
0.0128996
0.0118238
0.0192635
0.0192506
0.01924
0.019232
0.0192276
0.0192278
0.0192341
0.0192484
0.0192736
0.0193116
0.0175271
0.0153643
0.0135048
0.0119462
0.0106874
0.00974128
0.00915612
0.00900149
0.00926972
0.00997033
0.0110935
0.0125629
0.0142743
0.0161554
0.0180032
0.0180142
0.0180179
0.0180171
0.0180129
0.0180053
0.017995
0.0179793
0.0179554
0.017923
0.0178818
0.0178308
0.0177687
0.0176937
0.0176033
0.017494
0.0173612
0.0171989
0.0169998
0.0167548
0.0192611
0.0192476
0.019236
0.0192267
0.0192205
0.0192181
0.0192207
0.0192297
0.019247
0.0192749
0.0193142
0.0176464
0.0158191
0.0142927
0.0130751
0.0121815
0.0116454
0.0115135
0.0118323
0.0125912
0.0137342
0.0151843
0.0169102
0.0189544
0.0190556
0.0190547
0.0190519
0.0190446
0.0190333
0.0190195
0.019004
0.0189857
0.0189649
0.0189418
0.0189163
0.0188883
0.0188574
0.0188233
0.0187854
0.0187429
0.0186945
0.0186387
0.0185731
0.0184948
0.0192589
0.0192447
0.0192321
0.0192216
0.0192137
0.0192089
0.0192082
0.0192124
0.019223
0.0192415
0.0192694
0.0193068
0.0184095
0.0169395
0.0157831
0.0149646
0.0145171
0.0144788
0.0148706
0.0156825
0.0168874
0.0184695
0.0194795
0.0194836
0.0194831
0.0194785
0.0194704
0.0194591
0.0194455
0.0194301
0.0194134
0.0193959
0.0193778
0.0193592
0.0193401
0.0193207
0.0193008
0.0192804
0.0192597
0.0192384
0.0192166
0.0191943
0.0191714
0.0191476
0.0192567
0.0192419
0.0192285
0.0192168
0.0192074
0.0192005
0.0191968
0.0191971
0.0192021
0.0192129
0.0192305
0.0192558
0.0192886
0.0193275
0.0187688
0.0180467
0.0177021
0.0177714
0.0182813
0.0192439
0.019546
0.0195612
0.0195703
0.0195739
0.0195725
0.0195667
0.0195575
0.0195455
0.0195316
0.0195164
0.0195006
0.0194846
0.0194686
0.0194529
0.0194374
0.0194223
0.0194076
0.0193932
0.0193794
0.0193662
0.0193537
0.0193421
0.0193318
0.0193228
0.0192548
0.0192393
0.0192251
0.0192124
0.0192016
0.0191929
0.0191868
0.0191837
0.0191842
0.0191889
0.0191984
0.0192134
0.0192339
0.01926
0.0192903
0.0193231
0.0193564
0.0193881
0.0194166
0.0194408
0.0194598
0.0194733
0.0194813
0.0194842
0.0194826
0.0194772
0.0194687
0.0194579
0.0194455
0.0194321
0.0194183
0.0194045
0.0193909
0.0193777
0.0193649
0.0193528
0.0193412
0.0193303
0.0193201
0.0193107
0.0193022
0.0192948
0.0192886
0.0192838
0.0192529
0.0192369
0.019222
0.0192085
0.0191964
0.0191862
0.019178
0.0191722
0.0191691
0.0191692
0.0191726
0.0191798
0.0191907
0.0192054
0.0192232
0.0192432
0.0192643
0.0192849
0.0193037
0.0193196
0.0193318
0.0193399
0.019344
0.0193443
0.0193411
0.019335
0.0193264
0.019316
0.0193044
0.0192921
0.0192795
0.0192669
0.0192546
0.0192427
0.0192314
0.0192206
0.0192104
0.019201
0.0191922
0.0191843
0.0191772
0.019171
0.0191659
0.0191618
0.0192513
0.0192348
0.0192193
0.0192049
0.0191919
0.0191803
0.0191704
0.0191624
0.0191565
0.0191529
0.0191519
0.0191534
0.0191574
0.0191638
0.0191722
0.0191821
0.0191925
0.0192026