/*--------------------------------*- C++ -*----------------------------------*\
  =========                 |
  \\      /  F ield         | OpenFOAM: The Open Source CFD Toolbox
   \\    /   O peration     | Website:  https://openfoam.org
    \\  /    A nd           | Version:  13
     \\/     M anipulation  |
\*---------------------------------------------------------------------------*/
FoamFile
{
    format      ascii;
    class       volScalarField;
    location    "400";
    object      k;
}
// * * * * * * * * * * * * * * * * * * * * * * * * * * * * * * * * * * * * * //

dimensions      [0 2 -2 0 0 0 0];

internalField   nonuniform List<scalar> 
171745
(
0.3071
0.305625
0.304168
0.302729
0.301306
0.299901
0.29851
0.297134
0.295771
0.29442
0.29308
0.29175
0.290428
0.289114
0.287808
0.286509
0.285218
0.283934
0.282657
0.28139
0.280132
0.278884
0.277648
0.276424
0.307128
0.305652
0.304195
0.302755
0.301333
0.299928
0.298538
0.297163
0.295801
0.294452
0.293113
0.291784
0.290465
0.289153
0.287849
0.286552
0.285262
0.28398
0.282706
0.281441
0.280185
0.278939
0.277705
0.276483
0.307193
0.305717
0.304259
0.302819
0.301398
0.299993
0.298605
0.297231
0.295872
0.294525
0.293189
0.291863
0.290547
0.289238
0.287938
0.286645
0.285359
0.284081
0.282811
0.281549
0.280298
0.279056
0.277826
0.276609
0.307296
0.305818
0.30436
0.302921
0.3015
0.300097
0.298711
0.29734
0.295984
0.294641
0.293309
0.291989
0.290677
0.289374
0.28808
0.286792
0.285513
0.284241
0.282977
0.281722
0.280477
0.279242
0.278019
0.276808
0.30745
0.305971
0.304512
0.303073
0.301654
0.300252
0.298869
0.297502
0.29615
0.294813
0.293487
0.292173
0.290869
0.289574
0.288287
0.287008
0.285737
0.284474
0.283219
0.281973
0.280736
0.279511
0.278296
0.277094
0.30767
0.306189
0.304729
0.303291
0.301873
0.300475
0.299095
0.297733
0.296388
0.295057
0.29374
0.292435
0.29114
0.289855
0.288579
0.287311
0.286052
0.2848
0.283557
0.282322
0.281097
0.279883
0.27868
0.27749
0.30798
0.306498
0.305038
0.303601
0.302185
0.300791
0.299416
0.298061
0.296723
0.295402
0.294095
0.292801
0.291519
0.290248
0.288985
0.287732
0.286487
0.28525
0.284021
0.282801
0.281591
0.280392
0.279204
0.278028
0.308419
0.306935
0.305476
0.304041
0.302629
0.30124
0.299872
0.298525
0.297198
0.295888
0.294595
0.293316
0.29205
0.290795
0.28955
0.288315
0.287088
0.285869
0.284659
0.283458
0.282267
0.281085
0.279915
0.278757
0.309042
0.307559
0.306101
0.304669
0.303263
0.301881
0.300522
0.299187
0.297873
0.296578
0.295302
0.294042
0.292796
0.291562
0.29034
0.289127
0.287924
0.286728
0.285541
0.284362
0.283193
0.282034
0.280885
0.279748
0.309933
0.308452
0.306998
0.305572
0.304173
0.302801
0.301456
0.300135
0.298838
0.297564
0.296309
0.295073
0.293854
0.292648
0.291454
0.29027
0.289095
0.287929
0.286769
0.285618
0.284476
0.283342
0.282218
0.281104
0.311216
0.30974
0.308293
0.306876
0.305488
0.304131
0.302802
0.301501
0.300227
0.298979
0.297753
0.296549
0.295363
0.294193
0.293036
0.291889
0.290751
0.28962
0.288495
0.287376
0.286265
0.28516
0.284063
0.282974
0.313071
0.311603
0.310166
0.308762
0.30739
0.306051
0.304745
0.30347
0.302227
0.301013
0.299826
0.298664
0.297523
0.2964
0.29529
0.294191
0.2931
0.292013
0.290929
0.289849
0.288773
0.287701
0.286632
0.285567
0.315747
0.314289
0.312866
0.311478
0.310126
0.308811
0.307532
0.306292
0.305088
0.303919
0.302784
0.301678
0.300597
0.299537
0.298492
0.297456
0.296425
0.295395
0.294362
0.293327
0.29229
0.291251
0.29021
0.289165
0.319557
0.318106
0.316695
0.315322
0.313991
0.312702
0.311457
0.310257
0.309103
0.307993
0.306927
0.305898
0.304902
0.303931
0.302976
0.302029
0.301083
0.30013
0.299165
0.298185
0.297194
0.296191
0.295173
0.29414
0.324809
0.323355
0.321945
0.32058
0.319264
0.318
0.31679
0.315639
0.314549
0.313521
0.312553
0.311641
0.310775
0.309943
0.309131
0.308329
0.307519
0.30669
0.305833
0.304934
0.304008
0.303049
0.302056
0.301026
0.331682
0.330203
0.328776
0.327406
0.326097
0.324855
0.32369
0.322607
0.321617
0.320723
0.319926
0.319224
0.318598
0.318027
0.317484
0.316943
0.31638
0.315777
0.315113
0.314371
0.313546
0.312652
0.311683
0.310639
0.34015
0.338634
0.337186
0.335814
0.334528
0.333343
0.332277
0.33135
0.330576
0.329969
0.329537
0.329269
0.329138
0.329098
0.329096
0.32908
0.329005
0.328836
0.32854
0.328087
0.327424
0.326616
0.325656
0.324546
0.350384
0.348874
0.347462
0.346163
0.344999
0.343999
0.343198
0.342639
0.342363
0.342404
0.34277
0.343423
0.344291
0.345275
0.346268
0.347174
0.347923
0.348456
0.348723
0.348681
0.348278
0.347472
0.346378
0.345014
0.363567
0.362228
0.361046
0.360051
0.359287
0.358811
0.358693
0.359014
0.359839
0.361188
0.363044
0.365212
0.367536
0.369866
0.372054
0.37399
0.375606
0.376799
0.377508
0.377708
0.377374
0.376422
0.374866
0.372892
0.370573
0.383011
0.382319
0.381865
0.381696
0.381883
0.382517
0.383699
0.385512
0.387969
0.390839
0.394029
0.397364
0.400587
0.403434
0.405722
0.407384
0.408451
0.408884
0.408718
0.408015
0.406799
0.405112
0.402949
0.400265
0.397178
0.415587
0.416229
0.417026
0.418018
0.419266
0.420845
0.422757
0.424828
0.426986
0.429065
0.43079
0.431867
0.432063
0.431283
0.429668
0.427313
0.424459
0.42138
0.418237
0.41511
0.411918
0.408612
0.405247
0.401876
0.398549
0.464666
0.464769
0.464217
0.463033
0.461261
0.458948
0.456115
0.45273
0.448638
0.443626
0.43771
0.431176
0.42423
0.417066
0.410475
0.405041
0.400991
0.398255
0.396604
0.395753
0.395821
0.395806
0.395492
0.394746
0.393445
0.49199
0.482338
0.471566
0.460046
0.448113
0.436069
0.424194
0.412684
0.401779
0.391863
0.383711
0.378328
0.375782
0.375312
0.377706
0.383384
0.391754
0.401716
0.412426
0.423781
0.445428
0.465288
0.485197
0.504923
0.5239
0.450771
0.433143
0.416969
0.402645
0.390104
0.379456
0.37088
0.363717
0.358332
0.355655
0.357793
0.366479
0.379988
0.378961
0.389233
0.409279
0.436258
0.469241
0.505762
0.549444
0.704807
0.780448
0.86948
0.958743
1.05391
1.1708
0.434247
0.424998
0.417448
0.411069
0.405412
0.400363
0.395892
0.393222
0.394588
0.406004
0.429251
0.430569
0.454542
0.49777
0.547174
0.611243
0.709707
0.825959
1.03421
1.27085
1.67861
1.7839
1.96017
2.22659
2.70599
0.478715
0.472225
0.467107
0.463253
0.46057
0.45945
0.46195
0.47302
0.502194
0.503056
0.537696
0.610539
0.697519
0.735058
0.914426
1.13309
1.50993
1.9104
1.39959
1.20294
1.16931
1.25713
1.39254
1.51777
0.537167
0.538629
0.540805
0.544112
0.548553
0.555083
0.566051
0.588194
0.631345
0.636357
0.697698
0.763511
0.881663
1.00199
1.22353
0.430165
0.597806
0.957503
0.989451
0.909899
0.911117
0.972248
1.03517
1.08606
0.625585
0.631568
0.639236
0.648474
0.660098
0.676395
0.702359
0.748627
0.753486
0.817967
0.893122
1.08545
0.347368
0.735695
0.882349
0.836799
0.879969
0.965743
1.03987
1.10425
0.701621
0.767257
0.7733
0.889587
1.03493
1.23229
1.19217
1.50687
1.57546
1.65324
1.85476
2.21183
1.09429
1.19222
1.30701
1.45555
0.436652
0.43024
0.423225
0.415976
0.408692
0.402096
0.396666
0.392519
0.389619
0.387816
0.386904
0.386892
0.386773
0.386323
0.385424
0.383947
0.381914
0.427597
0.428705
0.429103
0.428597
0.427139
0.42476
0.421559
0.417938
0.414209
0.410574
0.407136
0.403836
0.400587
0.39739
0.394265
0.391239
0.388276
0.385387
0.391714
0.394705
0.397763
0.400631
0.403049
0.404835
0.40593
0.406244
0.405898
0.40504
0.40378
0.402171
0.400258
0.397928
0.395184
0.392154
0.388929
0.385592
0.362151
0.36402
0.36616
0.368413
0.370621
0.372626
0.374316
0.375547
0.37627
0.376502
0.376257
0.37554
0.374212
0.372465
0.370366
0.367977
0.365362
0.362581
0.342974
0.343397
0.344094
0.344987
0.345969
0.346919
0.347738
0.348342
0.34868
0.348723
0.348447
0.347772
0.346802
0.345569
0.344092
0.342401
0.340534
0.338532
0.33027
0.329878
0.329649
0.329551
0.329535
0.329539
0.329506
0.329391
0.329155
0.328772
0.328214
0.32747
0.326581
0.325543
0.324361
0.323049
0.321627
0.320115
0.320899
0.320128
0.31945
0.318846
0.318293
0.317762
0.317224
0.316654
0.31603
0.315336
0.314546
0.313691
0.312763
0.31176
0.310681
0.309532
0.308322
0.307061
0.313652
0.312698
0.3118
0.310947
0.310127
0.309325
0.308527
0.307717
0.306884
0.306016
0.305109
0.304171
0.303198
0.302189
0.301142
0.300058
0.298941
0.2978
0.308111
0.307053
0.306032
0.305044
0.30408
0.303131
0.302188
0.301244
0.30029
0.299322
0.29834
0.297346
0.296338
0.295314
0.294275
0.29322
0.292152
0.291072
0.304034
0.302903
0.301803
0.300727
0.299671
0.29863
0.297597
0.296567
0.295537
0.294504
0.293468
0.292431
0.291392
0.290348
0.289301
0.288251
0.287197
0.286142
0.301128
0.299945
0.298786
0.297648
0.296527
0.295419
0.294322
0.293231
0.292145
0.291061
0.289982
0.288906
0.287834
0.286766
0.285701
0.284639
0.28358
0.282526
0.299095
0.297872
0.29667
0.295485
0.294316
0.29316
0.292014
0.290876
0.289745
0.28862
0.287502
0.286392
0.285288
0.284192
0.283103
0.282022
0.280949
0.279884
0.297681
0.296428
0.295192
0.293973
0.292768
0.291574
0.29039
0.289215
0.288049
0.286889
0.285738
0.284597
0.283464
0.282341
0.281228
0.280125
0.279032
0.27795
0.296695
0.295419
0.294158
0.292912
0.291679
0.290456
0.289243
0.288038
0.286843
0.285655
0.284477
0.283308
0.28215
0.281002
0.279866
0.278741
0.277628
0.276528
0.296002
0.294709
0.293429
0.292162
0.290907
0.289661
0.288425
0.287197
0.285978
0.284767
0.283566
0.282375
0.281195
0.280026
0.278869
0.277725
0.276593
0.275475
0.295513
0.294206
0.292911
0.291628
0.290355
0.289092
0.287837
0.286591
0.285353
0.284123
0.282904
0.281694
0.280495
0.279309
0.278134
0.276973
0.275825
0.274692
0.295165
0.293846
0.29254
0.291244
0.289958
0.288681
0.287411
0.28615
0.284898
0.283653
0.282419
0.281194
0.279981
0.278779
0.27759
0.276415
0.275254
0.274107
0.294917
0.29359
0.292275
0.290969
0.289672
0.288384
0.287104
0.285831
0.284567
0.283311
0.282064
0.280828
0.279603
0.27839
0.277189
0.276003
0.27483
0.273672
0.294742
0.293409
0.292087
0.290774
0.289469
0.288173
0.286884
0.285603
0.284329
0.283065
0.281809
0.280564
0.27933
0.278108
0.276898
0.275703
0.274521
0.273355
0.294624
0.293287
0.291959
0.290641
0.289331
0.288028
0.286733
0.285446
0.284166
0.282895
0.281633
0.280381
0.27914
0.277912
0.276696
0.275494
0.274306
0.273133
0.29455
0.29321
0.291879
0.290558
0.289244
0.287938
0.286639
0.285348
0.284064
0.282789
0.281522
0.280266
0.279021
0.277788
0.276567
0.275361
0.274169
0.272991
0.294517
0.293176
0.291844
0.290521
0.289205
0.287897
0.286596
0.285303
0.284017
0.28274
0.281472
0.280213
0.278966
0.277731
0.276508
0.275299
0.274105
0.272925
0.307099
0.305624
0.304167
0.302728
0.301306
0.299901
0.298511
0.297135
0.295773
0.294422
0.293082
0.291752
0.29043
0.289117
0.287811
0.286512
0.28522
0.283936
0.28266
0.281393
0.280135
0.278887
0.27765
0.276426
0.307125
0.30565
0.304193
0.302754
0.301332
0.299928
0.298538
0.297164
0.295803
0.294454
0.293115
0.291787
0.290467
0.289156
0.287852
0.286555
0.285266
0.283984
0.28271
0.281445
0.280189
0.278943
0.277709
0.276486
0.307192
0.305716
0.304258
0.302819
0.301398
0.299994
0.298607
0.297234
0.295875
0.294528
0.293193
0.291868
0.290551
0.289243
0.287943
0.28665
0.285365
0.284087
0.282817
0.281556
0.280304
0.279062
0.277832
0.276614
0.307296
0.305819
0.304362
0.302923
0.301503
0.300101
0.298715
0.297345
0.29599
0.294647
0.293316
0.291996
0.290685
0.289383
0.288088
0.286801
0.285522
0.28425
0.282986
0.281732
0.280486
0.279251
0.278028
0.276817
0.307453
0.305974
0.304516
0.303078
0.301659
0.300259
0.298877
0.29751
0.29616
0.294823
0.293498
0.292185
0.290881
0.289586
0.2883
0.287022
0.285751
0.284488
0.283233
0.281987
0.280751
0.279525
0.278311
0.277108
0.307674
0.306195
0.304736
0.303299
0.301882
0.300485
0.299106
0.297745
0.296401
0.295071
0.293755
0.29245
0.291156
0.289872
0.288597
0.287329
0.28607
0.284819
0.283576
0.282342
0.281117
0.279903
0.278701
0.277511
0.307986
0.306505
0.305047
0.30361
0.302196
0.300803
0.29943
0.298075
0.296739
0.295419
0.294113
0.29282
0.291539
0.290268
0.289007
0.287754
0.286509
0.285273
0.284045
0.282826
0.281617
0.280418
0.27923
0.278055
0.308423
0.306942
0.305484
0.30405
0.30264
0.301252
0.299886
0.298541
0.297214
0.295906
0.294614
0.293336
0.292071
0.290817
0.289573
0.288339
0.287113
0.285895
0.284686
0.283486
0.282296
0.281116
0.279947
0.278789
0.309043
0.307561
0.306106
0.304676
0.303271
0.30189
0.300534
0.2992
0.297888
0.296595
0.29532
0.294061
0.292816
0.291584
0.290363
0.289152
0.287949
0.286756
0.28557
0.284393
0.283226
0.282068
0.280921
0.279785
0.309927
0.308448
0.306997
0.305573
0.304176
0.302807
0.301463
0.300144
0.298849
0.297577
0.296324
0.29509
0.293872
0.292668
0.291475
0.290293
0.289121
0.287956
0.286799
0.285651
0.284511
0.283381
0.28226
0.281149
0.311202
0.309728
0.308284
0.30687
0.305485
0.30413
0.302804
0.301505
0.300234
0.298988
0.297765
0.296563
0.295379
0.294211
0.293056
0.291911
0.290776
0.289648
0.288527
0.287413
0.286306
0.285207
0.284116
0.283032
0.313047
0.311582
0.31015
0.308749
0.307382
0.306046
0.304743
0.303472
0.302232
0.301021
0.299837
0.298677
0.297539
0.296418
0.295312
0.294216
0.293129
0.292047
0.290968
0.289895
0.288827
0.287764
0.286705
0.285651
0.315717
0.314265
0.312848
0.311466
0.31012
0.30881
0.307537
0.306301
0.305101
0.303936
0.302804
0.301701
0.300624
0.299567
0.298525
0.297494
0.296468
0.295445
0.294421
0.293396
0.292373
0.29135
0.290325
0.289298
0.319537
0.318098
0.316697
0.315335
0.314013
0.312733
0.311496
0.310303
0.309154
0.30805
0.306987
0.305961
0.304968
0.303999
0.303047
0.302104
0.301163
0.300219
0.299265
0.298303
0.297333
0.296354
0.295364
0.294361
0.324851
0.323417
0.322025
0.320678
0.319379
0.318129
0.316932
0.315791
0.314709
0.313685
0.31272
0.311807
0.310938
0.310103
0.309287
0.30848
0.307669
0.306844
0.305996
0.305121
0.304226
0.303305
0.302354
0.301372
0.3319
0.330456
0.329062
0.327723
0.326441
0.325223
0.324076
0.323007
0.322022
0.321126
0.320319
0.319596
0.318943
0.318342
0.317769
0.317202
0.31662
0.316006
0.315344
0.314616
0.313843
0.313014
0.312122
0.311164
0.340764
0.339306
0.337911
0.336587
0.335343
0.334188
0.333139
0.332209
0.331416
0.330772
0.330281
0.329937
0.329716
0.32958
0.329482
0.329378
0.329232
0.329014
0.328699
0.328252
0.327684
0.327002
0.326189
0.325242
0.351711
0.350279
0.348935
0.347691
0.346565
0.345579
0.344762
0.34415
0.343775
0.343668
0.343841
0.344278
0.344911
0.34566
0.346432
0.347148
0.347747
0.348185
0.348427
0.34843
0.348132
0.347607
0.346837
0.345815
0.366021
0.364734
0.363578
0.362578
0.361767
0.361191
0.360908
0.360982
0.36148
0.362431
0.363832
0.365624
0.367578
0.369574
0.371484
0.373208
0.37468
0.375856
0.376692
0.377112
0.377027
0.376491
0.375534
0.37417
0.372441
0.386191
0.38536
0.384721
0.384315
0.384199
0.384452
0.385161
0.386411
0.388277
0.390656
0.393439
0.396523
0.399725
0.402803
0.405543
0.407817
0.409576
0.410811
0.411464
0.411552
0.411109
0.409988
0.408352
0.406229
0.40369
0.417031
0.417137
0.417413
0.417913
0.418717
0.419918
0.421573
0.423607
0.426057
0.428912
0.432068
0.435312
0.43834
0.440898
0.442789
0.443936
0.444282
0.443805
0.442651
0.440976
0.438878
0.436364
0.433375
0.430048
0.426475
0.458165
0.458499
0.45872
0.458902
0.459144
0.459463
0.45986
0.460357
0.460967
0.461685
0.462545
0.463386
0.464145
0.464865
0.464869
0.463916
0.462134
0.459587
0.456305
0.45255
0.448592
0.444225
0.439584
0.434981
0.430712
0.482957
0.480334
0.477297
0.47399
0.470586
0.467285
0.464128
0.460993
0.459039
0.458613
0.460761
0.465998
0.472645
0.480213
0.487008
0.490952
0.492164
0.490769
0.48705
0.482144
0.477648
0.474944
0.47317
0.471542
0.470066
0.471809
0.464057
0.456743
0.450137
0.444534
0.440329
0.438105
0.438625
0.443264
0.454675
0.475034
0.501986
0.503379
0.523856
0.549957
0.565935
0.570962
0.567977
0.558899
0.548035
0.547587
0.584052
0.635959
0.690098
0.739273
0.790433
0.514579
0.510289
0.507707
0.50664
0.507365
0.510672
0.51715
0.529973
0.55565
0.592818
0.600746
0.656152
0.725164
0.749399
0.738608
0.709881
0.689493
0.668187
0.685773
0.834755
1.14202
1.95359
2.20689
2.44441
2.70004
0.708104
0.708933
0.708637
0.70805
0.708478
0.712317
0.726606
0.758487
0.748397
0.800511
0.910612
0.966873
0.977437
0.990055
1.0327
0.984915
1.06831
1.19418
1.91338
2.834
2.94287
2.34844
2.73655
2.82746
0.924112
0.925919
0.927562
0.929931
0.934123
0.941536
0.955993
0.98881
0.987632
1.07018
1.14169
1.09709
0.803134
1.29942
1.27491
1.36766
1.39363
1.47021
0.927291
0.927551
0.930127
0.936601
0.949412
0.973353
1.02089
1.03789
1.14238
1.2465
1.12889
0.485112
0.917556
0.756877
0.941647
1.10236
1.14658
0.25833
0.613714
0.737111
0.737889
1.10764
1.4087
1.34349
1.72584
1.84012
2.00712
2.20092
2.36363
1.02917
1.1209
1.225
1.33612
0.456522
0.456955
0.457489
0.458224
0.458808
0.458471
0.457019
0.4546
0.451381
0.447516
0.44336
0.439443
0.435282
0.430921
0.426774
0.422861
0.419218
0.428202
0.430998
0.43382
0.436387
0.438439
0.439764
0.440168
0.439585
0.438254
0.436391
0.434208
0.431849
0.429233
0.426361
0.423261
0.419963
0.41653
0.413041
0.391411
0.394118
0.397074
0.400087
0.402906
0.405313
0.40717
0.408432
0.409004
0.409008
0.408551
0.407649
0.406274
0.404498
0.402329
0.399798
0.396972
0.393902
0.363111
0.364561
0.366365
0.368303
0.370242
0.372048
0.373614
0.374873
0.375738
0.376192
0.376244
0.375816
0.375037
0.373893
0.372395
0.370575
0.368484
0.366176
0.344033
0.344263
0.344751
0.345424
0.34619
0.346951
0.347618
0.348128
0.348434
0.348509
0.348311
0.347871
0.347213
0.346322
0.345197
0.343856
0.342324
0.340638
0.330955
0.3305
0.330193
0.330006
0.329896
0.329812
0.329704
0.329534
0.329271
0.328892
0.328367
0.327739
0.326994
0.326121
0.325117
0.323987
0.322747
0.321413
0.32124
0.320454
0.319751
0.31912
0.318537
0.317978
0.317416
0.316831
0.316204
0.315521
0.314775
0.313979
0.313124
0.312205
0.311218
0.310166
0.309054
0.307893
0.313783
0.312829
0.311928
0.311071
0.310247
0.309441
0.308639
0.30783
0.307002
0.306148
0.305268
0.304366
0.303435
0.302474
0.30148
0.300453
0.299397
0.298314
0.308149
0.307092
0.306074
0.305087
0.304125
0.303179
0.30224
0.301301
0.300357
0.299401
0.298439
0.297468
0.296486
0.295492
0.294484
0.293462
0.292428
0.291383
0.30404
0.302912
0.301814
0.30074
0.299687
0.298649
0.29762
0.296596
0.295573
0.294549
0.293526
0.292503
0.291479
0.290453
0.289425
0.288393
0.287359
0.286323
0.301129
0.299948
0.298791
0.297655
0.296536
0.295432
0.294338
0.293251
0.292169
0.291092
0.290019
0.288952
0.28789
0.286832
0.285777
0.284727
0.283679
0.282637
0.2991
0.297878
0.296678
0.295495
0.294328
0.293174
0.29203
0.290895
0.289767
0.288646
0.287532
0.286427
0.285329
0.284239
0.283156
0.282082
0.281015
0.279956
0.297691
0.296439
0.295205
0.293987
0.292783
0.291591
0.290409
0.289236
0.288071
0.286914
0.285766
0.284627
0.283498
0.282379
0.281269
0.280169
0.27908
0.278002
0.296709
0.295434
0.294175
0.29293
0.291697
0.290475
0.289263
0.28806
0.286866
0.28568
0.284503
0.283337
0.28218
0.281035
0.2799
0.278778
0.277667
0.276568
0.296018
0.294726
0.293447
0.292181
0.290926
0.289681
0.288446
0.287219
0.286001
0.284791
0.283591
0.282401
0.281222
0.280054
0.278899
0.277756
0.276625
0.275509
0.295528
0.294222
0.292928
0.291645
0.290373
0.28911
0.287856
0.28661
0.285373
0.284145
0.282925
0.281716
0.280519
0.279332
0.278159
0.276998
0.275851
0.274718
0.295177
0.29386
0.292554
0.291258
0.289973
0.288696
0.287427
0.286166
0.284914
0.28367
0.282436
0.281212
0.279999
0.278797
0.277609
0.276434
0.275273
0.274126
0.294926
0.2936
0.292284
0.290979
0.289683
0.288395
0.287115
0.285842
0.284578
0.283323
0.282076
0.28084
0.279615
0.278402
0.277202
0.276015
0.274843
0.273684
0.294747
0.293415
0.292093
0.29078
0.289476
0.288179
0.28689
0.285609
0.284336
0.283072
0.281816
0.280571
0.279337
0.278115
0.276906
0.27571
0.274528
0.273362
0.294627
0.29329
0.291963
0.290644
0.289334
0.288032
0.286737
0.28545
0.28417
0.282899
0.281637
0.280385
0.279144
0.277915
0.276699
0.275497
0.274309
0.273135
0.294552
0.293212
0.291881
0.29056
0.289246
0.28794
0.286641
0.28535
0.284066
0.282791
0.281524
0.280268
0.279023
0.277789
0.276569
0.275362
0.274169
0.272991
0.294519
0.293177
0.291845
0.290522
0.289206
0.287898
0.286597
0.285304
0.284018
0.282741
0.281472
0.280214
0.278966
0.27773
0.276508
0.275298
0.274103
0.272923
0.307101
0.305628
0.304172
0.302734
0.301313
0.299908
0.298519
0.297144
0.295782
0.294431
0.293092
0.291762
0.29044
0.289127
0.287821
0.286522
0.28523
0.283946
0.282669
0.281402
0.280143
0.278894
0.277657
0.276431
0.307129
0.305655
0.304199
0.302761
0.301341
0.299937
0.298548
0.297174
0.295814
0.294465
0.293127
0.291799
0.29048
0.289168
0.287864
0.286568
0.285278
0.283996
0.282722
0.281456
0.2802
0.278953
0.277718
0.276495
0.307199
0.305724
0.304268
0.30283
0.30141
0.300007
0.29862
0.297248
0.29589
0.294544
0.293209
0.291885
0.290569
0.289261
0.287961
0.286668
0.285382
0.284104
0.282834
0.281573
0.28032
0.279078
0.277847
0.276629
0.307309
0.305833
0.304377
0.30294
0.301521
0.30012
0.298736
0.297367
0.296012
0.294671
0.293341
0.292021
0.290711
0.289409
0.288115
0.286828
0.285549
0.284277
0.283013
0.281758
0.280513
0.279277
0.278053
0.276841
0.307472
0.305996
0.30454
0.303104
0.301687
0.300288
0.298907
0.297542
0.296193
0.294857
0.293534
0.292221
0.290919
0.289625
0.288339
0.287061
0.285791
0.284528
0.283274
0.282028
0.280791
0.279566
0.278351
0.277148
0.307702
0.306225
0.304769
0.303334
0.301919
0.300524
0.299148
0.297789
0.296446
0.295118
0.293803
0.2925
0.291208
0.289924
0.28865
0.287383
0.286125
0.284874
0.283632
0.282398
0.281174
0.279961
0.278758
0.277568
0.30802
0.306542
0.305087
0.303654
0.302242
0.300851
0.299481
0.298129
0.296795
0.295477
0.294173
0.292882
0.291602
0.290333
0.289073
0.287821
0.286578
0.285343
0.284116
0.282898
0.28169
0.280492
0.279305
0.27813
0.308459
0.306981
0.305527
0.304097
0.30269
0.301305
0.299942
0.2986
0.297276
0.295971
0.294681
0.293406
0.292143
0.290891
0.289649
0.288417
0.287193
0.285977
0.28477
0.283571
0.282383
0.281204
0.280037
0.278881
0.309074
0.307597
0.306146
0.30472
0.30332
0.301943
0.30059
0.29926
0.297951
0.296662
0.29539
0.294134
0.292892
0.291663
0.290444
0.289236
0.288036
0.286845
0.285662
0.284487
0.283323
0.282168
0.281024
0.279891
0.309949
0.308475
0.307029
0.305611
0.304219
0.302854
0.301515
0.300201
0.29891
0.297642
0.296393
0.295163
0.293948
0.292747
0.291558
0.29038
0.289211
0.28805
0.286897
0.285753
0.284618
0.283492
0.282376
0.28127
0.311208
0.309741
0.308304
0.306896
0.305518
0.304169
0.302848
0.301556
0.30029
0.299049
0.297831
0.296633
0.295454
0.29429
0.293139
0.292
0.290869
0.289747
0.288631
0.287523
0.286424
0.285333
0.28425
0.283176
0.313033
0.311578
0.310155
0.308763
0.307404
0.306077
0.304782
0.303518
0.302285
0.30108
0.299902
0.298748
0.297616
0.2965
0.2954
0.29431
0.29323
0.292155
0.291086
0.290023
0.288967
0.287917
0.286873
0.285833
0.315686
0.314248
0.312844
0.311475
0.310142
0.308844
0.307582
0.306356
0.305165
0.304009
0.302885
0.301789
0.300719
0.299669
0.298634
0.297611
0.296594
0.295582
0.29457
0.293563
0.29256
0.291558
0.290557
0.289555
0.319511
0.318094
0.316714
0.315372
0.314069
0.312807
0.311587
0.310409
0.309274
0.308181
0.307128
0.306111
0.305125
0.304163
0.303219
0.302285
0.301356
0.300425
0.29949
0.298554
0.297616
0.296673
0.295723
0.294763
0.324899
0.323501
0.322145
0.320831
0.319563
0.318342
0.317172
0.316054
0.314991
0.313983
0.313028
0.312123
0.311259
0.310426
0.309614
0.308811
0.308007
0.307195
0.306368
0.305532
0.304685
0.303822
0.302936
0.302025
0.332199
0.330817
0.329482
0.328198
0.326969
0.325798
0.324691
0.323655
0.322694
0.321812
0.321008
0.320278
0.319609
0.318986
0.318388
0.317797
0.317198
0.316578
0.315927
0.315249
0.314546
0.313806
0.313018
0.312175
0.341663
0.340307
0.33901
0.337775
0.336611
0.335525
0.334528
0.333633
0.332849
0.332188
0.331653
0.331236
0.33092
0.330672
0.330457
0.330239
0.329993
0.329701
0.329346
0.328932
0.328465
0.327923
0.327284
0.326537
0.353843
0.352558
0.351346
0.350217
0.349182
0.348258
0.347464
0.346826
0.346367
0.346109
0.346064
0.34622
0.346539
0.34696
0.347404
0.347812
0.348144
0.348375
0.348486
0.34847
0.348349
0.348084
0.34764
0.346995
0.36996
0.368806
0.367752
0.366815
0.366018
0.365391
0.364969
0.364796
0.364918
0.365376
0.366177
0.367288
0.368626
0.370051
0.371408
0.372625
0.373662
0.374493
0.3751
0.375455
0.37561
0.375532
0.375192
0.374571
0.373638
0.391396
0.390543
0.389822
0.389262
0.388902
0.388794
0.389
0.389583
0.390608
0.392118
0.394032
0.396217
0.398547
0.400852
0.40297
0.40479
0.406272
0.407416
0.408225
0.408689
0.408881
0.408751
0.408247
0.407339
0.406038
0.42047
0.420208
0.420021
0.420025
0.420272
0.420836
0.421777
0.423076
0.424784
0.426917
0.429444
0.432238
0.435099
0.437781
0.440053
0.441766
0.442901
0.443514
0.443602
0.443378
0.442935
0.44217
0.44099
0.439311
0.437082
0.455528
0.455832
0.456166
0.456495
0.456876
0.457405
0.45813
0.459118
0.460408
0.462009
0.463899
0.466023
0.468151
0.47007
0.471484
0.472023
0.471602
0.470346
0.468417
0.466273
0.464452
0.462751
0.46067
0.458117
0.455227
0.477168
0.475987
0.474861
0.473886
0.473185
0.472884
0.473131
0.473565
0.474389
0.475976
0.47903
0.483448
0.488042
0.492649
0.495908
0.497717
0.498311
0.497247
0.494522
0.49125
0.48923
0.488184
0.486654
0.484363
0.481871
0.47918
0.474336
0.469913
0.466078
0.462991
0.460683
0.459637
0.461275
0.466503
0.478006
0.496145
0.497304
0.510669
0.532088
0.552777
0.56555
0.568879
0.565319
0.555863
0.54416
0.53531
0.533593
0.541215
0.551471
0.565991
0.585516
0.511478
0.503773
0.49784
0.493731
0.491695
0.492306
0.49674
0.508349
0.538157
0.54263
0.574407
0.635693
0.695272
0.709498
0.700708
0.662684
0.618532
0.57683
0.545132
0.543865
0.561203
0.716309
1.03325
1.21921
1.42561
0.649556
0.642891
0.637656
0.634454
0.634546
0.640268
0.65638
0.647809
0.678202
0.749098
0.829687
0.913914
1.02169
0.987346
1.81408
3.08095
4.00085
3.48685
3.49221
0.830181
0.806084
0.781303
0.756181
0.732294
0.715924
0.701969
0.716909
0.761466
0.829878
0.877147
0.497394
0.845413
1.23216
1.39435
2.07176
1.02891
1.01097
0.997114
0.988791
0.986982
0.985022
0.978676
1.00122
1.023
0.880532
0.321363
0.765309
1.03459
1.09828
0.31619
0.488298
0.870037
1.28996
1.24246
1.52648
1.81722
1.57988
1.68414
0.904673
0.871011
0.913265
0.969083
0.742727
0.740782
0.741347
0.745333
0.45936
0.460938
0.462786
0.46466
0.466266
0.467132
0.466823
0.465495
0.463368
0.46071
0.458098
0.45621
0.454793
0.453226
0.451295
0.449008
0.446478
0.426894
0.429276
0.43188
0.4345
0.436878
0.438765
0.440003
0.440558
0.440406
0.43983
0.439073
0.438348
0.437457
0.436275
0.434731
0.432772
0.430309
0.427643
0.39249
0.394421
0.396598
0.398885
0.4011
0.403067
0.40467
0.405873
0.406683
0.407149
0.407316
0.407246
0.406905
0.406243
0.405228
0.403867
0.402154
0.400089
0.365596
0.366458
0.367623
0.369
0.37042
0.37174
0.372884
0.373808
0.374494
0.374931
0.375139
0.375145
0.374927
0.374461
0.373732
0.372695
0.371347
0.369734
0.346164
0.346164
0.346366
0.34673
0.347181
0.347637
0.348033
0.348324
0.348487
0.34851
0.348422
0.348225
0.347884
0.347369
0.346658
0.345744
0.344639
0.343367
0.332201
0.331691
0.331302
0.331014
0.330791
0.330592
0.33038
0.330126
0.329812
0.329418
0.328981
0.328484
0.327909
0.327237
0.326456
0.325562
0.324563
0.323472
0.321832
0.321043
0.320328
0.319676
0.319069
0.318484
0.317901
0.317303
0.316678
0.316015
0.315331
0.314618
0.313866
0.313063
0.312204
0.311287
0.310314
0.30929
0.314027
0.313081
0.312185
0.311331
0.310507
0.309703
0.308906
0.308106
0.307294
0.306465
0.305629
0.30478
0.303913
0.303021
0.302103
0.301156
0.300181
0.299182
0.308247
0.307199
0.306188
0.305208
0.304253
0.303313
0.302384
0.301457
0.300528
0.299594
0.298659
0.297722
0.296779
0.295826
0.294864
0.293889
0.292903
0.291906
0.304093
0.302972
0.30188
0.300813
0.299766
0.298735
0.297714
0.296699
0.295688
0.294678
0.293673
0.292671
0.29167
0.290669
0.289667
0.288663
0.287657
0.286651
0.301176
0.3
0.298848
0.297718
0.296604
0.295505
0.294417
0.293338
0.292264
0.291196
0.290135
0.28908
0.288031
0.286988
0.285949
0.284914
0.283884
0.282858
0.299153
0.297936
0.296739
0.295561
0.294398
0.293248
0.292108
0.290978
0.289856
0.288741
0.287634
0.286536
0.285446
0.284365
0.283292
0.282226
0.281169
0.280121
0.29775
0.296502
0.295272
0.294057
0.292856
0.291667
0.290489
0.289319
0.288158
0.287005
0.285862
0.284727
0.283603
0.282489
0.281384
0.28029
0.279207
0.278134
0.296771
0.295499
0.294243
0.293001
0.291771
0.290552
0.289342
0.288142
0.28695
0.285767
0.284593
0.283429
0.282275
0.281133
0.280002
0.278882
0.277774
0.276679
0.29608
0.29479
0.293513
0.292249
0.290996
0.289754
0.28852
0.287295
0.286079
0.284871
0.283672
0.282484
0.281307
0.280141
0.278986
0.277845
0.276716
0.275601
0.295584
0.294279
0.292987
0.291706
0.290435
0.289174
0.287921
0.286676
0.28544
0.284213
0.282995
0.281787
0.28059
0.279404
0.278231
0.277071
0.275925
0.274792
0.295222
0.293906
0.292601
0.291307
0.290022
0.288746
0.287478
0.286219
0.284967
0.283724
0.28249
0.281266
0.280053
0.278852
0.277664
0.276489
0.275328
0.27418
0.294958
0.293633
0.292319
0.291015
0.289719
0.288431
0.287152
0.28588
0.284616
0.283361
0.282114
0.280878
0.279653
0.27844
0.277239
0.276052
0.274879
0.27372
0.294769
0.293438
0.292116
0.290804
0.2895
0.288204
0.286915
0.285634
0.284361
0.283096
0.281841
0.280595
0.279361
0.278138
0.276928
0.275732
0.274549
0.273381
0.294642
0.293305
0.291978
0.29066
0.28935
0.288048
0.286753
0.285466
0.284186
0.282914
0.281652
0.2804
0.279158
0.277929
0.276712
0.275509
0.274319
0.273145
0.294562
0.293222
0.291892
0.290571
0.289257
0.287951
0.286652
0.28536
0.284076
0.282801
0.281534
0.280277
0.279031
0.277797
0.276575
0.275367
0.274173
0.272994
0.294527
0.293186
0.291854
0.290531
0.289215
0.287907
0.286606
0.285312
0.284026
0.282748
0.281479
0.28022
0.278972
0.277735
0.276511
0.275301
0.274105
0.272923
0.307108
0.305636
0.304182
0.302746
0.301326
0.299922
0.298534
0.29716
0.295799
0.294449
0.29311
0.29178
0.290459
0.289146
0.28784
0.286541
0.285249
0.283965
0.282687
0.281419
0.280159
0.27891
0.277671
0.276444
0.307139
0.305666
0.304212
0.302776
0.301357
0.299954
0.298567
0.297194
0.295834
0.294487
0.293149
0.291822
0.290503
0.289192
0.287888
0.286592
0.285302
0.284019
0.282745
0.281478
0.280221
0.278973
0.277737
0.276512
0.307214
0.305742
0.304288
0.302852
0.301434
0.300033
0.298647
0.297277
0.29592
0.294575
0.293241
0.291917
0.290602
0.289295
0.287995
0.286702
0.285417
0.284139
0.282868
0.281606
0.280353
0.27911
0.277878
0.276658
0.307337
0.305864
0.304411
0.302976
0.30156
0.300161