/*--------------------------------*- C++ -*----------------------------------*\
  =========                 |
  \\      /  F ield         | OpenFOAM: The Open Source CFD Toolbox
   \\    /   O peration     | Website:  https://openfoam.org
    \\  /    A nd           | Version:  13
     \\/     M anipulation  |
\*---------------------------------------------------------------------------*/
FoamFile
{
    format      ascii;
    class       volScalarField;
    location    "400";
    object      nut;
}
// * * * * * * * * * * * * * * * * * * * * * * * * * * * * * * * * * * * * * //

dimensions      [0 2 -1 0 0 0 0];

internalField   nonuniform List<scalar> 
171745
(
0.0187242
0.0187108
0.0186976
0.0186845
0.0186715
0.0186586
0.0186458
0.0186332
0.0186205
0.0186078
0.0185952
0.0185825
0.0185697
0.0185569
0.018544
0.0185309
0.0185178
0.0185047
0.0184914
0.0184782
0.018465
0.0184517
0.0184386
0.0184256
0.0187251
0.0187118
0.0186985
0.0186854
0.0186725
0.0186596
0.0186469
0.0186342
0.0186216
0.018609
0.0185964
0.0185837
0.018571
0.0185582
0.0185454
0.0185324
0.0185194
0.0185063
0.0184931
0.0184799
0.0184668
0.0184536
0.0184406
0.0184276
0.0187273
0.0187139
0.0187006
0.0186875
0.0186746
0.0186618
0.0186491
0.0186365
0.018624
0.0186114
0.0185989
0.0185864
0.0185738
0.0185611
0.0185484
0.0185355
0.0185226
0.0185096
0.0184966
0.0184835
0.0184705
0.0184575
0.0184446
0.0184318
0.0187306
0.0187172
0.018704
0.0186909
0.018678
0.0186653
0.0186527
0.0186402
0.0186277
0.0186154
0.018603
0.0185906
0.0185782
0.0185657
0.0185531
0.0185405
0.0185278
0.018515
0.0185021
0.0184893
0.0184765
0.0184637
0.018451
0.0184384
0.0187356
0.0187221
0.0187089
0.0186959
0.0186831
0.0186704
0.0186579
0.0186456
0.0186333
0.0186211
0.0186089
0.0185968
0.0185846
0.0185723
0.01856
0.0185476
0.0185352
0.0185227
0.0185102
0.0184976
0.0184851
0.0184726
0.0184602
0.0184479
0.0187425
0.0187291
0.0187159
0.018703
0.0186902
0.0186777
0.0186654
0.0186532
0.0186411
0.0186292
0.0186173
0.0186054
0.0185935
0.0185816
0.0185697
0.0185577
0.0185456
0.0185335
0.0185213
0.0185091
0.018497
0.0184849
0.0184729
0.018461
0.0187522
0.0187388
0.0187257
0.0187128
0.0187002
0.0186879
0.0186757
0.0186638
0.018652
0.0186404
0.0186289
0.0186174
0.0186059
0.0185945
0.018583
0.0185714
0.0185598
0.0185482
0.0185365
0.0185249
0.0185132
0.0185016
0.0184901
0.0184787
0.0187656
0.0187523
0.0187393
0.0187266
0.0187142
0.0187021
0.0186902
0.0186786
0.0186672
0.018656
0.018645
0.018634
0.0186231
0.0186122
0.0186013
0.0185904
0.0185794
0.0185684
0.0185573
0.0185463
0.0185353
0.0185243
0.0185134
0.0185026
0.0187844
0.0187712
0.0187584
0.018746
0.0187338
0.0187221
0.0187106
0.0186995
0.0186886
0.018678
0.0186675
0.0186572
0.018647
0.0186369
0.0186267
0.0186166
0.0186064
0.0185962
0.018586
0.0185757
0.0185655
0.0185553
0.0185451
0.0185351
0.0188111
0.0187981
0.0187856
0.0187735
0.0187618
0.0187505
0.0187396
0.0187291
0.0187189
0.0187091
0.0186994
0.01869
0.0186808
0.0186716
0.0186624
0.0186533
0.0186442
0.018635
0.0186257
0.0186164
0.0186072
0.0185979
0.0185887
0.0185795
0.0188491
0.0188366
0.0188245
0.0188129
0.0188018
0.0187912
0.0187811
0.0187714
0.0187621
0.0187533
0.0187448
0.0187365
0.0187285
0.0187206
0.0187128
0.018705
0.0186972
0.0186892
0.0186812
0.0186731
0.018665
0.0186569
0.0186487
0.0186405
0.0189034
0.0188915
0.0188801
0.0188693
0.018859
0.0188493
0.0188401
0.0188315
0.0188235
0.0188159
0.0188089
0.0188022
0.0187958
0.0187896
0.0187834
0.0187774
0.0187712
0.0187649
0.0187584
0.0187518
0.018745
0.0187382
0.0187312
0.0187241
0.0189802
0.018969
0.0189584
0.0189485
0.0189392
0.0189305
0.0189226
0.0189153
0.0189087
0.0189028
0.0188975
0.0188927
0.0188884
0.0188843
0.0188803
0.0188764
0.0188723
0.018868
0.0188634
0.0188585
0.0188533
0.0188478
0.0188421
0.018836
0.0190848
0.0190742
0.0190642
0.019055
0.0190465
0.0190388
0.0190319
0.0190259
0.0190208
0.0190166
0.0190132
0.0190105
0.0190084
0.0190068
0.0190053
0.0190039
0.0190024
0.0190005
0.0189982
0.0189953
0.0189919
0.018988
0.0189835
0.0189785
0.0192142
0.0192034
0.0191933
0.019184
0.0191755
0.0191679
0.0191613
0.0191558
0.0191514
0.0191482
0.0191462
0.0191454
0.0191454
0.0191461
0.0191473
0.0191486
0.0191498
0.0191508
0.0191512
0.0191509
0.0191498
0.0191478
0.0191447
0.0191407
0.0193429
0.0193302
0.0193182
0.019307
0.0192966
0.0192871
0.0192788
0.0192719
0.0192664
0.0192625
0.0192603
0.0192597
0.0192604
0.019262
0.0192642
0.0192665
0.019269
0.0192714
0.0192738
0.019276
0.0192773
0.0192772
0.0192755
0.0192723
0.0194046
0.0193878
0.0193716
0.0193558
0.0193407
0.0193264
0.0193132
0.0193012
0.0192905
0.0192811
0.0192728
0.0192652
0.0192577
0.0192495
0.0192403
0.0192303
0.0192201
0.0192109
0.019204
0.0192006
0.019201
0.0192001
0.0191976
0.0191935
0.019291
0.0192677
0.019244
0.0192196
0.0191945
0.0191685
0.0191411
0.0191119
0.0190799
0.0190435
0.0190005
0.0189483
0.0188849
0.0188095
0.0187242
0.018633
0.0185417
0.0184568
0.0183849
0.0183319
0.0183027
0.0182926
0.0182848
0.0182794
0.0188534
0.0188149
0.0187717
0.0187226
0.0186657
0.0185985
0.0185176
0.0184181
0.0182941
0.0181382
0.0179425
0.016975
0.0160921
0.0156459
0.0155455
0.0156644
0.0158977
0.0158171
0.0155823
0.0154007
0.0152798
0.0152305
0.0152338
0.0152505
0.0152797
0.0178098
0.0177098
0.0175869
0.0174364
0.0172525
0.0170279
0.0167543
0.0164224
0.015819
0.014181
0.012912
0.0120113
0.0114574
0.0112029
0.0111715
0.0112409
0.0113283
0.0110972
0.0107804
0.0105309
0.0103496
0.0102373
0.0102035
0.0102489
0.0103155
0.0153568
0.0150178
0.0146323
0.0142022
0.0137288
0.0132132
0.0124857
0.0112657
0.0101767
0.00926767
0.00856436
0.00807182
0.00777914
0.00765858
0.00764263
0.00742985
0.00712356
0.00686981
0.0066602
0.00648942
0.0063544
0.00625622
0.00619468
0.0061706
0.00620029
0.0100992
0.00957959
0.00908226
0.00860937
0.00816025
0.00773238
0.00732245
0.00692741
0.00651211
0.00608777
0.00575005
0.00551254
0.00525612
0.00503501
0.00486275
0.00473201
0.00463071
0.00454549
0.00446565
0.00438665
0.00430489
0.00423716
0.00419052
0.00416489
0.00415794
0.00487898
0.00466598
0.00447871
0.00431403
0.00416899
0.00404112
0.00392856
0.00383015
0.00374599
0.00367835
0.00363321
0.0036187
0.00363494
0.00366478
0.00371581
0.0037759
0.00381895
0.00381465
0.00375164
0.00364859
0.00350557
0.00344778
0.00344935
0.00348954
0.00355509
0.00274808
0.00273769
0.00273871
0.00275124
0.00277461
0.00280915
0.00285601
0.00291413
0.00298687
0.00308134
0.00321161
0.00338707
0.00357992
0.00361352
0.0037654
0.00394672
0.00406081
0.00395032
0.00363211
0.00330792
0.0029022
0.00309903
0.00306873
0.00304983
0.00308487
0.00311704
0.00266172
0.00276447
0.00287162
0.00298215
0.00309538
0.00321193
0.00333336
0.0034672
0.00362761
0.00384737
0.00410989
0.00416124
0.00438293
0.00458461
0.00443206
0.00391023
0.00285924
0.00243784
0.00242848
0.00268981
0.00292139
0.00363118
0.00418059
0.00493944
0.00613856
0.00351114
0.00365859
0.00380708
0.00395673
0.00410774
0.00426253
0.00443112
0.00463689
0.00491204
0.0049547
0.00397118
0.00433255
0.0046398
0.00407605
0.00186837
0.00166828
0.001348
0.00256684
0.00493153
0.00763897
0.00944273
0.00958658
0.00978958
0.0106266
0.00458577
0.00477822
0.00496565
0.00514918
0.00532763
0.00550253
0.00567931
0.00587471
0.00477013
0.00530721
0.00286665
0.00319616
0.00188966
0.00175115
0.000648066
0.000957978
0.00183308
0.00626266
0.00779005
0.0090076
0.00873373
0.00870097
0.00892934
0.0092006
0.00623755
0.00641442
0.00658463
0.00661564
0.00630246
0.00577669
0.00499482
0.0040542
0.00603894
0.00293228
0.00358932
0.00134297
0.000316667
0.00254447
0.00791986
0.007195
0.00685492
0.00681084
0.0072371
0.00760497
0.00577034
0.00694513
0.00650042
0.00639888
0.00659161
0.0068843
0.00700952
0.00206464
0.00275684
0.00338397
0.00408384
0.00522391
0.00347665
0.00328664
0.00332761
0.00340552
0.00595005
0.0056281
0.0053381
0.00509031
0.00488787
0.00473288
0.0046181
0.00453216
0.0044636
0.00440336
0.00434661
0.00428652
0.00423539
0.00419997
0.00418097
0.00417734
0.00419787
0.009121
0.00844983
0.00798797
0.00773238
0.00766435
0.00756327
0.00722074
0.00694112
0.00671364
0.00652989
0.00638432
0.00627315
0.00619628
0.00615288
0.00615318
0.00620264
0.006276
0.00636675
0.0139706
0.0127572
0.0119069
0.011409
0.0112301
0.0113072
0.0115151
0.0112336
0.0108842
0.010603
0.010389
0.0102418
0.010161
0.010167
0.0102214
0.0102965
0.0103902
0.0105006
0.0179848
0.0177675
0.0167899
0.0159758
0.0156186
0.0156463
0.0159393
0.0158867
0.0156269
0.0154162
0.0152621
0.0151702
0.0151567
0.0151642
0.0151854
0.0152189
0.0152632
0.0153171
0.0189919
0.0189416
0.0188813
0.0188093
0.0187259
0.018634
0.0185386
0.0184462
0.0183637
0.0182973
0.0182522
0.0182346
0.0182241
0.0182164
0.0182114
0.0182091
0.0182094
0.0182121
0.0192643
0.0192546
0.0192453
0.0192359
0.0192258
0.0192148
0.0192031
0.0191917
0.0191818
0.019175
0.0191722
0.019171
0.0191687
0.0191649
0.0191598
0.0191535
0.0191462
0.0191383
0.0192578
0.0192556
0.0192549
0.0192554
0.0192569
0.0192588
0.0192609
0.0192631
0.0192651
0.0192672
0.0192689
0.0192694
0.0192684
0.0192659
0.0192619
0.0192564
0.0192496
0.0192418
0.0191483
0.0191464
0.0191457
0.0191459
0.0191468
0.019148
0.0191494
0.0191506
0.0191514
0.0191516
0.019151
0.0191496
0.0191472
0.0191437
0.0191392
0.0191336
0.0191271
0.0191198
0.0190184
0.0190152
0.0190126
0.0190107
0.0190092
0.0190078
0.0190065
0.0190049
0.019003
0.0190006
0.0189977
0.0189942
0.0189902
0.0189855
0.0189803
0.0189744
0.018968
0.0189611
0.0189053
0.0189001
0.0188954
0.0188911
0.0188871
0.0188833
0.0188793
0.0188753
0.018871
0.0188664
0.0188614
0.0188563
0.0188508
0.018845
0.0188388
0.0188324
0.0188257
0.0188188
0.0188186
0.0188116
0.018805
0.0187986
0.0187925
0.0187864
0.0187804
0.0187742
0.0187679
0.0187614
0.0187548
0.0187481
0.0187412
0.0187342
0.0187271
0.0187199
0.0187126
0.0187052
0.018756
0.0187475
0.0187393
0.0187313
0.0187235
0.0187157
0.0187079
0.0187001
0.0186922
0.0186841
0.0186761
0.018668
0.0186599
0.0186517
0.0186436
0.0186355
0.0186274
0.0186193
0.0187118
0.0187022
0.0186928
0.0186836
0.0186744
0.0186653
0.0186561
0.018647
0.0186378
0.0186285
0.0186193
0.01861
0.0186008
0.0185916
0.0185825
0.0185735
0.0185645
0.0185557
0.0186807
0.0186703
0.01866
0.0186498
0.0186396
0.0186295
0.0186193
0.0186091
0.0185989
0.0185886
0.0185784
0.0185682
0.018558
0.0185479
0.0185379
0.0185281
0.0185184
0.0185088
0.0186587
0.0186476
0.0186366
0.0186257
0.0186148
0.0186039
0.0185929
0.0185819
0.0185709
0.0185598
0.0185488
0.0185378
0.0185269
0.018516
0.0185053
0.0184947
0.0184843
0.0184741
0.018643
0.0186314
0.0186199
0.0186084
0.0185969
0.0185854
0.0185738
0.0185622
0.0185506
0.0185389
0.0185272
0.0185156
0.018504
0.0184926
0.0184812
0.0184701
0.0184591
0.0184483
0.0186317
0.0186197
0.0186078
0.0185959
0.018584
0.018572
0.0185599
0.0185478
0.0185357
0.0185235
0.0185114
0.0184992
0.0184872
0.0184752
0.0184634
0.0184517
0.0184402
0.0184289
0.0186235
0.0186113
0.0185991
0.0185868
0.0185746
0.0185622
0.0185498
0.0185373
0.0185248
0.0185122
0.0184997
0.0184872
0.0184747
0.0184623
0.0184501
0.0184381
0.0184262
0.0184145
0.0186177
0.0186052
0.0185928
0.0185803
0.0185678
0.0185552
0.0185425
0.0185297
0.0185169
0.0185041
0.0184912
0.0184784
0.0184657
0.018453
0.0184405
0.0184281
0.018416
0.018404
0.0186137
0.0186011
0.0185885
0.0185759
0.0185632
0.0185504
0.0185375
0.0185245
0.0185115
0.0184984
0.0184854
0.0184724
0.0184594
0.0184465
0.0184338
0.0184212
0.0184088
0.0183966
0.0186112
0.0185986
0.0185859
0.0185731
0.0185603
0.0185474
0.0185343
0.0185213
0.0185081
0.0184949
0.0184817
0.0184686
0.0184554
0.0184424
0.0184295
0.0184168
0.0184043
0.0183919
0.01861
0.0185973
0.0185846
0.0185718
0.0185589
0.0185459
0.0185328
0.0185197
0.0185065
0.0184932
0.01848
0.0184667
0.0184535
0.0184404
0.0184275
0.0184147
0.0184021
0.0183897
0.0187242
0.0187108
0.0186976
0.0186845
0.0186715
0.0186587
0.0186459
0.0186333
0.0186206
0.018608
0.0185953
0.0185826
0.0185699
0.018557
0.0185441
0.0185311
0.018518
0.0185049
0.0184916
0.0184784
0.0184651
0.0184519
0.0184388
0.0184258
0.0187251
0.0187118
0.0186986
0.0186855
0.0186725
0.0186597
0.018647
0.0186343
0.0186218
0.0186092
0.0185966
0.0185839
0.0185712
0.0185585
0.0185456
0.0185327
0.0185196
0.0185065
0.0184934
0.0184802
0.018467
0.0184539
0.0184408
0.0184279
0.0187274
0.018714
0.0187008
0.0186877
0.0186748
0.018662
0.0186493
0.0186368
0.0186242
0.0186117
0.0185993
0.0185867
0.0185741
0.0185615
0.0185487
0.0185359
0.018523
0.0185101
0.018497
0.018484
0.018471
0.018458
0.018445
0.0184322
0.0187309
0.0187175
0.0187043
0.0186913
0.0186784
0.0186657
0.0186531
0.0186407
0.0186283
0.0186159
0.0186036
0.0185912
0.0185788
0.0185663
0.0185538
0.0185412
0.0185285
0.0185157
0.0185029
0.0184901
0.0184773
0.0184645
0.0184518
0.0184392
0.0187361
0.0187227
0.0187096
0.0186966
0.0186838
0.0186712
0.0186587
0.0186464
0.0186342
0.018622
0.0186099
0.0185978
0.0185856
0.0185734
0.0185611
0.0185488
0.0185364
0.0185239
0.0185114
0.0184989
0.0184863
0.0184739
0.0184615
0.0184492
0.0187433
0.01873
0.0187169
0.018704
0.0186913
0.0186788
0.0186665
0.0186544
0.0186424
0.0186305
0.0186187
0.0186068
0.018595
0.0185832
0.0185712
0.0185593
0.0185473
0.0185352
0.0185231
0.0185109
0.0184988
0.0184868
0.0184748
0.0184629
0.0187532
0.0187399
0.0187269
0.0187141
0.0187015
0.0186893
0.0186772
0.0186653
0.0186536
0.0186421
0.0186306
0.0186192
0.0186078
0.0185964
0.0185849
0.0185735
0.0185619
0.0185504
0.0185388
0.0185271
0.0185156
0.018504
0.0184926
0.0184812
0.0187667
0.0187535
0.0187406
0.018728
0.0187156
0.0187036
0.0186919
0.0186803
0.018669
0.0186579
0.0186469
0.018636
0.0186252
0.0186144
0.0186035
0.0185927
0.0185818
0.0185709
0.0185599
0.0185489
0.018538
0.0185271
0.0185163
0.0185056
0.0187856
0.0187725
0.0187597
0.0187474
0.0187353
0.0187237
0.0187123
0.0187013
0.0186905
0.0186799
0.0186696
0.0186594
0.0186493
0.0186392
0.0186292
0.0186191
0.018609
0.0185989
0.0185888
0.0185786
0.0185685
0.0185584
0.0185484
0.0185385
0.0188121
0.0187993
0.0187868
0.0187748
0.0187633
0.0187521
0.0187413
0.0187309
0.0187208
0.018711
0.0187015
0.0186922
0.018683
0.0186739
0.0186649
0.0186559
0.0186469
0.0186378
0.0186287
0.0186195
0.0186104
0.0186013
0.0185922
0.0185833
0.0188499
0.0188375
0.0188256
0.0188141
0.0188031
0.0187926
0.0187826
0.0187731
0.0187639
0.0187552
0.0187468
0.0187387
0.0187308
0.018723
0.0187153
0.0187077
0.0187
0.0186922
0.0186844
0.0186765
0.0186686
0.0186607
0.0186527
0.0186448
0.0189039
0.0188922
0.018881
0.0188703
0.0188602
0.0188506
0.0188416
0.0188332
0.0188253
0.0188179
0.018811
0.0188044
0.0187982
0.0187921
0.0187862
0.0187802
0.0187743
0.0187682
0.0187619
0.0187556
0.0187492
0.0187426
0.018736
0.0187293
0.0189807
0.0189697
0.0189593
0.0189496
0.0189405
0.0189321
0.0189244
0.0189173
0.0189109
0.0189052
0.0189001
0.0188955
0.0188913
0.0188874
0.0188836
0.0188799
0.0188761
0.0188721
0.0188678
0.0188633
0.0188586
0.0188537
0.0188485
0.0188431
0.0190857
0.0190755
0.0190659
0.0190571
0.0190489
0.0190416
0.0190351
0.0190294
0.0190245
0.0190206
0.0190174
0.019015
0.0190132
0.0190118
0.0190106
0.0190095
0.0190083
0.0190068
0.0190049
0.0190027
0.0190001
0.018997
0.0189934
0.0189893
0.0192175
0.0192074
0.0191979
0.0191893
0.0191814
0.0191744
0.0191684
0.0191634
0.0191596
0.0191569
0.0191553
0.0191549
0.0191553
0.0191564
0.0191579
0.0191597
0.0191614
0.0191629
0.0191641
0.0191647
0.0191648
0.019164
0.0191624
0.01916
0.019353
0.0193415
0.0193308
0.0193208
0.0193116
0.0193034
0.0192962
0.0192903
0.0192858
0.0192828
0.0192815
0.0192817
0.0192833
0.019286
0.0192895
0.0192934
0.0192977
0.0193022
0.0193068
0.0193111
0.0193147
0.0193171
0.0193182
0.0193179
0.0194299
0.0194156
0.0194017
0.0193883
0.0193756
0.0193636
0.0193526
0.0193428
0.0193345
0.0193277
0.0193227
0.0193192
0.019317
0.0193156
0.0193149
0.0193146
0.0193151
0.019317
0.0193208
0.019327
0.019333
0.0193379
0.0193411
0.0193426
0.0193423
0.0193235
0.0193044
0.0192849
0.019265
0.0192449
0.0192243
0.0192033
0.0191817
0.019159
0.0191346
0.0191074
0.0190762
0.0190406
0.0190015
0.0189608
0.0189215
0.0188875
0.0188624
0.0188497
0.018848
0.0188472
0.0188469
0.0188466
0.0189336
0.0189066
0.0188767
0.0188434
0.018806
0.0187634
0.0187142
0.018656
0.0185859
0.0184997
0.0183927
0.0182607
0.0173087
0.0167448
0.0165286
0.0165456
0.0166772
0.0168484
0.0170428
0.0169528
0.0169124
0.0168916
0.0168808
0.0168795
0.0168872
0.017934
0.0178836
0.0178217
0.0177457
0.0176522
0.0175366
0.0173926
0.0172123
0.0169855
0.01593
0.0146297
0.0136418
0.0129967
0.012686
0.0126543
0.0127955
0.0129949
0.0131866
0.01308
0.0128906
0.012775
0.0127409
0.0127302
0.0127434
0.0127787
0.0158428
0.0156983
0.0155213
0.0153085
0.0150553
0.0147557
0.014241
0.0131257
0.0120369
0.0110525
0.0102366
0.00962852
0.00927257
0.00910821
0.00909059
0.00915448
0.00906679
0.00877362
0.00853714
0.00835718
0.00823388
0.00817092
0.00816598
0.00818657
0.00823186
0.0115738
0.0112601
0.010927
0.0105777
0.0102132
0.00967572
0.0090064
0.00831883
0.00766003
0.00707715
0.0066103
0.00642922
0.00640732
0.00640583
0.00619549
0.00598693
0.0058116
0.00566043
0.00553027
0.00542276
0.00534016
0.00528341
0.00526341
0.00527922
0.00531453
0.00587409
0.00571636
0.0055668
0.00542588
0.00529312
0.00516751
0.00504715
0.00492963
0.00474337
0.00444993
0.00425333
0.00426265
0.0040745
0.0043969
0.00453115
0.00448774
0.00441653
0.00432289
0.00421629
0.00411132
0.00401707
0.00393269
0.00390139
0.00391287
0.0039555
0.00311411
0.00312557
0.00314494
0.00317259
0.00320923
0.00325636
0.00331684
0.00339522
0.00349993
0.00364664
0.00374182
0.00358832
0.00410919
0.00412903
0.004326
0.00418872
0.0039535
0.0036901
0.00342129
0.00317692
0.00299794
0.00276239
0.00298277
0.00322546
0.00346163
0.00335847
0.00286819
0.0029999
0.00313704
0.00327922
0.00342817
0.00358828
0.00376422
0.0039724
0.00424237
0.00438183
0.00461341
0.00354394
0.00469996
0.00392237
0.00289242
0.00269674
0.00234163
0.00189935
0.0019212
0.00222034
0.0029264
0.00456463
0.0052672
0.0056849
0.00602517
0.00405309
0.00425832
0.00445256
0.00463806
0.00481927
0.00500505
0.00522122
0.00540327
0.00549424
0.00396481
0.00343838
0.00402534
0.00164443
0.00139909
0.000637087
0.000463644
0.000925401
0.00100974
0.00219649
0.00518499
0.00601645
0.0104419
0.00754496
0.0085342
0.00504029
0.0051805
0.00529126
0.00535354
0.00534114
0.00522635
0.00485488
0.00402794
0.00585083
0.00293972
0.00364386
0.00118561
0.00160027
0.00785041
0.00841855
0.00918892
0.00914068
0.00983767
0.00576405
0.00585989
0.0058754
0.00577936
0.0055408
0.0050641
0.00423715
0.00486961
0.0029977
0.00292022
0.000408524
0.000255323
0.00564589
0.00453844
0.00531837
0.0059945
0.00651843
0.000170162
0.00226287
0.00496018
0.00468482
0.00537857
0.00602539
0.00621171
0.00262546
0.00332198
0.00462183
0.00547249
0.00628525
0.00448339
0.00454173
0.00421663
0.00419174
0.00684896
0.00644121
0.00628043
0.00621321
0.00620023
0.00597807
0.00579963
0.00565255
0.005529
0.00542597
0.00534448
0.00528659
0.00525093
0.00525587
0.00528149
0.00532404
0.00538276
0.0108017
0.0100101
0.00943424
0.00912857
0.00903833
0.00911692
0.00908743
0.00877212
0.00851747
0.00831903
0.00817537
0.00808583
0.00806522
0.00807526
0.00810997
0.00816791
0.00824673
0.00834424
0.0156465
0.0143855
0.0134418
0.012854
0.0126254
0.0127077
0.0129933
0.0133345
0.0130457
0.0128233
0.0126719
0.0126
0.0125791
0.0125827
0.0126094
0.0126567
0.0127222
0.0128029
0.0183757
0.0182511
0.0180117
0.0170893
0.0166041
0.0164965
0.0166562
0.0169545
0.0169801
0.0168647
0.0167932
0.0167669
0.0167516
0.016747
0.0167522
0.0167661
0.0167876
0.0168159
0.0191133
0.019084
0.0190513
0.0190142
0.0189728
0.0189285
0.0188839
0.0188426
0.0188085
0.0187855
0.0187772
0.0187743
0.0187728
0.0187722
0.0187723
0.0187727
0.0187737
0.0187752
0.0193104
0.0193045
0.0193
0.0192967
0.0192943
0.0192925
0.0192912
0.019291
0.0192924
0.019296
0.0193017
0.0193066
0.0193103
0.0193126
0.0193132
0.0193122
0.0193097
0.0193059
0.0192771
0.0192757
0.0192759
0.0192775
0.0192802
0.0192836
0.0192876
0.0192918
0.0192961
0.0193005
0.0193043
0.0193072
0.019309
0.0193095
0.0193086
0.0193063
0.0193026
0.0192978
0.0191562
0.0191548
0.0191544
0.0191549
0.0191562
0.0191578
0.0191597
0.0191614
0.0191629
0.019164
0.0191645
0.0191643
0.0191633
0.0191614
0.0191586
0.0191548
0.0191502
0.0191448
0.0190219
0.0190189
0.0190166
0.0190149
0.0190136
0.0190125
0.0190115
0.0190103
0.0190088
0.0190069
0.0190046
0.0190019
0.0189988
0.0189951
0.0189908
0.0189861
0.0189807
0.018975
0.0189074
0.0189023
0.0188978
0.0188937
0.0188899
0.0188862
0.0188825
0.0188787
0.0188747
0.0188704
0.0188659
0.0188612
0.0188563
0.0188511
0.0188456
0.0188398
0.0188338
0.0188276
0.0188204
0.0188135
0.018807
0.0188008
0.0187948
0.0187888
0.018783
0.018777
0.0187709
0.0187647
0.0187584
0.018752
0.0187455
0.0187388
0.0187321
0.0187253
0.0187184
0.0187115
0.0187578
0.0187494
0.0187413
0.0187334
0.0187257
0.018718
0.0187104
0.0187027
0.0186949
0.0186871
0.0186792
0.0186714
0.0186635
0.0186556
0.0186477
0.0186399
0.018632
0.0186243
0.0187137
0.0187042
0.0186948
0.0186857
0.0186766
0.0186676
0.0186586
0.0186495
0.0186405
0.0186313
0.0186222
0.0186131
0.0186041
0.018595
0.0185861
0.0185773
0.0185685
0.0185599
0.0186826
0.0186722
0.018662
0.0186519
0.0186418
0.0186318
0.0186217
0.0186116
0.0186015
0.0185913
0.0185812
0.0185711
0.018561
0.0185511
0.0185412
0.0185315
0.0185219
0.0185125
0.0186605
0.0186495
0.0186386
0.0186277
0.0186169
0.018606
0.0185952
0.0185842
0.0185733
0.0185623
0.0185514
0.0185405
0.0185296
0.0185189
0.0185082
0.0184977
0.0184874
0.0184773
0.0186446
0.0186331
0.0186217
0.0186102
0.0185988
0.0185873
0.0185758
0.0185643
0.0185527
0.018541
0.0185294
0.0185179
0.0185064
0.018495
0.0184837
0.0184726
0.0184616
0.0184509
0.0186329
0.0186211
0.0186092
0.0185973
0.0185854
0.0185735
0.0185615
0.0185494
0.0185373
0.0185252
0.0185131
0.018501
0.018489
0.018477
0.0184653
0.0184536
0.0184422
0.018431
0.0186244
0.0186122
0.0186
0.0185878
0.0185756
0.0185633
0.0185509
0.0185384
0.0185259
0.0185134
0.0185009
0.0184884
0.0184759
0.0184636
0.0184514
0.0184394
0.0184275
0.0184159
0.0186182
0.0186058
0.0185934
0.0185809
0.0185684
0.0185558
0.0185432
0.0185304
0.0185176
0.0185048
0.018492
0.0184792
0.0184664
0.0184538
0.0184413
0.0184289
0.0184168
0.0184048
0.018614
0.0186014
0.0185888
0.0185762
0.0185635
0.0185507
0.0185378
0.0185249
0.0185119
0.0184989
0.0184858
0.0184728
0.0184598
0.0184469
0.0184342
0.0184216
0.0184092
0.018397
0.0186114
0.0185987
0.018586
0.0185733
0.0185605
0.0185476
0.0185346
0.0185215
0.0185083
0.0184952
0.018482
0.0184688
0.0184557
0.0184427
0.0184298
0.018417
0.0184045
0.0183921
0.0186101
0.0185975
0.0185847
0.0185719
0.018559
0.018546
0.018533
0.0185198
0.0185066
0.0184934
0.0184801
0.0184669
0.0184537
0.0184406
0.0184276
0.0184148
0.0184022
0.0183897
0.0187243
0.018711
0.0186978
0.0186847
0.0186718
0.018659
0.0186463
0.0186336
0.018621
0.0186084
0.0185957
0.018583
0.0185703
0.0185575
0.0185446
0.0185316
0.0185185
0.0185053
0.0184921
0.0184788
0.0184656
0.0184524
0.0184392
0.0184262
0.0187254
0.0187121
0.0186989
0.0186858
0.0186729
0.0186601
0.0186475
0.0186348
0.0186223
0.0186097
0.0185971
0.0185845
0.0185718
0.0185591
0.0185462
0.0185333
0.0185203
0.0185072
0.0184941
0.0184809
0.0184677
0.0184545
0.0184415
0.0184285
0.0187279
0.0187146
0.0187014
0.0186884
0.0186755
0.0186628
0.0186502
0.0186376
0.0186251
0.0186127
0.0186002
0.0185877
0.0185752
0.0185626
0.0185498
0.018537
0.0185242
0.0185112
0.0184982
0.0184852
0.0184721
0.0184591
0.0184462
0.0184334
0.018732
0.0187187
0.0187056
0.0186926
0.0186798
0.0186672
0.0186547
0.0186423
0.0186299
0.0186176
0.0186053
0.018593
0.0185807
0.0185683
0.0185558
0.0185432
0.0185305
0.0185178
0.018505
0.0184922
0.0184794
0.0184667
0.018454
0.0184414
0.0187381
0.0187249
0.0187118
0.0186989
0.0186862
0.0186737
0.0186613
0.0186491
0.018637
0.0186249
0.0186129
0.0186008
0.0185887
0.0185766
0.0185644
0.0185521
0.0185398
0.0185274
0.0185149
0.0185025
0.01849
0.0184776
0.0184652
0.018453
0.0187464
0.0187332
0.0187202
0.0187075
0.0186949
0.0186826
0.0186704
0.0186584
0.0186465
0.0186348
0.018623
0.0186113
0.0185996
0.0185879
0.0185761
0.0185642
0.0185523
0.0185403
0.0185283
0.0185162
0.0185042
0.0184923
0.0184804
0.0184686
0.0187572
0.0187441
0.0187312
0.0187186
0.0187062
0.0186941
0.0186822
0.0186705
0.018659
0.0186476
0.0186362
0.018625
0.0186137
0.0186025
0.0185912
0.0185798
0.0185685
0.018557
0.0185456
0.0185341
0.0185226
0.0185112
0.0184999
0.0184887
0.0187713
0.0187583
0.0187455
0.0187331
0.018721
0.0187092
0.0186976
0.0186863
0.0186752
0.0186642
0.0186535
0.0186427
0.0186321
0.0186215
0.0186108
0.0186001
0.0185894
0.0185787
0.0185679
0.0185571
0.0185464
0.0185357
0.0185251
0.0185145
0.0187903
0.0187774
0.0187649
0.0187528
0.018741
0.0187296
0.0187184
0.0187076
0.0186971
0.0186868
0.0186766
0.0186666
0.0186567
0.0186469
0.0186371
0.0186272
0.0186174
0.0186075
0.0185976
0.0185877
0.0185778
0.0185679
0.0185582
0.0185485
0.0188167
0.0188041
0.018792
0.0187803
0.0187689
0.018758
0.0187475
0.0187374
0.0187275
0.018718
0.0187088
0.0186997
0.0186908
0.018682
0.0186732
0.0186645
0.0186557
0.0186469
0.0186381
0.0186293
0.0186204
0.0186117
0.0186029
0.0185943
0.0188542
0.0188421
0.0188305
0.0188193
0.0188087
0.0187985
0.0187888
0.0187796
0.0187708
0.0187623
0.0187542
0.0187464
0.0187388
0.0187313
0.018724
0.0187166
0.0187093
0.0187018
0.0186944
0.0186869
0.0186794
0.0186719
0.0186644
0.018657
0.0189078
0.0188964
0.0188856
0.0188753
0.0188656
0.0188565
0.0188479
0.0188398
0.0188323
0.0188253
0.0188187
0.0188125
0.0188066
0.0188009
0.0187953
0.0187898
0.0187842
0.0187786
0.0187728
0.018767
0.0187612
0.0187553
0.0187493
0.0187433
0.0189842
0.0189738
0.018964
0.0189548
0.0189463
0.0189384
0.0189311
0.0189246
0.0189187
0.0189135
0.0189088
0.0189047
0.0189009
0.0188975
0.0188942
0.0188909
0.0188876
0.0188842
0.0188806
0.0188768
0.018873
0.0188689
0.0188647
0.0188603
0.0190899
0.0190805
0.0190717
0.0190637
0.0190563
0.0190498
0.019044
0.019039
0.0190349
0.0190316
0.0190291
0.0190273
0.0190261
0.0190253
0.0190247
0.0190242
0.0190237
0.019023
0.019022
0.0190209
0.0190195
0.0190178
0.0190157
0.0190132
0.0192251
0.0192163
0.0192082
0.0192009
0.0191943
0.0191886
0.0191838
0.0191801
0.0191773
0.0191757
0.0191751
0.0191755
0.0191769
0.0191788
0.0191812
0.0191839
0.0191866
0.0191893
0.0191917
0.0191939
0.0191958
0.0191971
0.0191978
0.0191978
0.0193715
0.0193624
0.019354
0.0193463
0.0193393
0.0193333
0.0193283
0.0193244
0.0193218
0.0193206
0.0193208
0.0193226
0.0193257
0.0193299
0.019335
0.0193407
0.019347
0.0193536
0.0193605
0.0193673
0.0193738
0.0193796
0.0193844
0.0193881
0.0194745
0.0194642
0.0194544
0.019445
0.0194362
0.019428
0.0194207
0.0194144
0.0194094
0.019406
0.0194042
0.0194044
0.0194063
0.0194099
0.0194149
0.0194212
0.019429
0.0194384
0.0194497
0.019462
0.0194742
0.0194859
0.0194964
0.0195055
0.0194341
0.0194222
0.01941
0.0193973
0.0193843
0.0193709
0.0193574
0.0193439
0.0193304
0.0193173
0.0193048
0.0192929
0.0192816
0.0192714
0.0192625
0.0192557
0.0192521
0.0192535
0.0192616
0.0192748
0.0192893
0.0193043
0.0193189
0.0193324
0.0190748
0.0190616
0.0190461
0.0190281
0.0190074
0.0189836
0.0189561
0.0189241
0.0188869
0.0188432
0.0187921
0.0187329
0.0186664
0.0184794
0.0180485
0.0178506
0.0177387
0.0175866
0.0173634
0.0171199
0.0169557
0.016981
0.017284
0.0178658
0.0183038
0.018106
0.0180946
0.018076
0.0180496
0.0180141
0.0179675
0.0179069
0.0178284
0.0177266
0.0175954
0.0169355
0.0159144
0.0150841
0.014547
0.0143392
0.0143878
0.0145211
0.0145785
0.0144906
0.0142708
0.0140279
0.0139421
0.0141352
0.0146061
0.0152552
0.0160502
0.0160416
0.016025
0.0159866
0.0159238
0.0158312
0.0156032
0.0149102
0.0141575
0.0133952
0.0126774
0.0120514
0.0115183
0.0111585
0.0110779
0.0112595
0.0115309
0.011734
0.0115391
0.0114099
0.0112093
0.0109802
0.0110494
0.0112125
0.0112424
0.0116301
0.0116994
0.0116945
0.0116091
0.0114385
0.0111858
0.0108483
0.0104039
0.00989774
0.00940033
0.00898407
0.00863875
0.00842103
0.00825567
0.00822211
0.00813347
0.00790695
0.00771708
0.00756613
0.00746535
0.00740377
0.00737364
0.00737195
0.00739758
0.00744844
0.00703503
0.00702241
0.0069959
0.00695672
0.00690693
0.00685743
0.00677042
0.00645618
0.00610655
0.00580083
0.00556211
0.00512761
0.00539022
0.00565961
0.00559804
0.00551142
0.00543008
0.00534817
0.00527185
0.00521668
0.00520155
0.00520786
0.00522611
0.00525922
0.00531082
0.00384263
0.00387784
0.00391244
0.00394735
0.00398274
0.00401747
0.00405214
0.00410546
0.00417362
0.00426637
0.00390048
0.00439967
0.00382204
0.0037416
0.00410156
0.00437686
0.0042455
0.00408737
0.00392452
0.00379348
0.00371344
0.00363481
0.00356354
0.00366215
0.00379761
0.00397079
0.0029666
0.00305828
0.00315369
0.00325332
0.00335818
0.00347036
0.0035945
0.00375272
0.00400077
0.00408338
0.00288438
0.00289179
0.00322134
0.00319268
0.00273252
0.0024283
0.00221265
0.00206157
0.00198254
0.00193869
0.00203233
0.00254061
0.00335903
0.00409276
0.0049449
0.00362916
0.00376632
0.00390517
0.00404908
0.00420453
0.00438356
0.00460784
0.00465428
0.00344219
0.00258477
0.00253134
0.00115197
0.000113304
0.000768834
0.00182804
0.00427213
0.00802566
0.0102074
0.0102871
0.00571976
0.00580774
0.00586935
0.00590997
0.00594078
0.00599962
0.00607814
0.00502179
0.00344878
0.00278613
0.001087
0.000732128
0.00394495
0.00572272
0.00719699
0.0102162
0.00670654
0.00684245
0.00698908
0.00715558
0.0073462
0.00672662
0.00574881
0.0032671
0.00234387
0.000346761
0.00132001
0.00330083
0.00468321
0.00547534
0.00117993
0.00267959
0.0032484
0.00470145
0.0050698
0.00292856
0.00413029
0.00454712
0.00522179
0.00375439
0.00412475
0.00432454
0.00459635
0.00639276
0.00619265
0.00608606
0.00604996
0.00915296
0.00870859
0.00837016
0.00821312
0.00814757
0.00807772
0.00783774
0.00764356
0.00748737
0.00737077
0.00730011
0.00726346
0.00725806
0.00727994
0.00732578
0.00739307
0.00747996
0.0131587
0.0124267
0.0118074
0.0113205
0.0110441
0.011069
0.0113733
0.0116584
0.0114358
0.0112756
0.0111665
0.0110905
0.0107647
0.0106865
0.010893
0.0111055
0.0111761
0.0112684
0.0174013
0.0166734
0.0156535
0.0148585
0.0143905
0.014282
0.0144561
0.0147228
0.0148766
0.0148089
0.0145291
0.0141736
0.013956
0.014033
0.0144147
0.014999
0.0154261
0.0154836
0.0187577
0.0186981
0.0186299
0.0185543
0.0182192
0.017867
0.0177757
0.017784