/*--------------------------------*- C++ -*----------------------------------*\
  =========                 |
  \\      /  F ield         | OpenFOAM: The Open Source CFD Toolbox
   \\    /   O peration     | Website:  https://openfoam.org
    \\  /    A nd           | Version:  13
     \\/     M anipulation  |
\*---------------------------------------------------------------------------*/
FoamFile
{
    format      ascii;
    class       volScalarField;
    location    "400";
    object      p;
}
// * * * * * * * * * * * * * * * * * * * * * * * * * * * * * * * * * * * * * //

dimensions      [0 2 -2 0 0 0 0];

internalField   nonuniform List<scalar> 
171745
(
-1.84754
-2.31692
-2.79186
-3.27189
-3.75618
-4.2436
-4.73269
-5.22163
-5.70825
-6.19008
-6.66434
-7.12813
-7.57833
-8.01174
-8.42513
-8.81535
-9.1794
-9.51458
-9.81852
-10.0893
-10.3255
-10.526
-10.6906
-10.8193
-1.8532
-2.32203
-2.79687
-3.27725
-3.76235
-4.25101
-4.74172
-5.23266
-5.72161
-6.20603
-6.68312
-7.14985
-7.60305
-8.03944
-8.45572
-8.84867
-9.21522
-9.55259
-9.85835
-10.1305
-10.3676
-10.5686
-10.733
-10.8611
-1.86372
-2.33146
-2.80605
-3.28708
-3.77372
-4.26477
-4.75871
-5.25365
-5.7473
-6.23702
-6.71986
-7.19265
-7.65204
-8.09459
-8.51685
-8.91544
-9.28713
-9.62898
-9.93844
-10.2134
-10.4523
-10.6541
-10.8184
-10.9453
-1.87875
-2.34473
-2.81887
-3.3008
-3.78968
-4.28431
-4.78314
-5.28416
-5.785
-6.28284
-6.77455
-7.2567
-7.72569
-8.17781
-8.60935
-9.01665
-9.39625
-9.74498
-10.0601
-10.3393
-10.581
-10.7841
-10.9481
-11.0732
-1.89675
-2.3602
-2.83361
-3.31664
-3.8085
-4.30795
-4.81336
-5.32268
-5.83333
-6.34232
-6.84622
-7.3413
-7.8236
-8.28902
-8.73345
-9.15287
-9.54345
-9.9017
-10.2246
-10.5097
-10.7552
-10.9598
-11.1234
-11.2461
-1.91625
-2.37622
-2.84849
-3.33278
-3.8283
-4.33382
-4.84764
-5.36756
-5.89086
-6.41426
-6.93401
-7.44597
-7.94569
-8.42858
-8.88997
-9.32532
-9.73031
-10.101
-10.4341
-10.7268
-10.9772
-11.1839
-11.3467
-11.4661
-1.93489
-2.39026
-2.86085
-3.34645
-3.8463
-4.35916
-4.88326
-5.4163
-5.95531
-6.49674
-7.03642
-7.5697
-8.09152
-8.59661
-9.07962
-9.53529
-9.95867
-10.3453
-10.6913
-10.9936
-11.25
-11.4592
-11.621
-11.736
-1.94997
-2.39935
-2.86752
-3.35436
-3.85913
-4.3806
-4.91697
-5.46578
-6.02388
-6.58736
-7.15158
-7.71125
-8.26056
-8.79337
-9.30341
-9.78452
-10.2309
-10.6374
-10.9995
-11.3138
-11.5777
-11.7899
-11.9501
-12.0594
-1.95794
-2.39966
-2.86447
-3.35231
-3.8625
-4.39382
-4.94447
-5.51192
-6.0928
-6.68285
-7.27686
-7.8688
-8.4519
-9.01892
-9.56241
-10.075
-10.55
-10.981
-11.3631
-11.6921
-11.9651
-12.1807
-12.3388
-12.4408
-1.95459
-2.38668
-2.84692
-3.3353
-3.85121
-4.39353
-4.9605
-5.54958
-6.15728
-6.77894
-7.40879
-8.03986
-8.66421
-9.2732
-9.85785
-10.4093
-10.9194
-11.3807
-11.7872
-12.1342
-12.4183
-12.6379
-12.7931
-12.8858
-1.9348
-2.35498
-2.80916
-3.29733
-3.81902
-4.37325
-4.95845
-5.57224
-6.21104
-6.87
-7.54262
-8.22091
-8.89545
-9.55577
-10.1909
-10.7901
-11.3434
-11.8419
-12.2784
-12.6474
-12.945
-13.1692
-13.3204
-13.4012
-1.8926
-2.29828
-2.74456
-3.23142
-3.75851
-4.32517
-4.93025
-5.57168
-6.24617
-6.94864
-7.67205
-8.40715
-9.14267
-9.8658
-10.563
-11.2209
-11.8272
-12.3713
-12.8446
-13.2405
-13.5544
-13.784
-13.93
-13.9956
-1.82108
-2.20941
-2.64557
-3.12946
-3.66095
-4.2399
-4.86584
-5.53751
-6.25215
-7.00496
-7.78834
-8.59168
-9.40137
-10.2015
-10.975
-11.705
-12.3766
-12.9767
-13.4952
-13.9242
-14.2582
-14.4942
-14.6332
-14.6795
-1.7125
-2.0805
-2.50397
-2.98262
-3.51663
-4.10665
-4.75341
-5.45698
-6.21596
-7.02621
-7.88005
-8.76534
-9.66549
-10.5604
-11.4281
-12.2471
-12.9988
-13.6677
-14.2418
-14.7117
-15.0706
-15.3146
-15.4445
-15.4662
-1.55821
-1.90286
-2.31059
-2.78074
-3.31396
-3.91206
-4.57767
-5.31322
-6.11954
-6.99439
-7.93045
-8.91411
-9.92507
-10.9373
-11.922
-12.8513
-13.7017
-14.4552
-15.0977
-15.6185
-16.0089
-16.2629
-16.3811
-16.3713
-1.35023
-1.66916
-2.058
-2.51551
-3.04283
-3.64352
-4.32299
-5.08738
-5.94178
-6.88733
-7.9185
-9.0204
-10.168
-11.3268
-12.4578
-13.5241
-14.4963
-15.3536
-16.0808
-16.6653
-17.096
-17.3639
-17.4676
-17.4172
-1.07708
-1.36838
-1.73474
-2.17387
-2.68756
-3.28165
-3.96559
-4.75127
-5.65047
-6.67081
-7.81086
-9.05596
-10.3744
-11.719
-13.0353
-14.2726
-15.3942
-16.3781
-17.2101
-17.8754
-18.3584
-18.6457
-18.7318
-18.6289
-0.73808
-1.00182
-1.34226
-1.75563
-2.24425
-2.81705
-3.48926
-4.28111
-5.21481
-6.30891
-7.57079
-8.98791
-10.5206
-12.1034
-13.6567
-15.1082
-16.4122
-17.5496
-18.5112
-19.2811
-19.8347
-20.1499
-20.2161
-20.0462
-0.314232
-0.553175
-0.865433
-1.24481
-1.69387
-2.22494
-2.86056
-3.63267
-4.57924
-5.73636
-7.12759
-8.75011
-10.5573
-12.4541
-14.3176
-16.0397
-17.564
-18.8838
-20.0043
-20.9102
-21.5623
-21.9178
-21.9563
-21.6975
-21.1982
0.162912
-0.055862
-0.336926
-0.670622
-1.05881
-1.51703
-2.07608
-2.78198
-3.69552
-4.88455
-6.40586
-8.27803
-10.4484
-12.7731
-15.0497
-17.1091
-18.889
-20.4175
-21.7327
-22.8208
-23.6196
-24.0474
-24.0535
-23.6651
-22.9836
0.731095
0.519302
0.26633
-0.0132726
-0.318981
-0.667684
-1.09828
-1.67607
-2.4943
-3.66889
-5.3131
-7.49218
-10.1583
-13.0948
-15.9438
-18.4129
-20.4531
-22.1852
-23.7168
-25.0347
-26.0405
-26.5847
-26.5505
-25.9922
-25.0755
1.27733
1.06094
0.834937
0.620354
0.422432
0.225212
-0.0163568
-0.387408
-1.02184
-2.10049
-3.82665
-6.35932
-9.68894
-13.4926
-17.1961
-20.2203
-22.5315
-24.4392
-26.1955
-27.7995
-29.128
-29.8182
-29.6693
-28.8201
-27.5661
1.7488
1.48927
1.26185
1.09447
0.999843
0.967221
0.951645
0.859066
0.521837
-0.320994
-2.01224
-4.89346
-9.04208
-13.8743
-18.5909
-22.2672
-24.8297
-26.8553
-28.8155
-30.7056
-32.8485
-33.9208
-33.521
-32.2145
-30.4862
1.6459
1.32558
1.0914
0.978229
1.00839
1.1847
1.47749
1.80221
1.98051
1.68816
0.394432
-2.56949
-7.65232
-12.7934
-18.8589
-23.4329
-26.4241
-28.5099
-30.5618
-32.6391
-36.7785
-38.8421
-37.8816
-35.9583
-33.6397
-31.1971
0.656409
0.474778
0.465996
0.668121
1.10833
1.79287
2.68188
3.64102
4.368
4.20408
2.09951
-3.29203
-11.1238
-20.473
-27.5975
-30.8812
-33.0094
-34.5978
-36.7111
-38.5683
-42.5597
-40.3336
-37.7402
-34.5
-31.2024
-0.397866
-0.301342
0.0661413
0.759972
1.82981
3.30956
5.17097
7.25515
9.15303
7.34446
3.91388
-5.16436
-17.5194
-29.1375
-39.5899
-38.8772
-36.7476
-38.0809
-40.0899
-41.7097
-40.7476
-39.1615
-36.5157
-33.0663
-1.07526
-0.933811
-0.497261
0.312715
1.57666
3.37207
5.76251
8.72786
11.977
12.9574
13.229
8.23681
0.449716
-18.3786
-88.7919
-49.2493
-37.8113
-37.886
-39.2335
-40.626
-40.3588
-38.7156
-36.2328
-33.3006
-1.31481
-0.976315
-0.28004
0.841196
2.43601
4.51638
6.98305
9.50755
11.7829
12.6129
12.0777
11.8089
-37.9184
-38.6438
-39.6041
-41.6446
-41.7396
-39.5084
-36.5232
-33.1052
-39.8739
-41.3906
-43.0401
-44.186
-41.9174
-37.818
-33.6166
-40.9874
-45.1383
-43.9002
-40.8484
-36.9127
-42.0232
-41.4241
-39.2146
-36.5125
-2.7839
-4.60037
-7.23907
-10.7011
-14.6565
-18.4987
-21.5907
-23.8474
-25.5559
-27.0042
-28.2497
-29.2002
-29.5648
-29.1491
-28.0975
-26.7253
-25.2235
-4.29815
-6.0161
-8.27846
-11.038
-14.0707
-16.9982
-19.4971
-21.4917
-23.0915
-24.4167
-25.4831
-26.2179
-26.5015
-26.2442
-25.5081
-24.461
-23.2568
-21.9885
-5.4606
-7.03905
-8.97277
-11.2066
-13.5907
-15.91
-17.9782
-19.7176
-21.1503
-22.3199
-23.2271
-23.8269
-24.0575
-23.8833
-23.3441
-22.5467
-21.5987
-20.5762
-6.26285
-7.69669
-9.36261
-11.2112
-13.1428
-15.0265
-16.7446
-18.2317
-19.4771
-20.4894
-21.2617
-21.7658
-21.9715
-21.869
-21.4848
-20.8838
-20.1411
-19.3174
-6.78914
-8.08233
-9.52934
-11.0881
-12.6895
-14.2491
-15.6889
-16.9583
-18.0361
-18.9147
-19.5834
-20.0253
-20.2252
-20.1784
-19.9063
-19.4538
-18.8733
-18.2109
-7.10896
-8.27161
-9.53687
-10.8709
-12.224
-13.5383
-14.76
-15.8497
-16.7843
-17.5505
-18.1369
-18.5327
-18.7282
-18.7241
-18.5383
-18.2016
-17.7509
-17.2204
-7.28747
-8.3345
-9.44949
-10.6056
-11.7665
-12.891
-13.9403
-14.8833
-15.6987
-16.3721
-16.8934
-17.2541
-17.4484
-17.4795
-17.361
-17.1147
-16.7668
-16.343
-7.36101
-8.30794
-9.29953
-10.3142
-11.3244
-12.3001
-13.2119
-14.0358
-14.7532
-15.3509
-15.8198
-16.1528
-16.3469
-16.4056
-16.3391
-16.1631
-15.8967
-15.5592
-7.3633
-8.22423
-9.11377
-10.0143
-10.9047
-11.7619
-12.564
-13.2914
-13.9289
-14.4649
-14.8913
-15.2025
-15.3967
-15.477
-15.4509
-15.33
-15.1285
-14.8612
-7.31628
-8.10391
-8.90884
-9.71668
-10.5107
-11.2732
-11.9869
-12.6364
-13.2088
-13.6945
-14.0864
-14.38
-14.5741
-14.671
-14.6764
-14.5991
-14.4496
-14.2392
-7.23755
-7.96307
-8.69787
-9.43005
-10.1462
-10.8323
-11.4746
-12.0607
-12.5802
-13.0248
-13.3886
-13.6678
-13.8614
-13.9712
-14.0014
-13.9587
-13.8509
-13.687
-7.13951
-7.81267
-8.4893
-9.15951
-9.81237
-10.4366
-11.021
-11.5557
-12.0321
-12.4431
-12.784
-13.0513
-13.2441
-13.3638
-13.4136
-13.3983
-13.3242
-13.1981
-7.03178
-7.66097
-8.28942
-8.9088
-9.51008
-10.084
-10.6216
-11.1145
-11.5557
-11.9394
-12.2613
-12.5187
-12.7106
-12.8379
-12.903
-12.9097
-12.8627
-12.7676
-6.92144
-7.51391
-8.10254
-8.68024
-9.23948
-9.77255
-10.272
-10.731
-11.1436
-11.5049
-11.8113
-12.0604
-12.2513
-12.3844
-12.4617
-12.4859
-12.4608
-12.3909
-6.81386
-7.37588
-7.93175
-8.47541
-9.00045
-9.50039
-9.96899
-10.4005
-10.7898
-11.1329
-11.4266
-11.6688
-11.8585
-11.9962
-12.083
-12.1212
-12.1138
-12.0644
-6.7131
-7.25008
-7.77922
-8.29523
-8.79261
-9.26582
-9.70955
-10.1189
-10.4895
-10.8178
-11.1012
-11.3376
-11.5263
-11.6673
-11.7616
-11.811
-11.8178
-11.7849
-6.62225
-7.13895
-7.64652
-8.14033
-8.61557
-9.06744
-9.49131
-9.88294
-10.2386
-10.5551
-10.8301
-11.0619
-11.2495
-11.3931
-11.4933
-11.5514
-11.5695
-11.5498
-6.54359
-7.04417
-7.53469
-8.011
-8.46884
-8.90395
-9.31226
-9.69001
-10.0339
-10.3411
-10.6095
-10.8375
-11.0243
-11.1698
-11.2745
-11.3394
-11.3663
-11.3571
-6.47891
-6.96711
-7.44457
-7.90752
-8.35209
-8.77444
-9.17091
-9.5381
-9.87301
-10.1731
-10.4365
-10.6616
-10.8477
-10.9946
-11.1026
-11.1727
-11.2062
-11.2049
-6.42931
-6.90852
-7.37651
-7.8298
-8.26479
-8.67794
-9.06587
-9.42544
-9.7539
-10.0489
-10.3086
-10.5316
-10.7171
-10.865
-10.9754
-11.0492
-11.0876
-11.092
-6.39595
-6.8693
-7.33115
-7.77817
-8.20695
-8.61413
-8.99652
-9.35115
-9.67542
-9.96709
-10.2244
-10.446
-10.6312
-10.7797
-10.8916
-10.9678
-11.0093
-11.0174
-6.37889
-6.84938
-7.30822
-7.75217
-8.17791
-8.58218
-8.96187
-9.3141
-9.63633
-9.92638
-10.1825
-10.4035
-10.5885
-10.7373
-10.8501
-10.9275
-10.9705
-10.9806
-1.83857
-2.30838
-2.78373
-3.26416
-3.74884
-4.2366
-4.72597
-5.21513
-5.70193
-6.18385
-6.6582
-7.122
-7.57219
-8.00555
-8.41888
-8.80904
-9.17306
-9.50821
-9.81216
-10.083
-10.3192
-10.5198
-10.6845
-10.8133
-1.84421
-2.31348
-2.78873
-3.26953
-3.75502
-4.24403
-4.73505
-5.22624
-5.71538
-6.19994
-6.6771
-7.14387
-7.59704
-8.03337
-8.44957
-8.84242
-9.2089
-9.54622
-9.85197
-10.1242
-10.3613
-10.5623
-10.7269
-10.8551
-1.8547
-2.3229
-2.79795
-3.27941
-3.76647
-4.25791
-4.75219
-5.2474
-5.74127
-6.23113
-6.71406
-7.18688
-7.64624
-8.08871
-8.51086
-8.90931
-9.28088
-9.62264
-9.93204
-10.207
-10.4459
-10.6478
-10.8122
-10.9393
-1.8697
-2.33621
-2.81085
-3.29326
-3.78261
-4.27768
-4.77687
-5.27821
-5.77927
-6.27727
-6.76906
-7.25123
-7.72017
-8.17219
-8.60358
-9.0107
-9.39013
-9.73872
-10.0537
-10.3329
-10.5746
-10.7777
-10.9418
-11.0671
-1.88767
-2.35173
-2.82572
-3.30931
-3.8017
-4.30164
-4.80748
-5.31713
-5.82804
-6.33718
-6.84117
-7.33625
-7.81848
-8.28377
-8.728
-9.1472
-9.53754
-9.89558
-10.2183
-10.5033
-10.7487
-10.9534
-11.1169
-11.2398
-1.90714
-2.36784
-2.84079
-3.32574
-3.82188
-4.32797
-4.84226
-5.36258
-5.88615
-6.40973
-6.92956
-7.44151
-7.94114
-8.42384
-8.88498
-9.32004
-9.72472
-10.0952
-10.428
-10.7205
-10.9707
-11.1773
-11.3401
-11.4596
-1.92579
-2.38203
-2.85343
-3.33982
-3.84041
-4.35392
-4.87861
-5.41208
-5.95143
-6.49305
-7.03282
-7.56606
-8.08774
-8.5926
-9.07528
-9.53056
-9.95352
-10.3397
-10.6853
-10.9874
-11.2435
-11.4526
-11.6142
-11.7292
-1.94091
-2.39134
-2.8605
-3.34828
-3.85394
-4.37621
-4.91325
-5.46262
-6.0211
-6.58482
-7.14913
-7.70874
-8.25787
-8.79036
-9.29997
-9.78057
-10.2264
-10.6323
-10.9939
-11.3077
-11.5712
-11.783
-11.9431
-12.0523
-1.949
-2.39199
-2.858
-3.34698
-3.85824
-4.39053
-4.94202
-5.51012
-6.09151
-6.68184
-7.27597
-7.86784
-8.4507
-9.0173
-9.56023
-10.0722
-10.5463
-10.9766
-11.3579
-11.6862
-11.9586
-12.1737
-12.3314
-12.4332
-1.94585
-2.37948
-2.84119
-3.33097
-3.84819
-4.3917
-4.95969
-5.54963
-6.15792
-6.78
-7.41
-8.041
-8.66506
-9.27351
-9.85742
-10.408
-10.917
-11.3773
-11.7828
-12.1288
-12.412
-12.6307
-12.7853
-12.8775
-1.92637
-2.34842
-2.80439
-3.29428
-3.81758
-4.37328
-4.9598
-5.57464
-6.2143
-6.87379
-7.54668
-8.22493
-8.89911
-9.55876
-10.193
-10.791
-11.3428
-11.8399
-12.275
-12.6426
-12.9387
-13.1617
-13.312
-13.392
-1.8846
-2.29255
-2.74102
-3.22998
-3.75908
-4.32761
-4.93433
-5.57721
-6.2528
-6.9561
-7.67995
-8.41509
-9.15023
-9.87253
-10.5685
-11.2247
-11.8292
-12.3713
-12.8426
-13.2366
-13.5485
-13.7763
-13.9207
-13.9851
-1.81362
-2.20471
-2.64354
-3.13003
-3.66403
-4.24532
-4.87344
-5.54699
-6.26325
-7.01726
-7.80142
-8.605
-9.41434
-10.2135
-10.9853
-11.7132
-12.3822
-12.9796
-13.4953
-13.9216
-14.2528
-14.4862
-14.6229
-14.6672
-1.70569
-2.07702
-2.50376
-2.98561
-3.52275
-4.1158
-4.76536
-5.47157
-6.23279
-7.04496
-7.90013
-8.78608
-9.68606
-10.5798
-11.4454
-12.2616
-13.0097
-13.6748
-14.2451
-14.7112
-15.0663
-15.3064
-15.4328
-15.4514
-1.55205
-1.9007
-2.3124
-2.78653
-3.32368
-3.92565
-4.59504
-5.3341
-6.14379
-7.02155
-7.96
-8.9452
-9.95649
-10.9676
-11.9495
-12.8748
-13.7204
-14.4685
-15.1059
-15.6216
-16.0066
-16.2552
-16.368
-16.3533
-1.34465
-1.66835
-2.06202
-2.52441
-3.05667
-3.66236
-4.34685
-5.11634
-5.97561
-6.92583
-7.96111
-9.06627
-10.2154
-11.3733
-12.5007
-13.5611
-14.526
-15.3758
-16.0959
-16.6739
-17.0974
-17.3571
-17.4524
-17.3942
-1.07161
-1.36862
-1.74084
-2.18602
-2.70592
-3.30644
-3.99725
-4.79008
-5.6967
-6.72439
-7.87164
-9.12273
-10.4449
-11.7894
-13.1007
-14.329
-15.4396
-16.4129
-17.2356
-17.8927
-18.3667
-18.6417
-18.7142
-18.5984
-0.733294
-1.00377
-1.35126
-1.77199
-2.26834
-2.84936
-3.53039
-4.33196
-5.27617
-6.38199
-7.65626
-9.08539
-10.6273
-12.2123
-13.7582
-15.1945
-16.4806
-17.6023
-18.5519
-19.3117
-19.8541
-20.152
-20.1955
-20.004
-0.308067
-0.554981
-0.875757
-1.26415
-1.72279
-2.26417
-2.91129
-3.69631
-4.65831
-5.83474
-7.24897
-8.89505
-10.7211
-12.6242
-14.4754
-16.1705
-17.6647
-18.9615
-20.0685
-20.9641
-21.6009
-21.9305
-21.9327
-21.6366
-21.1102
0.165793
-0.0622802
-0.353348
-0.697732
-1.09733
-1.56793
-2.1409
-2.86376
-3.79836
-5.01467
-6.57122
-8.48527
-10.6946
-13.0356
-15.2922
-17.304
-19.0345
-20.5324
-21.8375
-22.9207
-23.6974
-24.0755
-24.0175
-23.5716
-22.8483
0.736333
0.511939
0.246269
-0.0461555
-0.3649
-0.727151
-1.17226
-1.76641
-2.6059
-3.81169
-5.50645
-7.76212
-10.5189
-13.5023
-16.3128
-18.6881
-20.6378
-22.3256
-23.8601
-25.1922
-26.1671
-26.6201
-26.4785
-25.8274
-24.8475
1.26404
1.03249
0.79295
0.567534
0.361812
0.160186
-0.0809083
-0.448104
-1.08212
-2.17964
-3.97122
-6.65227
-10.1912
-14.1515
-17.7851
-20.6115
-22.7338
-24.5636
-26.3538
-28.0122
-29.2543
-29.7988
-29.492
-28.5286
-27.2005
1.74535
1.46279
1.22021
1.04682
0.957575
0.946694
0.974686
0.945606
0.67674
-0.129071
-1.88816
-5.06673
-9.68958
-14.8953
-19.5555
-22.8667
-25.0498
-26.9544
-29.0664
-31.178
-32.805
-33.6838
-33.1701
-31.7247
-29.8958
1.72154
1.37343
1.1206
1.0016
1.04324
1.25448
1.61497
2.05213
2.38144
2.21665
0.881998
-2.4975
-7.59428
-14.4196
-20.3636
-24.5165
-26.6716
-28.3128
-30.4266
-32.7763
-34.8648
-37.5897
-37.329
-35.3677
-33.0338
-30.6887
0.563287
0.356195
0.347349
0.576998
1.07824
1.86677
2.91462
4.10615
5.07365
5.06253
1.81843
-3.50197
-14.4372
-24.6831
-31.8543
-30.6886
-31.0609
-33.9935
-36.6332
-38.6947
-40.068
-40.4907
-37.7966
-34.8944
-31.8127
-0.919766
-0.802345
-0.382093
0.405523
1.62212
3.30716
5.45702
7.88427
8.60921
9.62903
3.92151
-9.0264
-24.16
-57.8017
-42.6125
-27.0101
-35.1204
-37.7573
-39.5099
-41.316
-41.1607
-38.9973
-36.9568
-33.7502
-1.55758
-1.40771
-0.940333
-0.058844
1.34129
3.38221
6.21173
9.90409
12.483
16.6948
14.1666
1.85733
-38.8712
-40.6704
-40.8753
-39.2317
-36.4399
-33.9153
-1.83181
-1.4354
-0.643088
0.633725
2.47016
4.93007
8.01827
11.1295
15.3325
15.9613
19.9822
-39.6862
-41.8488
-42.9436
-40.5611
-37.1385
-33.8265
-39.3724
-41.5474
-43.8319
-45.1506
-43.1371
-38.7321
-34.3217
-40.828
-44.0209
-45.2578
-41.6222
-37.3946
-40.4949
-40.9454
-38.658
-35.7061
-2.8479
-4.73007
-7.51833
-11.1914
-15.3058
-19.0688
-21.9529
-24.0263
-25.6953
-27.2296
-28.5751
-29.4759
-29.6861
-29.071
-27.8601
-26.3809
-24.8315
-4.43051
-6.19744
-8.5349
-11.3835
-14.4608
-17.3457
-19.7474
-21.6545
-23.2253
-24.5783
-25.6856
-26.4123
-26.6102
-26.2303
-25.3826
-24.2602
-23.02
-21.7453
-5.58347
-7.19552
-9.1689
-11.4392
-13.8369
-16.1339
-18.1536
-19.8459
-21.2548
-22.4258
-23.3421
-23.9318
-24.1185
-23.8791
-23.2758
-22.4293
-21.4534
-20.422
-6.35662
-7.81204
-9.49974
-11.3652
-13.3008
-15.1705
-16.8606
-18.3187
-19.5453
-20.5506
-21.3205
-21.8168
-22.0007
-21.862
-21.4398
-20.8094
-20.0495
-19.2192
-6.85859
-8.1634
-9.6214
-11.188
-12.7903
-14.3413
-15.7654
-17.0175
-18.0818
-18.9521
-19.6153
-20.0498
-20.2343
-20.1668
-19.8738
-19.4041
-18.8125
-18.145
-7.15974
-8.32899
-9.59958
-10.9365
-12.2887
-13.5975
-14.81
-15.8891
-16.8142
-17.573
-18.1538
-18.5424
-18.7276
-18.7117
-18.5138
-18.1669
-17.7091
-17.1752
-7.32377
-8.37459
-9.49236
-10.6495
-11.809
-12.9296
-13.9729
-14.9089
-15.7176
-16.3853
-16.9014
-17.256
-17.4435
-17.4674
-17.3417
-17.0892
-16.7369
-16.3109
-7.38644
-8.33547
-9.32831
-10.343
-11.3519
-12.3246
-13.2325
-14.0517
-14.7643
-15.3576
-15.8222
-16.1507
-16.3403
-16.3943
-16.3233
-16.1436
-15.8745
-15.5358
-7.38063
-8.24271
-9.13272
-10.0329
-10.922
-11.7772
-12.5764
-13.3005
-13.9346
-14.4672
-14.8904
-15.1983
-15.3893
-15.4665
-15.4376
-15.3145
-15.1115
-14.8435
-7.32744
-8.11571
-8.92077
-9.72818
-10.5212
-11.2821
-11.9937
-12.6408
-13.2107
-13.6939
-14.0835
-14.3747
-14.5666
-14.6615
-14.6652
-14.5865
-14.4362
-14.2256
-7.24407
-7.96995
-8.70472
-9.43647
-10.1518
-10.8367
-11.4775
-12.0619
-12.5796
-13.0224
-13.3845
-13.662
-13.8541
-13.9625
-13.9917
-13.9481
-13.84
-13.676
-7.14256
-7.81591
-8.49245
-9.16229
-9.8145
-10.4378
-11.0212
-11.5546
-12.0297
-12.4395
-12.779
-13.0452
-13.237
-13.3558
-13.4049
-13.3892
-13.3149
-13.189
-7.03222
-7.66152
-8.28988
-8.90895
-9.50973
-10.083
-10.6197
-11.1118
-11.552
-11.9348
-12.2558
-12.5124
-12.7036
-12.8304
-12.8951
-12.9016
-12.8546
-12.7596
-6.91991
-7.51247
-8.10101
-8.67848
-9.23734
-9.76992
-10.2688
-10.7272
-11.1391
-11.4997
-11.8055
-12.0541
-12.2445
-12.3773
-12.4543
-12.4785
-12.4535
-12.3838
-6.81088
-7.37296
-7.92878
-8.47225
-8.99701
-9.4966
-9.96478
-10.3958
-10.7847
-11.1274
-11.4206
-11.6624
-11.8519
-11.9893
-12.076
-12.1143
-12.1071
-12.0578
-6.70904
-7.24609
-7.77518
-8.29107
-8.78825
-9.2612
-9.70463
-10.1136
-10.4839
-10.812
-11.095
-11.3313
-11.5198
-11.6607
-11.755
-11.8044
-11.8114
-11.7788
-6.6174
-7.13416
-7.64171
-8.13544
-8.61054
-9.06223
-9.4859
-9.87731
-10.2327
-10.5491
-10.8239
-11.0555
-11.2431
-11.3867
-11.4869
-11.5451
-11.5634
-11.544
-6.53816
-7.0388
-7.52932
-8.00559
-8.46333
-8.89832
-9.3065
-9.6841
-10.0278
-10.3349
-10.6032
-10.8312
-11.018
-11.1635
-11.2683
-11.3334
-11.3604
-11.3515
-6.47307
-6.96133
-7.43881
-7.90173
-8.34624
-8.76852
-9.1649
-9.532
-9.86683
-10.1669
-10.4302
-10.6553
-10.8414
-10.9884
-11.0965
-11.1668
-11.2005
-11.1995
-6.42319
-6.90246
-7.37048
-7.82376
-8.25872
-8.67182
-9.0597
-9.41922
-9.74764
-10.0426
-10.3023
-10.5253
-10.7109
-10.8589
-10.9694
-11.0434
-11.0819
-11.0867
-6.38965
-6.86308
-7.32496
-7.77198
-8.20074
-8.6079
-8.99025
-9.34486
-9.66911
-9.96077
-10.2181
-10.4397
-10.625
-10.7736
-10.8857
-10.962
-11.0037
-11.0122
-6.3725
-6.84306
-7.30194
-7.7459
-8.17164
-8.5759
-8.95557
-9.30778
-9.62999
-9.92004
-10.1762
-10.3972
-10.5823
-10.7312
-10.8442
-10.9217
-10.965
-10.9753
-1.82078
-2.29144
-2.76759
-3.24877
-3.73411
-4.22245
-4.71231
-5.20188
-5.68898
-6.17114
-6.64562
-7.10949
-7.55967
-7.99297
-8.40619
-8.79623
-9.16013
-9.49522
-9.79914
-10.07
-10.3062
-10.507
-10.6719
-10.8009
-1.8264
-2.29656
-2.77264
-3.2542
-3.74039
-4.23002
-4.72156
-5.21317
-5.70264
-6.18743
-6.66474
-7.13156
-7.58472
-8.02095
-8.437
-8.8297
-9.19603
-9.53324
-9.83893
-10.1111
-10.3483
-10.5494
-10.7142
-10.8427
-1.83682
-2.30598
-2.78193
-3.26423
-3.75204
-4.24415
-4.739
-5.23468
-5.72889
-6.219
-6.70207
-7.17493
-7.63424
-8.07658
-8.49853
-8.89677
-9.26813
-9.60972
-9.91901
-10.1939
-10.4329
-10.6348
-10.7994
-10.9267
-1.85173
-2.31932
-2.79497
-3.27832
-3.76852
-4.26434
-4.76417
-5.26601
-5.76746
-6.26572
-6.75764
-7.23983
-7.70868
-8.16051
-8.59164
-8.99847
-9.37761
-9.72594
-10.0408
-10.3198
-10.5614
-10.7646
-10.9288
-11.0543
-1.8696
-2.3349
-2.81006
-3.29473
-3.7881
-4.2889
-4.79546
-5.30569
-5.81703
-6.32645
-6.83056
-7.32564
-7.80772
-8.27275
-8.71664
-9.13544
-9.52538
-9.88304
-10.2055
-10.4902
-10.7354
-10.9401
-11.1037
-11.2267
-1.88898
-2.35115
-2.82547
-3.31169
-3.80898
-4.31607
-4.83122
-5.3522
-5.87627
-6.40015
-6.92011
-7.432
-7.93142
-8.41377
-8.87445
-9.30897
-9.71309
-10.083
-10.4153
-10.7074
-10.9573
-11.1638
-11.3265
-11.4461
-1.90758
-2.36557
-2.83861
-3.3265
-3.82845
-4.34317
-4.86886
-5.40314
-5.94306
-6.48504
-7.02493
-7.55808
-8.07947
-8.58385
-9.06591
-9.52047
-9.94265
-10.3281
-10.673
-10.9744
-11.23
-11.4387
-11.6001
-11.7151
-1.92272
-2.37524
-2.84637
-3.33596
-3.84327
-4.36699
-4.90526
-5.45559
-6.01478
-6.57892
-7.14337
-7.70285
-8.25159
-8.78345
-9.29224
-9.77186
-10.2166
-10.6215
-10.982
-11.2949
-11.5576
-11.7688
-11.9283
-12.0373
-1.93091
-2.37643
-2.84483
-3.33601
-3.84927
-4.38334
-4.93633
-5.50565
-6.0879
-6.67878
-7.27309
-7.8648
-8.44715
-9.01293
-9.55476
-10.0654
-10.5381
-10.9669
-11.3468
-11.6737
-11.9449
-12.1589
-12.3158
-12.4171
-1.92799
-2.36469
-2.82929
-3.32176
-3.84144
-4.38715
-4.95704
-5.54849
-6.15794
-6.78073
-7.41101
-8.04183
-8.66525
-9.27265
-9.85511
-10.4039
-10.911
-11.3692
-11.7727
-12.1167
-12.3981
-12.6153
-12.7686
-12.8599
-1.90891
-2.33467
-2.79416
-3.28735
-3.81369
-4.37215
-4.96105
-5.5779
-6.21906
-6.87957
-7.5529
-8.23101
-8.90444
-9.56275
-10.1951
-10.7907
-11.34
-11.8342
-12.2665
-12.6313
-12.9249
-13.1456
-13.2939
-13.3724
-1.8677
-2.28015
-2.7329
-3.22592
-3.75881
-4.33081
-4.94063
-5.58612
-6.26382
-6.96857
-7.6932
-8.42834
-9.16265
-9.88328
-10.5767
-11.2299
-11.8307
-12.369
-12.8364
-13.2266
-13.5348
-13.7593
-13.9007
-13.9628
-1.79744
-2.19395
-2.63801
-3.1295
-3.66824
-4.25397
-4.88611
-5.5632
-6.28239
-7.03861
-7.82411
-8.62803
-9.43656
-10.2337
-11.0023
-11.726
-12.39
-12.9821
-13.4925
-13.9135
-14.2395
-14.4681
-14.6004
-14.641
-1.69037
-2.06823
-2.50133
-2.98937
-3.53247
-4.13119
-4.78607
-5.49708
-6.26252
-7.07805
-7.93558
-8.82254
-9.72195
-10.6133
-11.4747
-12.2851
-13.0265
-13.6843
-14.2473
-14.7062
-15.054
-15.2871
-15.407
-15.4199
-1.53753
-1.89398
-2.31342
-2.79519
-3.33985
-3.94914
-4.62555
-5.3713
-6.18704
-7.07007
-8.01258
-9.0002
-10.0116
-11.0201
-11.9965
-12.9137
-13.7496
-14.4877
-15.1151
-15.6212
-15.9962
-16.2347
-16.3379
-16.3144
-1.33113
-1.66412
-2.06712
-2.53887
-3.08051
-3.69558
-4.38944
-5.1681
-6.03626
-6.99468
-8.03703
-9.14716
-10.298
-11.4532
-12.5731
-13.6217
-14.5726
-15.4081
-16.1151
-16.6804
-17.0904
-17.3358
-17.4167
-17.3449
-1.05802
-1.36613
-1.74968
-2.20639
-2.73805
-3.35063
-4.05376
-4.85929
-5.77879
-6.8194
-7.97878
-9.2397
-10.5669
-11.9092
-13.2097
-14.42
-15.5095
-16.4627
-17.2681
-17.9097
-18.3664
-18.6211
-18.6713
-18.5337
-0.721053
-1.0041
-1.36478
-1.79926
-2.31
-2.90612
-3.60316
-4.42179
-5.38453
-6.51022
-7.80531
-9.25373
-10.8087
-12.3942
-13.9243
-15.3313
-16.5838
-17.6764
-18.6044
-19.3473
-19.8701
-20.14
-20.1481
-19.9201
-0.296094
-0.557268
-0.893005
-1.29716
-1.77259
-2.33211
-2.99919
-3.80697
-4.7953
-6.00348
-7.45588
-9.14254
-11.0001
-12.9102
-14.7347
-16.3766
-17.813
-19.0666
-20.1494
-21.0313
-21.6496
-21.9415
-21.8869
-21.5295
-20.9543
0.174414
-0.0701453
-0.37811
-0.740136
-1.15866
-1.65004
-2.24713
-2.99987
-3.97339
-5.24102
-6.8642
-8.8562
-11.1315
-13.4911
-15.6978
-17.6093
-19.2391
-20.6763
-21.9646
-23.051
-23.8164
-24.1417
-23.9883
-23.4396
-22.6406
0.725274
0.483424
0.199564
-0.111764
-0.450434
-0.834641
-1.30563
-1.93289
-2.81945
-4.09654
-5.89954
-8.30556
-11.2037
-14.2295
-16.9328
-19.1021
-20.8702
-22.4811
-24.0369
-25.4317
-26.4274
-26.7917
-26.4739
-25.6491
-24.5593
1.19939
0.948654
0.687986
0.440188
0.212952
-0.0078661
-0.265983
-0.651667
-1.3179
-2.48928
-4.44557
-7.41923
-11.2732
-15.3766
-18.7873
-21.1488
-22.9017
-24.6278
-26.5434
-28.4324
-29.7951
-30.1633
-29.5248
-28.2563
-26.769
1.62973
1.33671
1.08146
0.894145
0.790862
0.77103
0.807616
0.810143
0.576779
-0.247564
-2.22525
-6.01943
-11.23
-16.9543
-21.2498
-23.5538
-25.0201
-26.795
-29.2699
-32.0143
-33.952
-34.2207
-33.1666
-31.3157
-29.3092
1.50132
1.17403
0.940949
0.843603
0.91301
1.16399
1.58428
2.13869
2.66181
2.68842
1.33355
-3.1024
-9.6019
-17.2909
-23.2001
-25.644
-26.476
-27.8482
-30.6033
-34.073
-36.5199
-36.9914
-36.6054
-34.4759
-32.1229
-29.8461
0.352168
0.142882
0.150184
0.423749
1.011
1.95024
3.24259
4.84857
6.50874
4.76385
2.6342
-6.91348
-22.1405
-29.5142
-30.9123
-29.0955
-29.091
-32.5184
-37.3159
-42.8326
-41.3997
-39.0889
-36.7715
-34.3543
-31.7472
-0.922728
-0.7915
-0.337149
0.527571
1.90632
3.89924
6.56067
7.86617
11.7249
12.2765
2.26647
-30.4359
-52.2029
-51.2656
-41.2145
-40.2448
-38.9598
-37.4481
-34.3068
-2.15229
-1.89904
-1.31164
-0.27006
1.35295
3.70558
6.91256
10.1947
16.4825
19.8738
7.71076
-40.9469
-41.087
-38.8476
-37.4411
-35.1192
-2.56032
-2.10795
-1.19922
0.274644
2.41166
5.27037
9.49344
15.4521
19.9454
19.2665
-44.4674
-40.7889
-37.5459
-34.3343
-44.3047
-47.1121
-44.1481
-37.5153
-33.4073
-43.4984
-45.6838
-40.3071
-35.6651
-41.1118
-39.0163
-37.1113
-33.8254
-37.1867
-36.059
-33.9865
-31.32
-3.14652
-5.19265
-8.26724
-12.2426
-16.4816
-20.0065
-22.4117
-24.1188
-25.7174
-27.4364
-29.0854
-30.1776
-30.24
-29.277
-27.7166
-26.0275
-24.4015
-4.70747
-6.57963
-9.06128
-12.0407
-15.1484
-17.9154
-20.1046
-21.8332
-23.3446
-24.7473
-25.953
-26.7371
-26.8723
-26.3193
-25.282
-24.029
-22.7303
-21.4464
-5.80378
-7.47945
-9.52593
-11.8555
-14.2642
-16.5045
-18.42
-20.0138
-21.372
-22.5418
-23.481
-24.0806
-24.2289
-23.8993
-23.1901
-22.2601
-21.2384
-20.1929
-6.51914
-8.0109
-9.73618
-11.6291
-13.5672
-15.4061
-17.0407
-18.4421
-19.6309
-20.6213
-21.3887
-21.8776
-22.0326
-21.8426
-21.3603
-20.6795
-19.889
-19.0477
-6.98122
-8.30543
-9.78087
-11.3583
-12.9586
-14.4916
-15.8854
-17.1047
-18.1429
-18.997
-19.6495
-20.0703
-20.2325
-20.1341
-19.8067
-19.3072
-18.6963
-18.021
-7.25005
-8.43038
-9.70949
-11.0501
-12.3987
-13.6956
-14.8898
-15.9485
-16.8554
-17.6002
-18.1689
-18.5439
-18.7128
-18.6776
-18.4597
-18.0954
-17.6258
-17.0866
-7.3888
-8.44592
-9.56783
-10.7258
-11.8819
-12.9944
-14.0259
-14.9484
-15.7442
-16.4006
-16.9062
-17.2498
-17.4257
-17.4371
-17.2992
-17.0362
-16.6766
-16.2474
-7.43181
-8.3844
-9.37912
-10.3934
-11.3992
-12.3662
-13.2661
-14.0761
-14.7795
-15.3642
-15.8205
-16.1406
-16.3218
-16.3676
-16.2889
-16.1027
-15.8292
-15.4886
-7.41118
-8.27524
-9.16593
-10.0653
-10.9518
-11.8027
-12.5962
-13.314
-13.9414
-14.4676
-14.8845
-15.1862
-15.3714
-15.443
-15.4092
-15.2821
-15.0765
-14.8076
-7.34672
-8.13608
-8.94127
-9.74771
-10.5386
-11.2964
-12.0039
-12.6463
-13.2115
-13.6899
-14.0748
-14.3617
-14.5494
-14.6405
-14.6411
-14.56
-14.4083
-14.1973
-7.25488
-7.98137
-8.71601
-9.44686
-10.1605
-10.843
-11.4808
-12.0619
-12.5761
-13.0154
-13.3741
-13.6485
-13.8377
-13.9436
-13.9708
-13.9258
-13.8169
-13.653
-7.14699
-7.82068
-8.49701
-9.16607
-9.81697
-10.4385
-11.0197
-11.5507
-12.0232
-12.4304
-12.7676
-13.0315
-13.2213
-13.3385
-13.3863
-13.3698
-13.2953
-13.1696
-7.03186
-7.66137
-8.28951
-8.90796
-9.50773
-10.0796
-10.6148
-11.1051
-11.5435
-11.9244
-12.2437
-12.4987
-12.6886
-12.8143
-12.8783
-12.8844
-12.8374
-12.7429
-6.91597
-7.50867
-8.09703
-8.67402
-9.23211
-9.76369
-10.2614
-10.7185
-11.1291
-11.4884
-11.793
-12.0405
-12.23
-12.3621
-12.4388
-12.4628
-12.4381
-12.3688
-6.80427
-7.36646
-7.92214
-8.46525
-8.98945
-9.4883
-9.95563
-10.3857
-10.7737
-11.1154
-11.4079
-11.649
-11.8379
-11.9749
-12.0615
-12.0998
-12.0929
-12.0442
-6.70043
-7.23758
-7.7666
-8.28222
-8.77899
-9.25142
-9.69423
-10.1026
-10.4722
-10.7996
-11.0821
-11.3179
-11.5061
-11.6468
-11.7411
-11.7908
-11.7981
-11.766
-6.60732
-7.12418
-7.6317
-8.12525
-8.60006
-9.05138
-9.47462
-9.86557
-10.2205
-10.5364
-10.8109
-11.0423
-11.2298
-11.3733
-11.4736
-11.5321
-11.5508
-11.5319
-6.527
-7.02776
-7.51828
-7.99443
-8.45198
-8.88672
-9.2946
-9.6719
-10.0153
-10.3222
-10.5903
-10.8181
-11.0049
-11.1504
-11.2554
-11.3208
-11.3483
-11.3399
-6.46114
-6.94953
-7.42703
-7.88989
-8.33428
-8.75639
-9.15257
-9.51947
-9.85412
-10.154
-10.4172
-10.6423
-10.8285
-10.9755
-11.0839
-11.1545
-11.1887
-11.1882
-6.41073
-6.89014
-7.35821
-7.81146
-8.24635
-8.65934
-9.04708
-9.40648
-9.73478
-10.0297
-10.2893
-10.5124
-10.6981
-10.8462
-10.957
-11.0313
-11.0704
-11.0756
-6.37687
-6.85043
-7.31238
-7.7594
-8.18812
-8.5952
-8.97747
-9.332
-9.65617
-9.94779
-10.2051
-10.4268
-10.6122
-10.761
-10.8734
-10.9501
-10.9923
-11.0013
-6.35955
-6.83025
-7.2892
-7.73318
-8.1589
-8.5631
-8.94271
-9.29486
-9.61702
-9.90706
-10.1632
-10.3843
-10.5696
-10.7187
-10.8319
-10.9099
-10.9536
-10.9645
-1.79414
-2.26604
-2.74335
-3.22558
-3.71186
-4.20103
-4.69159
-5.18175
-5.66931
-6.15181
-6.62651
-7.0905
-7.54068
-7.97388
-8.38696
-8.77681
-9.14055
-9.47551
-9.77938
-10.0502
-10.2866
-10.4876
-10.6528
-10.7822
-1.79974
-2.27118
-2.74847
-3.23114
-3.71832
-4.20881
-4.70109
-5.1933
-5.68324
-6.16837
-6.64589
-7.11281
-7.56594
-8.00206
-8.41793
-8.81041
-9.17654
-9.51359
-9.81919
-10.0914
-10.3286
-10.53
-10.695
-10.8239
-1.81004
-2.28062
-2.75788
-3.24139
-3.73027
-4.22332
-4.71896
-5.21528
-5.70999
-6.20045
-6.68372
-7.15665
-7.6159
-8.05807
-8.47978
-8.87774
-9.24882
-9.59018
-9.89931
-10.1741
-10.4131
-10.6152
-10.7801
-10.9078
-1.82482
-2.29399
-2.77113
-3.25583
-3.74724
-4.2441