/*--------------------------------*- C++ -*----------------------------------*\
  =========                 |
  \\      /  F ield         | OpenFOAM: The Open Source CFD Toolbox
   \\    /   O peration     | Website:  https://openfoam.org
    \\  /    A nd           | Version:  13
     \\/     M anipulation  |
\*---------------------------------------------------------------------------*/
FoamFile
{
    format      ascii;
    class       volScalarField;
    location    "300";
    object      omega;
}
// * * * * * * * * * * * * * * * * * * * * * * * * * * * * * * * * * * * * * //

dimensions      [0 0 -1 0 0 0 0];

internalField   nonuniform List<scalar> 
171634
(
18.0619
17.9785
17.896
17.8145
17.7339
17.6541
17.575
17.4966
17.4189
17.3418
17.2653
17.1895
17.1144
17.0399
16.9661
16.893
16.8206
16.7489
16.678
16.6079
16.5385
16.4698
18.0624
17.979
17.8966
17.8152
17.7346
17.6549
17.5758
17.4975
17.4198
17.3427
17.2663
17.1905
17.1153
17.0408
16.967
16.8939
16.8214
16.7498
16.6788
16.6086
16.5392
16.4705
18.0635
17.9803
17.8981
17.8169
17.7365
17.6568
17.5779
17.4996
17.422
17.345
17.2686
17.1928
17.1176
17.043
16.9692
16.896
16.8235
16.7517
16.6807
16.6104
16.5409
16.4722
18.0652
17.9823
17.9003
17.8193
17.7392
17.6597
17.581
17.5029
17.4254
17.3484
17.272
17.1962
17.121
17.0464
16.9724
16.8991
16.8265
16.7546
16.6835
16.6132
16.5436
16.4748
18.0677
17.9851
17.9036
17.823
17.7431
17.664
17.5855
17.5076
17.4303
17.3534
17.2771
17.2012
17.126
17.0513
16.9772
16.9038
16.8311
16.759
16.6878
16.6173
16.5477
16.4788
18.0711
17.9891
17.9081
17.8279
17.7486
17.6699
17.5918
17.5142
17.437
17.3603
17.284
17.2082
17.1329
17.0581
16.9839
16.9104
16.8375
16.7653
16.6939
16.6233
16.5535
16.4845
18.0756
17.9943
17.9141
17.8346
17.756
17.6779
17.6003
17.5231
17.4462
17.3698
17.2936
17.2179
17.1425
17.0676
16.9933
16.9196
16.8465
16.7741
16.7026
16.6318
16.5618
16.4927
18.0816
18.0013
17.922
17.8436
17.7658
17.6885
17.6116
17.5351
17.4587
17.3826
17.3066
17.231
17.1557
17.0807
17.0062
16.9323
16.8591
16.7865
16.7147
16.6438
16.5737
16.5045
18.0895
18.0105
17.9325
17.8554
17.7789
17.7028
17.627
17.5512
17.4756
17.4
17.3244
17.249
17.1737
17.0988
17.0242
16.9501
16.8767
16.8039
16.732
16.6608
16.5906
16.5213
18.0998
18.0226
17.9465
17.8712
17.7965
17.722
17.6477
17.5732
17.4986
17.4238
17.3488
17.2738
17.1988
17.1239
17.0493
16.9751
16.9015
16.8286
16.7565
16.6852
16.6148
16.5454
18.1133
18.0386
17.9651
17.8924
17.8202
17.7482
17.676
17.6034
17.5303
17.4568
17.3828
17.3084
17.2338
17.1592
17.0847
17.0105
16.9368
16.8638
16.7916
16.7202
16.6498
16.5803
18.1312
18.0599
17.9901
17.9212
17.8527
17.7841
17.7151
17.6454
17.5748
17.5032
17.4307
17.3574
17.2836
17.2095
17.1353
17.0612
16.9876
16.9145
16.8422
16.7708
16.7004
16.631
18.1549
18.0886
18.0241
17.9607
17.8977
17.8344
17.7703
17.7048
17.6379
17.5694
17.4993
17.4279
17.3554
17.2821
17.2084
17.1347
17.0612
16.9882
16.9159
16.8445
16.7742
16.7049
18.1865
18.1274
18.0708
18.0157
17.9611
17.9059
17.8493
17.7906
17.7294
17.6657
17.5994
17.5308
17.4603
17.3884
17.3156
17.2423
17.169
17.0961
17.0239
16.9526
16.8823
16.8132
18.229
18.1806
18.1358
18.0934
18.0518
18.0095
17.9648
17.9168
17.8647
17.8084
17.748
17.6838
17.6164
17.5465
17.4749
17.4022
17.3291
17.2562
17.184
17.1126
17.0425
16.9736
18.2865
18.2538
18.2271
18.2046
18.184
18.1623
18.1373
18.1068
18.0697
18.0256
17.9747
17.9174
17.8546
17.7875
17.7172
17.645
17.572
17.4988
17.4263
17.3548
17.2846
17.2161
18.364
18.3552
18.3573
18.3677
18.3826
18.397
18.406
18.4059
18.3946
18.3713
18.336
18.2895
18.2335
18.17
18.1011
18.0288
17.9549
17.8807
17.8073
17.7352
17.6652
17.5973
18.4692
18.4983
18.5483
18.6161
18.6952
18.7761
18.8483
18.904
18.9387
18.9509
18.9412
18.9111
18.8637
18.8033
18.7341
18.6599
18.5836
18.5074
18.4329
18.361
18.2924
18.2276
18.613
18.7031
18.8346
19.0062
19.2075
19.4184
19.6143
19.776
19.8939
19.9659
19.9956
19.9879
19.9496
19.8898
19.8171
19.7384
19.6587
19.5814
19.5089
19.4425
19.3834
19.3327
21.7391
21.661
21.5891
21.5287
21.4836
21.4571
21.4525
21.4734
25.3437
25.3212
25.3427
25.4231
25.5756
25.8126
26.1446
26.5803
18.3741
18.2944
18.237
18.2165
18.5616
18.4688
18.3828
18.3119
18.2692
18.2711
18.3345
18.5627
18.4721
18.3904
18.3271
18.2968
18.3184
18.41
18.5638
18.4746
18.3953
18.3366
18.3137
18.347
18.4557
18.6456
18.5638
18.4745
18.3953
18.3365
18.3137
18.347
18.4557
18.6454
18.8482
18.7523
18.6569
18.5627
18.4721
18.3903
18.3271
18.2969
18.3185
18.4101
18.578
18.9453
18.8488
18.7528
18.6569
18.5616
18.4687
18.3827
18.3119
18.2693
18.2712
18.3348
18.467
18.9462
18.8498
18.7536
18.6572
18.5607
18.4652
18.3741
18.2944
18.2371
18.2167
18.2487
18.3426
18.9477
18.8514
18.7553
18.6586
18.5612
18.4634
18.3678
18.2798
18.209
18.1688
18.1738
18.2361
18.9497
18.8539
18.7581
18.6617
18.564
18.4649
18.3662
18.2721
18.1912
18.1363
18.1227
18.1651
18.2713
19.0485
18.9524
18.8573
18.7625
18.667
18.5701
18.4713
18.3716
18.2746
18.1883
18.1254
18.1029
18.1389
18.2473
19.148
19.051
18.9558
18.8618
18.7685
18.6749
18.58
18.4834
18.3855
18.2897
18.2035
18.1406
18.1204
18.1659
18.298
19.1503
19.054
18.9599
18.8674
18.7762
18.6854
18.5942
18.5021
18.4096
18.3198
18.2407
18.1876
18.1843
18.2623
18.4536
19.1528
19.0574
18.9645
18.874
18.7855
18.6986
18.6129
18.5281
18.4451
18.3677
18.305
18.2762
18.3148
18.4705
18.7958
19.3511
20.1344
21.1485
22.3656
19.1554
19.0609
18.9695
18.8811
18.796
18.7141
18.6356
18.5611
18.4927
18.4356
18.4029
18.4241
18.5599
18.918
19.6235
20.8571
22.2295
22.5395
24.0503
19.158
19.0645
18.9745
18.8886
18.8071
18.7309
18.6611
18.5997
18.551
18.524
18.5412
18.656
18.9994
19.9121
21.705
22.218
24.5963
28.495
33.8446
39.5335
19.1605
19.0678
18.9793
18.8956
18.8179
18.7477
18.6873
18.6407
18.6156
18.6284
18.7166
18.9723
19.6611
21.5379
22.3386
27.7612
40.048
63.7728
80.0327
91.0144
97.6053
19.1627
19.0707
18.9834
18.9018
18.8274
18.7626
18.711
18.6788
18.6781
18.7331
18.8974
19.3034
20.3255
22.94
24.6462
37.9529
84.1318
150.841
348.744
419.431
415.441
434.646
19.1646
19.0731
18.9866
18.9064
18.8344
18.7737
18.7289
18.7081
18.7265
18.8135
19.0322
19.5288
20.6803
23.3112
25.5511
38.9681
82.1871
163.92
686.746
855.771
707.32
864.015
19.166
19.0747
18.9886
18.9091
18.8385
18.7799
18.7387
18.7236
18.7509
18.8505
19.0824
19.5743
20.6207
22.8779
27.3829
31.6027
53.2268
98.5219
183.379
346.107
514.508
599.078
650.597
572.724
543.923
19.1669
19.0755
18.9893
18.9098
18.8392
18.7808
18.7396
18.7242
18.7492
18.8408
19.047
19.4601
20.2629
21.828
24.6532
29.225
34.1768
52.0266
78.4499
116.371
153.836
171.917
178.956
183.553
163.067
167.957
173.938
179.134
182.147
182.962
181.755
178.87
174.715
169.682
164.108
158.097
151.984
145.961
140.15
134.629
129.363
124.295
19.1675
19.0757
18.989
18.9088
18.8371
18.7769
18.7328
18.712
18.7265
18.7961
18.9549
19.2613
19.8188
20.8126
22.5186
25.1253
28.6606
31.6998
41.1232
51.5523
60.5637
66.3405
69.154
64.1047
64.6294
66.3235
69.1831
72.91
77.3201
82.128
87.0459
91.7608
96.0365
99.7417
102.808
105.206
106.962
108.131
108.787
109.012
108.877
108.44
107.745
19.1676
19.0753
18.9877
18.9063
18.8326
18.7695
18.7205
18.6914
18.691
18.7334
18.8404
19.0466
19.4067
20.0075
20.9749
22.4067
24.2288
26.1606
28.2172
30.1808
31.7109
32.6712
33.1356
33.3892
33.5141
33.7274
34.1411
34.8228
35.8071
37.1172
38.7521
40.6847
42.8688
45.2521
47.7831
50.4163
53.1172
55.8657
58.6565
61.4973
64.4042
67.3937
70.4553
19.2643
19.1675
19.0745
18.9859
18.9028
18.8268
18.7599
18.7051
18.6667
18.6507
18.6664
18.7272
18.8523
19.0695
19.4164
19.9409
20.6791
21.5949
22.559
23.4909
24.3039
24.9228
25.3226
25.5294
25.5975
25.5854
25.5476
25.5186
25.5219
25.5752
25.6943
25.894
26.1873
26.5839
27.0917
27.7184
28.472
29.3629
30.4064
31.624
33.0454
34.7068
36.6482
38.9072
19.2646
19.1673
19.0734
18.9836
18.8988
18.8202
18.7494
18.6887
18.641
18.6105
18.603
18.6262
18.6907
18.8094
18.9979
19.2716
19.6383
20.0821
20.5561
21.005
21.3828
21.6644
21.8459
21.9381
21.9606
21.9324
21.8754
21.8063
21.7368
21.6747
21.6257
21.594
21.5832
21.5971
21.6395
21.7154
21.8308
21.9937
22.2144
22.5072
22.8907
23.3881
24.0257
24.834
19.2649
19.1669
19.0722
18.9812
18.8947
18.8135
18.7389
18.6726
18.6166
18.5736
18.5471
18.5414
18.5619
18.6145
18.7049
18.8368
19.0091
19.2117
19.4246
19.6232
19.7881
19.9085
19.9829
20.0146
20.0088
19.9727
19.9154
19.8456
19.7703
19.6944
19.6215
19.5539
19.4931
19.4402
19.3964
19.363
19.3414
19.3343
19.3448
19.3777
19.439
19.5372
19.6821
19.885
19.2651
19.1666
19.0711
18.9789
18.8907
18.8072
18.7291
18.6578
18.5946
18.5413
18.4999
18.4727
18.4621
18.4707
18.5002
18.5505
18.6188
18.6987
18.7804
18.8538
18.9106
18.9463
18.9593
18.9502
18.9206
18.8739
18.8143
18.7462
18.6733
18.5986
18.5242
18.4517
18.3821
18.316
18.254
18.1964
18.1439
18.0972
18.0572
18.0253
18.0033
17.9936
17.999
18.0229
19.2653
19.1663
19.07
18.9768
18.8871
18.8014
18.7203
18.6448
18.5756
18.5139
18.4609
18.4179
18.3859
18.3655
18.3569
18.3592
18.37
18.3854
18.4002
18.4096
18.41
18.3991
18.376
18.3407
18.2943
18.2384
18.175
18.1064
18.0346
17.9614
17.888
17.8154
17.7444
17.6753
17.6087
17.5446
17.4834
17.4252
17.3706
17.3199
17.2737
17.233
17.1984
17.1706
19.2656
19.1661
19.0692
18.975
18.8839
18.7963
18.7127
18.6336
18.5596
18.4913
18.4295
18.3748
18.3276
18.2879
18.2553
18.2289
18.2066
18.1862
18.1648
18.14
18.1097
18.0727
18.0286
17.9776
17.9202
17.8574
17.7903
17.7201
17.648
17.5751
17.5022
17.43
17.359
17.2893
17.2213
17.1551
17.0909
17.0287
16.9687
16.9111
16.8562
16.8043
16.7555
16.7102
19.266
19.166
19.0684
18.9734
18.8812
18.792
18.7062
18.6242
18.5464
18.4731
18.4046
18.3413
18.2833
18.2303
18.182
18.1374
18.0952
18.0538
18.0116
17.967
17.9191
17.867
17.8107
17.7502
17.686
17.6185
17.5486
17.4769
17.4042
17.3312
17.2584
17.1863
17.1152
17.0452
16.9767
16.9095
16.8439
16.7799
16.7176
16.6571
16.5985
16.5418
16.4873
16.4349
19.2664
19.1661
19.0679
18.9721
18.8789
18.7884
18.7009
18.6166
18.5357
18.4585
18.385
18.3155
18.2498
18.1877
18.1288
18.0723
18.0173
17.9628
17.9078
17.8513
17.7926
17.7315
17.6677
17.6014
17.5328
17.4623
17.3903
17.3175
17.2442
17.171
17.0981
17.026
16.9548
16.8847
16.8158
16.7481
16.6818
16.6169
16.5534
16.4914
16.4309
16.3719
16.3145
16.2587
19.2668
19.1662
19.0676
18.9712
18.8771
18.7855
18.6965
18.6103
18.5271
18.4468
18.3697
18.2956
18.2245
18.156
18.0899
18.0255
17.9622
17.8993
17.8361
17.7721
17.7067
17.6399
17.5713
17.5013
17.4299
17.3574
17.2841
17.2104
17.1367
17.0632
16.9903
16.9181
16.8468
16.7766
16.7075
16.6395
16.5728
16.5073
16.4431
16.3802
16.3186
16.2583
16.1993
16.1417
19.2673
19.1664
19.0674
18.9704
18.8757
18.7832
18.693
18.6053
18.5202
18.4377
18.3577
18.2803
18.2052
18.1323
18.0612
17.9915
17.9226
17.8542
17.7858
17.7169
17.6472
17.5766
17.5051
17.4327
17.3595
17.2857
17.2116
17.1374
17.0634
16.9898
16.9168
16.8446
16.7733
16.703
16.6338
16.5656
16.4986
16.4328
16.3681
16.3046
16.2423
16.1812
16.1212
16.0623
19.2678
19.1666
19.0673
18.9699
18.8746
18.7813
18.6902
18.6014
18.5148
18.4305
18.3484
18.2684
18.1905
18.1144
18.0398
17.9664
17.8938
17.8217
17.7498
17.6776
17.6052
17.5322
17.4587
17.3848
17.3105
17.2359
17.1614
17.0869
17.0128
16.9392
16.8663
16.7942
16.7229
16.6526
16.5833
16.5151
16.4479
16.3818
16.3168
16.2529
16.1901
16.1283
16.0676
16.0079
19.2684
19.167
19.0674
18.9696
18.8738
18.7799
18.6881
18.5983
18.5105
18.4248
18.3411
18.2593
18.1793
18.1008
18.0237
17.9477
17.8726
17.7979
17.7236
17.6493
17.5749
17.5004
17.4257
17.3508
17.2759
17.2009
17.1261
17.0516
16.9775
16.904
16.8312
16.7592
16.688
16.6178
16.5485
16.4803
16.413
16.3468
16.2816
16.2174
16.1542
16.092
16.0307
15.9703
19.2689
19.1673
19.0675
18.9694
18.8732
18.7789
18.6864
18.5959
18.5072
18.4204
18.3355
18.2523
18.1706
18.0905
18.0116
17.9337
17.8567
17.7803
17.7043
17.6286
17.5529
17.4774
17.4019
17.3264
17.2511
17.1759
17.101
17.0266
16.9526
16.8793
16.8066
16.7348
16.6638
16.5937
16.5245
16.4562
16.389
16.3227
16.2573
16.1929
16.1294
16.0669
16.0052
15.9443
19.2694
19.1677
19.0677
18.9694
18.8728
18.7781
18.6851
18.594
18.5046
18.417
18.3311
18.2468
18.164
18.0826
18.0024
17.9232
17.8448
17.7671
17.69
17.6132
17.5367
17.4605
17.3845
17.3086
17.2331
17.1579
17.083
17.0087
16.9349
16.8617
16.7893
16.7176
16.6468
16.5768
16.5077
16.4395
16.3723
16.3059
16.2405
16.176
16.1123
16.0494
15.9874
15.9261
19.2699
19.168
19.0679
18.9694
18.8726
18.7775
18.6842
18.5926
18.5027
18.4144
18.3278
18.2427
18.159
18.0766
17.9954
17.9152
17.8359
17.7573
17.6793
17.6018
17.5247
17.448
17.3716
17.2956
17.2199
17.1447
17.0699
16.9957
16.9221
16.8491
16.7769
16.7054
16.6348
16.5649
16.496
16.4279
16.3606
16.2943
16.2288
16.1642
16.1003
16.0373
15.975
15.9134
19.2703
19.1684
19.0681
18.9694
18.8724
18.7771
18.6835
18.5915
18.5012
18.4124
18.3252
18.2395
18.1551
18.0721
17.9901
17.9092
17.8292
17.7499
17.6713
17.5933
17.5158
17.4388
17.3622
17.286
17.2103
17.1351
17.0604
16.9863
16.9129
16.8401
16.7681
16.6968
16.6263
16.5566
16.4877
16.4197
16.3525
16.2862
16.2207
16.156
16.092
16.0288
15.9663
15.9045
19.2707
19.1687
19.0683
18.9695
18.8724
18.7769
18.683
18.5907
18.5001
18.4109
18.3233
18.2371
18.1523
18.0687
17.9862
17.9047
17.8242
17.7444
17.6654
17.587
17.5092
17.432
17.3552
17.279
17.2033
17.1281
17.0535
16.9796
16.9063
16.8337
16.7618
16.6906
16.6203
16.5507
16.482
16.414
16.3469
16.2806
16.215
16.1503
16.0862
16.0229
15.9602
15.8982
19.271
19.169
19.0685
18.9696
18.8723
18.7767
18.6826
18.5902
18.4993
18.4099
18.3219
18.2354
18.1502
18.0662
17.9833
17.9014
17.8205
17.7405
17.6611
17.5825
17.5045
17.427
17.3502
17.2739
17.1982
17.1231
17.0486
16.9747
16.9016
16.8291
16.7573
16.6863
16.6161
16.5466
16.4779
16.4101
16.343
16.2767
16.2111
16.1463
16.0822
16.0188
15.956
15.8938
19.2713
19.1692
19.0686
18.9697
18.8724
18.7766
18.6824
18.5898
18.4987
18.4091
18.321
18.2342
18.1487
18.0645
17.9813
17.8992
17.818
17.7377
17.6582
17.5794
17.5012
17.4237
17.3468
17.2705
17.1948
17.1197
17.0453
16.9715
16.8984
16.826
16.7543
16.6834
16.6133
16.5439
16.4753
16.4075
16.3404
16.2741
16.2086
16.1437
16.0796
16.0161
15.9532
15.8909
19.2714
19.1693
19.0688
18.9698
18.8724
18.7766
18.6823
18.5896
18.4984
18.4086
18.3203
18.2334
18.1478
18.0633
17.98
17.8977
17.8164
17.7359
17.6563
17.5773
17.4991
17.4215
17.3445
17.2682
17.1925
17.1175
17.0431
16.9693
16.8963
16.824
16.7524
16.6815
16.6115
16.5421
16.4736
16.4058
16.3387
16.2725
16.2069
16.142
16.0779
16.0143
15.9514
15.8891
19.2716
19.1694
19.0689
18.9699
18.8725
18.7766
18.6823
18.5895
18.4983
18.4085
18.3202
18.2331
18.1474
18.0629
17.9795
17.8972
17.8157
17.7352
17.6555
17.5765
17.4982
17.4206
17.3436
17.2673
17.1916
17.1165
17.0422
16.9685
16.8955
16.8232
16.7516
16.6808
16.6107
16.5414
16.4729
16.4051
16.3381
16.2718
16.2062
16.1414
16.0772
16.0136
15.9507
15.8883
18.0617
17.9782
17.8958
17.8143
17.7337
17.6538
17.5747
17.4963
17.4186
17.3416
17.2651
17.1893
17.1142
17.0398
16.966
16.8929
16.8205
16.7488
16.6779
16.6078
16.5384
16.4698
18.0621
17.9787
17.8964
17.8149
17.7344
17.6546
17.5756
17.4972
17.4196
17.3425
17.2661
17.1903
17.1152
17.0407
16.9669
16.8937
16.8213
16.7496
16.6787
16.6085
16.5391
16.4705
18.0633
17.98
17.8978
17.8166
17.7362
17.6565
17.5776
17.4994
17.4217
17.3447
17.2683
17.1925
17.1174
17.0428
16.969
16.8958
16.8233
16.7516
16.6806
16.6103
16.5408
16.4722
18.0649
17.982
17.9
17.819
17.7388
17.6594
17.5807
17.5025
17.425
17.3481
17.2717
17.1959
17.1207
17.0461
16.9721
16.8988
16.8263
16.7544
16.6833
16.613
16.5434
16.4747
18.0673
17.9848
17.9032
17.8226
17.7427
17.6636
17.5851
17.5072
17.4298
17.353
17.2766
17.2008
17.1255
17.0509
16.9768
16.9034
16.8307
16.7587
16.6875
16.617
16.5474
16.4785
18.0706
17.9886
17.9076
17.8274
17.748
17.6693
17.5912
17.5136
17.4364
17.3597
17.2835
17.2077
17.1323
17.0576
16.9834
16.9098
16.837
16.7648
16.6934
16.6228
16.5531
16.4841
18.0751
17.9937
17.9134
17.834
17.7553
17.6772
17.5995
17.5223
17.4455
17.369
17.2929
17.2171
17.1418
17.0669
16.9926
16.9189
16.8458
16.7735
16.7019
16.6312
16.5612
16.4922
18.081
18.0006
17.9213
17.8428
17.765
17.6877
17.6108
17.5342
17.4578
17.3817
17.3057
17.2301
17.1547
17.0798
17.0054
16.9315
16.8582
16.7857
16.7139
16.643
16.5729
16.5037
18.0888
18.0097
17.9317
17.8545
17.778
17.7018
17.6259
17.5502
17.4745
17.3989
17.3233
17.2478
17.1726
17.0976
17.0231
16.949
16.8756
16.8029
16.7309
16.6598
16.5896
16.5203
18.099
18.0217
17.9456
17.8702
17.7954
17.7209
17.6464
17.5719
17.4972
17.4224
17.3474
17.2723
17.1973
17.1224
17.0479
16.9737
16.9001
16.8273
16.7552
16.6839
16.6136
16.5442
18.1124
18.0376
17.964
17.8912
17.8189
17.7467
17.6744
17.6017
17.5286
17.455
17.381
17.3066
17.2319
17.1573
17.0828
17.0087
16.9351
16.8621
16.7899
16.7185
16.6482
16.5788
18.1302
18.0588
17.9889
17.9198
17.8511
17.7823
17.7132
17.6433
17.5725
17.5008
17.4282
17.355
17.2811
17.207
17.1328
17.0588
16.9852
16.9123
16.8401
16.7687
16.6984
16.6291
18.1538
18.0873
18.0226
17.959
17.8957
17.8321
17.7677
17.702
17.6349
17.5662
17.496
17.4245
17.352
17.2788
17.2052
17.1316
17.0582
16.9853
16.9132
16.842
16.7718
16.7027
18.1853
18.126
18.0691
18.0136
17.9586
17.903
17.8459
17.7868
17.7253
17.6613
17.5949
17.5263
17.4559
17.3841
17.3115
17.2384
17.1654
17.0928
17.0209
16.9498
16.8798
16.811
18.2278
18.1791
18.134
18.0911
18.0489
18.0058
17.9604
17.9117
17.8591
17.8025
17.742
17.6779
17.6107
17.5412
17.4699
17.3977
17.3252
17.2528
17.1811
17.1103
17.0407
16.9723
18.2856
18.2526
18.2256
18.2026
18.181
18.1583
18.1321
18.1005
18.0626
18.018
17.967
17.91
17.8478
17.7815
17.7122
17.6409
17.5688
17.4967
17.4251
17.3546
17.2853
17.2176
18.364
18.3554
18.3574
18.3675
18.3815
18.3943
18.4014
18.3995
18.3869
18.363
18.3278
18.2821
18.2274
18.1654
18.0981
18.0275
17.9553
17.8828
17.8109
17.7403
17.6716
17.605
18.4717
18.5024
18.554
18.6231
18.7024
18.7817
18.8511
18.9039
18.9365
18.9478
18.9386
18.9102
18.8653
18.8076
18.7411
18.6695
18.5957
18.5217
18.4491
18.3787
18.3114
18.2476
18.622
18.7178
18.8575
19.0383
19.2461
19.4578
19.6505
19.8078
19.9228
19.994
20.0246
20.0194
19.9844
19.928
19.8634
19.7931
19.7195
19.6443
19.5708
19.5026
19.4408
19.3858
21.9454
21.8772
21.8059
21.7357
21.6678
21.6133
21.5745
21.5526
26.1215
26.0558
25.9953
25.9467
25.9254
25.9557
26.0386
26.1769
18.3954
18.3245
18.28
18.2791
18.5735
18.4859
18.4076
18.3481
18.3224
18.3518
18.4594
18.5756
18.4909
18.4179
18.3679
18.3587
18.4152
18.5644
18.5772
18.4942
18.4244
18.38
18.3805
18.4529
18.6267
18.9182
18.5772
18.4942
18.4244
18.38
18.3805
18.4529
18.6266
18.9179
18.8524
18.7584
18.6657
18.5756
18.4908
18.4179
18.3679
18.3587
18.4153
18.5644
18.8204
18.948
18.8528
18.7585
18.6652
18.5735
18.4859
18.4075
18.348
18.3224
18.352
18.4596
18.6577
18.9487
18.8534
18.7589
18.6647
18.5713
18.4802
18.3954
18.3245
18.2801
18.2794
18.3419
18.4795
18.9499
18.8547
18.76
18.6653
18.5704
18.4762
18.3853
18.3037
18.2418
18.2141
18.2379
18.3268
18.9517
18.8568
18.7623
18.6675
18.5719
18.4756
18.3802
18.2905
18.2151
18.1675
18.1643
18.2216
18.3474
19.0496
18.9542
18.8599
18.7661
18.672
18.5768
18.48
18.3827
18.2885
18.2053
18.1464
18.1293
18.1734
18.2936
19.1487
19.0521
18.9573
18.8641
18.7716
18.6792
18.5858
18.4908
18.3948
18.3009
18.2168
18.1565
18.1404
18.1927
18.3355
19.1509
19.0549
18.9612
18.8693
18.7789
18.6892
18.5994
18.5088
18.4181
18.3304
18.2542
18.2057
18.2111
18.3043
18.5198
19.1532
19.0581
18.9656
18.8756
18.7879
18.7021
18.6177
18.5347
18.4542
18.3805
18.3243
18.3083
18.3745
18.5835
18.9991
19.6528
20.516
21.6793
23.3583
19.1558
19.0615
18.9704
18.8826
18.7982
18.7173
18.6404
18.5683
18.5038
18.454
18.4365
18.4931
18.7146
19.2799
20.3283
20.6448
21.7792
23.587
26.1883
19.1583
19.0649
18.9753
18.8898
18.8091
18.7341
18.6662
18.6082
18.5657
18.5522
18.6016
18.8
19.3955
20.8815
21.3772
24.3666
30.5804
42.277
57.7286
73.5958
19.1607
19.0682
18.9799
18.8967
18.8198
18.7508
18.6928
18.6506
18.6349
18.6698
18.8148
19.236
20.525
23.8555
26.2274
41.3337
65.6726
205.02
511.77
879.052
19.1628
19.071
18.9839
18.9027
18.829
18.7656
18.7167
18.6899
18.7014
18.7862
19.0298
19.6904
21.396
22.7584
32.5015
85.7798
235.075
1035.32
19.1646
19.0732
18.9869
18.9071
18.8359
18.7765
18.7344
18.7194
18.7508
18.87
19.1732
19.925
21.7269
23.2568
34.0992
60.3947
327.343
19.166
19.0747
18.9888
18.9097
18.8396
18.7823
18.7435
18.7337
18.7728
18.9006
19.2037
19.8902
21.5433
25.2795
29.3604
56.4784
135.128
769.717
799.481
531.64
19.1669
19.0755
18.9895
18.9102
18.8401
18.7826
18.7434
18.7322
18.7665
18.8788
19.1345
19.6719
20.8247
23.2364
28.0126
34.151
66.4844
147.564
272.781
355.494
370.85
342.986
310.16
254.694
230.032
174.653
168.674
165.613
164.285
163.302
162.129
160.548
158.471
155.917
152.963
149.7
146.232
142.662
139.084
135.579
132.23
129.149
19.1673
19.0756
18.989
18.9089
18.8376
18.7781
18.7355
18.7177
18.7384
18.8214
19.0096
19.3838
20.1076
21.5052
23.9861
27.9552
32.3385
48.5089
68.8529
86.0012
96.0649
98.795
97.1881
94.1659
77.9824
76.4249
75.2278
74.4271
74.6756
75.7283
77.284
79.1373
81.1332
83.1663
85.1679
87.0517
88.7885
90.3825
91.8589
93.2422
94.5492
95.9193
97.4396
19.1675
19.0751
18.9877
18.9063
18.8329
18.7702
18.7222
18.6949
18.6984
18.7484
18.8711
19.1102
19.5421
20.3026
21.5723
23.3999
25.5489
28.3154
31.3241
33.9449
35.7558
36.6659
36.8517
36.8514
36.8052
36.7208
36.6472
36.6124
36.6381
36.9068
37.4116
38.124
39.0171
40.0654
41.2504
42.5595
43.9896
45.5512
47.2691
49.182
51.3387
53.8053
56.6387
19.2641
19.1673
19.0743
18.9857
18.9027
18.8268
18.7602
18.706
18.6686
18.6547
18.6744
18.7429
18.8828
19.1288
19.5329
20.1604
21.0273
22.0307
23.1258
24.2132
25.1538
25.8469
26.2647
26.4395
26.4392
26.4209
26.3732
26.3142
26.255
26.203
26.1666
26.1837
26.2573
26.3897
26.5825
26.8394
27.1662
27.5718
28.07
28.6808
29.4325
30.3605
31.5072
32.9252
19.2644
19.1671
19.0732
18.9834
18.8986
18.82
18.7494
18.6889
18.6419
18.6124
18.6068
18.6335
18.7042
18.8338
19.0412
19.3458
19.7513
20.2244
20.7173
21.1784
21.5649
21.8531
22.0385
22.1305
22.1481
22.1143
22.0684
22.0114
21.9466
21.8794
21.8121
21.7554
21.7146
21.6909
21.6858
21.7015
21.7407
21.8078
21.9089
22.0525
22.2506
22.5187
22.8747
23.3413
19.2647
19.1667
19.072
18.981
18.8944
18.8133
18.7387
18.6725
18.6167
18.5742
18.5485
18.5443
18.5671
18.6235
18.7196
18.8597
19.0414
19.2508
19.465
19.6608
19.8222
19.9402
20.0145
20.0473
20.0439
20.0106
19.9561
19.8902
19.8192
19.7452
19.672
19.6033
19.5403
19.4841
19.4353
19.3946
19.3631
19.3422
19.3338
19.3408
19.367
19.4176
19.4988
19.6181
19.2649
19.1664
19.0708
18.9787
18.8904
18.8068
18.7288
18.6575
18.5943
18.5412
18.5001
18.4733
18.4636
18.4733
18.5042
18.5561
18.6258
18.7058
18.7861
18.8567
18.9108
18.9444
18.9566
18.948
18.9201
18.8757
18.8186
18.753
18.6824
18.6097
18.5371
18.466
18.3974
18.3321
18.2705
18.2129
18.1598
18.1117
18.0693
18.0336
18.0059
17.9878
17.9812
17.9881
19.2651
19.1661
19.0698
18.9765
18.8868
18.801
18.7199
18.6443
18.5751
18.5134
18.4605
18.4176
18.3857
18.3655
18.357
18.3593
18.3697
18.3841
18.3973
18.4049
18.4034
18.3912
18.3675
18.3323
18.2867
18.232
18.1701
18.103
18.0328
17.9611
17.8891
17.818
17.7482
17.6804
17.6148
17.5516
17.491
17.4334
17.3789
17.328
17.2811
17.2389
17.2019
17.1708
19.2654
19.1659
19.0689
18.9747
18.8835
18.7959
18.7123
18.6331
18.559
18.4907
18.4289
18.374
18.3267
18.2869
18.2542
18.2273
18.2045
18.1832
18.1607
18.1346
18.1032
18.0654
18.0208
17.9697
17.9126
17.8503
17.784
17.7146
17.6434
17.5715
17.4996
17.4283
17.3581
17.2892
17.222
17.1565
17.0929
17.0312
16.9717
16.9144
16.8597
16.8077
16.7586
16.7127
19.2658
19.1658
19.0682
18.9731
18.8808
18.7916
18.7058
18.6237
18.5458
18.4724
18.4039
18.3405
18.2823
18.2291
18.1805
18.1355
18.0928
18.0508
18.0078
17.9625
17.9139
17.8613
17.8046
17.744
17.6798
17.6126
17.5429
17.4716
17.3994
17.3269
17.2547
17.1831
17.1125
17.043
16.9749
16.9082
16.843
16.7794
16.7174
16.6572
16.5988
16.5422
16.4877
16.4353
19.2662
19.1658
19.0677
18.9718
18.8786
18.788
18.7004
18.6161
18.5351
18.4578
18.3843
18.3146
18.2488
18.1865
18.1273
18.0705
18.0152
17.9603
17.9048
17.8478
17.7887
17.7272
17.6632
17.5967
17.5281
17.4577
17.3858
17.3132
17.2401
17.1671
17.0945
17.0227
16.9518
16.8819
16.8133
16.7459
16.6799
16.6152
16.5519
16.49
16.4297
16.3708
16.3135
16.2578
19.2666
19.1659
19.0673
18.9709
18.8768
18.7851
18.6961
18.6098
18.5265
18.4462
18.369
18.2948
18.2235
18.1549
18.0886
18.024
17.9604
17.8973
17.8338
17.7694
17.7038
17.6367
17.568
17.4979
17.4264
17.3539
17.2807
17.2071
17.1335
17.0601
16.9873
16.9153
16.8441
16.7741
16.7051
16.6373
16.5707
16.5054
16.4413
16.3785
16.317
16.2568
16.1979
16.1402
19.2671
19.1661
19.0671
18.9702
18.8753
18.7828
18.6926
18.6049
18.5197
18.4371
18.357
18.2795
18.2043
18.1313
18.06
17.9902
17.9212
17.8526
17.7839
17.7148
17.645
17.5743
17.5027
17.4301
17.3569
17.2831
17.209
17.1349
17.0609
16.9874
16.9145
16.8424
16.7711
16.7009
16.6318
16.5637
16.4968
16.431
16.3664
16.303
16.2407
16.1796
16.1197
16.0608
19.2676
19.1664
19.0671
18.9697
18.8743
18.781
18.6899
18.6009
18.5143
18.4299
18.3477
18.2677
18.1897
18.1135
18.0388
17.9653
17.8926
17.8204
17.7483
17.676
17.6035
17.5304
17.4569
17.3829
17.3085
17.234
17.1594
17.085
17.0109
16.9374
16.8645
16.7924
16.7212
16.6509
16.5817
16.5135
16.4464
16.3804
16.3154
16.2516
16.1888
16.127
16.0663
16.0066
19.2682
19.1667
19.0671
18.9693
18.8735
18.7796
18.6877
18.5979
18.5101
18.4243
18.3405
18.2587
18.1785
18.1
18.0228
17.9468
17.8715
17.7968
17.7224
17.648
17.5736
17.499
17.4243
17.3494
17.2744
17.1994
17.1246
17.0501
16.9761
16.9026
16.8298
16.7578
16.6867
16.6165
16.5473
16.4791
16.4118
16.3456
16.2805
16.2163
16.1531
16.0909
16.0297
15.9693
19.2687
19.1671
19.0672
18.9692
18.8729
18.7785
18.686
18.5955
18.5068
18.4199
18.3349
18.2517
18.17
18.0898
18.0108
17.9329
17.8558
17.7793
17.7033
17.6275
17.5518
17.4762
17.4007
17.3252
17.2499
17.1747
17.0999
17.0254
16.9515
16.8782
16.8055
16.7337
16.6627
16.5926
16.5235
16.4553
16.388
16.3217
16.2564
16.192
16.1286
16.066
16.0044
15.9435
19.2692
19.1675
19.0674
18.9691
18.8726
18.7778
18.6848
18.5936
18.5042
18.4166
18.3306
18.2463
18.1634
18.082
18.0017
17.9224
17.844
17.7663
17.6891
17.6123
17.5358
17.4595
17.3835
17.3077
17.2321
17.1569
17.0821
17.0077
16.9339
16.8608
16.7884
16.7167
16.6459
16.576
16.5069
16.4388
16.3715
16.3052
16.2398
16.1753
16.1116
16.0488
15.9868
15.9255
19.2697
19.1678
19.0677
18.9691
18.8723
18.7772
18.6839
18.5922
18.5023
18.414
18.3273
18.2422
18.1585
18.076
17.9948
17.9146
17.8352
17.7566
17.6786
17.601
17.5239
17.4472
17.3708
17.2948
17.2191
17.1439
17.0692
16.995
16.9214
16.8484
16.7762
16.7047
16.6341
16.5643
16.4953
16.4273
16.3601
16.2937
16.2283
16.1636
16.0998
16.0368
15.9745
15.9129
19.2702
19.1682
19.0679
18.9692
18.8722
18.7769
18.6832
18.5912
18.5009
18.4121
18.3249
18.2391
18.1547
18.0716
17.9896
17.9087
17.8286
17.7493
17.6707
17.5927
17.5152
17.4381
17.3615
17.2854
17.2097
17.1345
17.0598
16.9858
16.9123
16.8396
16.7675
16.6962
16.6258
16.5561
16.4873
16.4193
16.3521
16.2858
16.2203
16.1556
16.0916
16.0284
15.966
15.9041
19.2706
19.1686
19.0682
18.9694
18.8722
18.7767
18.6828
18.5905
18.4998
18.4107
18.323
18.2368
18.1519
18.0683
17.9858
17.9043
17.8237
17.744
17.665
17.5866
17.5087
17.4315
17.3547
17.2785
17.2028
17.1277
17.0531
16.9791
16.9059
16.8333
16.7614
16.6903
16.6199
16.5504
16.4817
16.4137
16.3466
16.2803
16.2148
16.15
16.086
16.0227
15.96
15.898
19.271
19.1689
19.0684
18.9695
18.8723
18.7766
18.6825
18.59
18.4991
18.4097
18.3217
18.2351
18.1499
18.0659
17.983
17.9011
17.8202
17.7401
17.6608
17.5821
17.5041
17.4267
17.3498
17.2736
17.1979
17.1228
17.0483
16.9744
16.9013
16.8288
16.7571
16.6861
16.6158
16.5464
16.4778
16.4099
16.3428
16.2765
16.211
16.1462
16.0821
16.0187
15.9559
15.8938
19.2712
19.1691
19.0686
18.9697
18.8723
18.7765
18.6823
18.5897
18.4986
18.409
18.3208
18.234
18.1485
18.0642
17.9811
17.8989
17.8177
17.7374
17.6579
17.5791
17.5009
17.4234
17.3465
17.2702
17.1945
17.1194
17.045
16.9713
16.8982
16.8258
16.7542
16.6833
16.6131
16.5438
16.4752
16.4074
16.3403
16.274
16.2085
16.1437
16.0795
16.0161
15.9532
15.8909
19.2714
19.1693
19.0687
18.9697
18.8723
18.7765
18.6822
18.5895
18.4982
18.4085
18.3202
18.2332
18.1476
18.0631
17.9798
17.8975
17.8161
17.7356
17.656
17.577
17.4988
17.4212
17.3443
17.2679
17.1923
17.1172
17.0428
16.9691
16.8961
16.8238
16.7522
16.6814
16.6113
16.542
16.4735
16.4057
16.3387
16.2724
16.2069
16.142
16.0779
16.0143
15.9514
15.8891
19.2716
19.1694
19.0688
18.9698
18.8724
18.7765
18.6822
18.5894
18.4982
18.4084
18.32
18.233
18.1472
18.0627
17.9793
17.8969
17.8155
17.7349
17.6552
17.5762
17.4979
17.4203
17.3433
17.267
17.1913
17.1163
17.0419
16.9683
16.8953
16.823
16.7515
16.6807
16.6106
16.5413
16.4728
16.4051
16.3381
16.2718
16.2062
16.1414
16.0772
16.0137
15.9507
15.8883
18.0614
17.9779
17.8954
17.8139
17.7332
17.6534
17.5743
17.4959
17.4182
17.3412
17.2648
17.189
17.1139
17.0395
16.9657
16.8927
16.8203
16.7487
16.6778
16.6077
16.5384
16.4698
18.0618
17.9783
17.896
17.8145
17.7339
17.6542
17.5751
17.4968
17.4191
17.3421
17.2657
17.1899
17.1148
17.0404
16.9666
16.8935
16.8211
16.7495
16.6786
16.6084
16.539
16.4704
18.0628
17.9796
17.8973
17.8161
17.7356
17.656
17.5771
17.4988
17.4212
17.3442
17.2678
17.1921
17.1169
17.0424
16.9686
16.8954
16.823
16.7513
16.6803
16.6101
16.5406
16.472
18.0643
17.9813
17.8994
17.8183
17.7381
17.6587
17.5799
17.5018
17.4243
17.3473
17.2709
17.1952
17.12
17.0454
16.9715
16.8982
16.8257
16.7539
16.6828
16.6125
16.543
16.4743
18.0664
17.9838
17.9022
17.8215
17.7416
17.6625
17.584
17.5061
17.4287
17.3518
17.2755
17.1997
17.1245
17.0498
16.9758
16.9024
16.8297
16.7578
16.6866
16.6162
16.5465
16.4777
18.0694
17.9872
17.9061
17.826
17.7465
17.6678
17.5896
17.512
17.4348
17.3581
17.2818
17.2061
17.1308
17.056
16.9819
16.9083
16.8355
16.7634
16.692
16.6215
16.5517
16.4828
18.0734
17.992
17.9117
17.8321
17.7534
17.6752
17.5975
17.5203
17.4434
17.3669
17.2908
17.215
17.1397
17.0649
16.9906
16.9169
16.8439
16.7716
16.7
16.6293
16.5594
16.4904
18.0791
17.9987
17.9192
17.8407
17.7628
17.6854
17.6084
17.5318
17.4553
17.3792
17.3032
17.2276
17.1523
17.0773
17.0029
16.9291
16.8558
16.7833
16.7116
16.6407
16.5707
16.5015
18.0867
18.0076
17.9294
17.8521
17.7755
17.6992
17.6232
17.5474
17.4716