/*--------------------------------*- C++ -*----------------------------------*\
  =========                 |
  \\      /  F ield         | OpenFOAM: The Open Source CFD Toolbox
   \\    /   O peration     | Website:  https://openfoam.org
    \\  /    A nd           | Version:  13
     \\/     M anipulation  |
\*---------------------------------------------------------------------------*/
FoamFile
{
    format      ascii;
    class       volScalarField;
    location    "300";
    object      p;
}
// * * * * * * * * * * * * * * * * * * * * * * * * * * * * * * * * * * * * * //

dimensions      [0 2 -2 0 0 0 0];

internalField   nonuniform List<scalar> 
171634
(
8.35219
7.84748
7.33453
6.81632
6.29582
5.77587
5.25902
4.74744
4.24284
3.74643
3.25888
2.78031
2.31036
1.8482
1.39266
0.942252
0.495292
0.0499685
-0.395513
-0.84284
-1.2935
-1.74873
8.35227
7.84384
7.32718
6.80536
6.28149
5.75853
5.23914
4.72558
4.21961
3.72247
3.23483
2.75677
2.28786
1.82717
1.37343
0.92503
0.480181
0.0369773
-0.406471
-0.851934
-1.30098
-1.7549
8.35496
7.83901
7.31477
6.78559
6.25482
5.72567
5.20102
4.68332
4.17445
3.67572
3.18778
2.71063
2.24371
1.78592
1.33577
0.891415
0.450842
0.011934
-0.427394
-0.869086
-1.31486
-1.76615
8.35895
7.83132
7.29532
6.75467
6.21316
5.67439
5.1416
4.61752
4.10423
3.60312
3.11481
2.63922
2.17554
1.72241
1.27797
0.840049
0.406254
-0.0258665
-0.458704
-0.894473
-1.33512
-1.78227
8.36473
7.8209
7.26851
6.71188
6.15538
5.60319
5.05908
4.52617
4.00685
3.5026
3.01403
2.54084
2.08195
1.63557
1.19936
0.770635
0.346495
-0.0759953
-0.499659
-0.927082
-1.36053
-1.80186
8.37208
7.8069
7.23282
6.65498
6.07857
5.5086
4.94953
4.40508
3.87799
3.36991
2.88137
2.41183
1.95975
1.52277
1.0979
0.681752
0.270733
-0.138738
-0.550054
-0.966287
-1.39009
-1.82365
8.3812
7.78868
7.18673
6.58154
5.97945
5.38656
4.80833
4.24923
3.7125
3.19999
2.71213
2.24797
1.80538
1.3812
0.971585
0.57219
0.178517
-0.213854
-0.609047
-1.01074
-1.42205
-1.84553
8.39234
7.76543
7.12821
6.48828
5.85352
5.23154
4.62911
4.05176
3.50334
2.98596
2.49984
2.0435
1.61396
1.20701
0.817617
0.440205
0.0690919
-0.301215
-0.675748
-1.05891
-1.45437
-1.86506
8.40614
7.73636
7.05487
6.37115
5.69515
5.0365
4.40379
3.80389
3.24154
2.71906
2.23638
1.79125
1.37952
0.995579
0.632778
0.283946
-0.0581381
-0.400317
-0.748733
-1.10863
-1.48428
-1.87904
8.42376
7.70082
6.96396
6.22517
5.49717
4.79239
4.12186
3.4943
2.91551
2.38806
1.91141
1.48217
1.09463
0.741234
0.41323
0.101322
-0.203687
-0.510334
-0.826086
-1.15714
-1.5084
-1.88356
8.44724
7.65847
6.85236
6.04422
5.25057
4.48765
3.76986
3.10839
2.51039
1.97865
1.51183
1.10498
0.750157
0.437226
0.154614
-0.109782
-0.36771
-0.629807
-0.9051
-1.20081
-1.5224
-1.87384
8.47989
7.60965
6.71674
5.82094
4.94399
4.10745
3.33039
2.62734
2.00712
1.47261
1.02118
0.645617
0.334979
0.0755873
-0.147918
-0.351359
-0.549781
-0.756417
-0.982071
-1.23497
-1.52101
-1.84416
8.52708
7.55589
6.55378
5.54653
4.56312
3.63267
2.78079
2.02661
1.381
0.846539
0.418605
0.0866964
-0.164285
-0.352821
-0.499393
-0.624799
-0.748358
-0.886469
-1.05187
-1.25363
-1.49773
-1.78778
8.59724
7.5008
6.36062
5.21059
4.08995
3.03862
2.09164
1.27437
0.600084
0.070442
-0.322372
-0.593508
-0.763823
-0.858393
-0.904731
-0.930358
-0.960149
-1.01429
-1.10743
-1.24909
-1.44469
-1.69682
8.70343
7.45133
6.13543
4.80059
3.50077
2.29196
1.2232
0.32832
-0.377109
-0.893787
-1.23462
-1.42128
-1.48237
-1.45207
-1.36769
-1.266
-1.17907
-1.13143
-1.13927
-1.21168
-1.3525
-1.56232
8.86552
7.42046
5.88061
4.30483
2.76782
1.34969
0.121138
-0.870707
-1.60825
-2.09786
-2.36112
-2.4293
-2.34147
-2.14425
-1.88886
-1.62497
-1.39394
-1.22478
-1.13418
-1.12916
-1.21038
-1.37496
9.11751
7.43599
5.60992
3.71678
1.86202
0.162972
-1.27743
-2.39392
-3.16615
-3.60874
-3.75721
-3.65793
-3.36533
-2.94378
-2.46435
-1.99468
-1.58762
-1.2759
-1.07433
-0.985296
-1.00396
-1.12206
9.51171
7.54008
5.34477
3.02714
0.73829
-1.34543
-3.06924
-4.34141
-5.1435
-5.50895
-5.49092
-5.15332
-4.57489
-3.84819
-3.07467
-2.34691
-1.73031
-1.2581
-0.938518
-0.765059
-0.724037
-0.79927
10.1173
7.792
5.11705
2.22128
-0.676426
-3.30054
-5.40702
-6.86754
-7.68012
-7.91492
-7.65321
-6.97851
-5.9985
-4.8515
-3.68853
-2.6377
-1.77524
-1.12709
-0.687274
-0.434697
-0.342558
-0.383568
-4.23185
-2.80482
-1.67967
-0.85979
-0.314934
-0.00292159
0.120772
0.0977103
-4.51175
-2.66925
-1.29184
-0.331347
0.27935
0.610413
0.728946
0.693581
32.3891
32.4487
32.1454
31.3805
31.674
32.1894
32.4968
32.5178
32.159
31.3185
29.9066
31.7831
32.2908
32.5849
32.5847
32.1939
31.3088
29.8369
31.8369
32.3413
32.6296
32.6197
32.2137
31.3075
29.8053
27.6376
31.835
32.3392
32.6271
32.6168
32.2101
31.3031
29.7998
27.6308
29.5683
30.3731
31.123
31.7775
32.2844
32.5775
32.5759
32.1833
31.2959
29.8208
27.6913
28.6281
29.4539
30.2567
31.0069
31.6647
32.1788
32.4846
32.5035
32.1419
31.2978
29.8814
27.8297
28.4659
29.2878
30.09
30.8437
31.5106
32.0411
32.3727
32.4296
32.1228
31.3533
30.0299
28.0921
28.2554
29.0747
29.8792
30.6423
31.3278
31.8888
32.2659
32.3862
32.1651
31.5066
30.3143
28.5215
28.0002
28.8188
29.6305
30.4112
31.1284
31.7386
32.1866
32.403
32.3056
31.7995
30.7802
29.1618
26.8942
26.8995
27.7019
28.5223
29.3466
30.1544
30.9179
31.5992
32.1478
32.4988
32.5708
32.2654
31.4657
30.0549
27.9427
25.8012
26.5637
27.3602
28.1841
29.0255
29.8692
30.6935
31.4675
32.1483
32.6761
32.9706
32.9253
32.4039
31.2469
29.2985
25.4356
26.1835
26.9724
27.7995
28.6597
29.5445
30.4401
31.325
32.1665
32.9137
33.4897
33.78
33.6204
32.7925
31.0379
25.0269
25.7561
26.5334
27.3599
28.236
29.1607
30.1299
31.1343
32.1556
33.1574
34.0733
34.7902
35.1148
34.7472
33.282
30.2737
25.5258
18.9244
11.0375
24.574
25.2785
26.0369
26.8543
27.7366
28.6905
29.7227
30.8383
32.0376
33.3066
34.6054
35.8402
36.8086
37.1314
36.2009
33.1986
27.779
20.9982
11.5419
24.0761
24.7475
25.4765
26.2712
27.1422
28.1029
29.1699
30.3628
31.7025
33.2049
34.8727
36.6635
38.4267
39.7943
39.9773
37.5386
32.0375
22.191
8.97699
-5.72668
23.5334
24.1619
24.8479
25.6016
26.4363
27.3693
28.4236
29.6296
31.0233
32.6464
34.5455
36.7515
39.2361
41.7845
42.767
42.2139
37.3216
25.4788
9.86716
-14.4828
-35.6916
22.9485
23.5231
24.1512
24.8428
25.6111
26.4735
27.4533
28.5813
29.8938
31.4372
33.2644
35.4213
37.909
40.6099
42.9025
44.0258
40.7269
32.2717
9.54392
-26.8145
-75.7777
-71.1189
22.3264
22.8366
23.3921
24.0007
24.6726
25.4203
26.2606
27.2124
28.2943
29.5217
30.8923
32.3593
33.7617
34.6967
36.5552
34.0424
23.5015
6.5364
-44.5711
-154.687
-84.7286
-44.5398
21.6746
22.1119
22.5826
23.091
23.6419
24.2396
24.8883
25.5883
26.3274
27.0671
27.7181
28.0875
27.7687
25.9146
21.1788
17.6703
-0.430223
-31.2653
-62.0443
-99.7423
-107.283
-63.6834
-42.8182
-22.5255
-9.34388
21.0033
21.3618
21.7398
22.1372
22.5524
22.9806
23.4115
23.8267
24.1844
24.3998
24.3213
23.6771
21.9937
18.48
12.0047
1.42537
-9.39534
-29.2861
-45.5861
-54.3943
-51.9722
-43.3358
-33.0012
-22.1656
-11.1776
-5.63929
-1.96148
0.215015
1.52794
2.22809
2.44549
2.33166
2.02831
1.63968
1.23826
0.877901
0.600923
0.43969
0.414007
0.524659
0.740291
0.973369
20.3236
20.6011
20.8836
21.1668
21.4431
21.6997
21.9146
22.0554
22.0632
21.8335
21.2
19.9056
17.5694
13.6765
7.6513
-0.797692
-10.9906
-20.8818
-29.8637
-34.1905
-34.2343
-30.9173
-25.726
-17.4053
-12.026
-7.31503
-3.67332
-1.17584
0.418766
1.35567
1.80925
1.92302
1.81841
1.58786
1.29812
0.99971
0.731214
0.518434
0.37124
0.276268
0.18666
0.00491889
-0.440144
19.6472
19.8448
20.0339
20.2067
20.351
20.4486
20.4709
20.3765
20.104
19.5539
18.5785
16.9783
14.5013
10.8722
5.88403
-0.420903
-7.36423
-13.6586
-18.4518
-20.9861
-21.457
-20.2919
-17.9296
-14.7794
-11.1065
-7.51471
-4.50222
-2.24738
-0.692645
0.304023
0.874433
1.12715
1.15521
1.03503
0.825562
0.571481
0.305141
0.0455798
-0.20409
-0.461715
-0.773874
-1.22836
-1.96078
18.8497
18.9847
19.1067
19.2085
19.28
19.3063
19.2663
19.1296
18.8525
18.3779
17.6244
16.4765
14.7935
12.424
9.23663
5.18668
0.410127
-4.66045
-9.29516
-12.8622
-14.898
-15.529
-15.0493
-13.7144
-11.732
-9.31501
-6.81061
-4.55092
-2.72254
-1.36786
-0.440081
0.134217
0.428463
0.510327
0.438957
0.262119
0.0160249
-0.274195
-0.595365
-0.94845
-1.35189
-1.84578
-2.49653
-3.39824
18.2717
18.3455
18.3983
18.4217
18.4041
18.3299
18.1775
17.9175
17.5101
16.9044
16.0381
14.8309
13.1898
11.029
8.29642
5.01454
1.32992
-2.44903
-5.87974
-8.54804
-10.2429
-11.0082
-10.989
-10.3275
-9.15102
-7.61206
-5.91713
-4.28382
-2.87601
-1.77262
-0.979846
-0.46579
-0.186086
-0.0951724
-0.151035
-0.318153
-0.56901
-0.884949
-1.25728
-1.68887
-2.19612
-2.81081
-3.57948
-4.56278
17.7186
17.737
17.7283
17.6834
17.5907
17.4346
17.1947
16.8448
16.3511
15.6718
14.7591
13.561
12.0225
10.0995
7.78044
5.11156
2.22026
-0.676608
-3.30498
-5.42037
-6.89138
-7.71138
-7.94653
-7.68109
-7.00596
-6.03381
-4.90225
-3.75803
-2.72644
-1.88501
-1.26119
-0.848601
-0.624743
-0.561891
-0.632352
-0.811448
-1.07955
-1.42351
-1.83779
-2.3256
-2.8998
-3.58328
-4.40797
-5.41144
17.1951
17.1646
17.1026
17.0002
16.846
16.6256
16.3209
15.9094
15.3639
14.6524
13.7395
12.591
11.178
9.48327
7.51531
5.32323
3.00761
0.718488
-1.3685
-3.09834
-4.3777
-5.18587
-5.55442
-5.53773
-5.20341
-4.6329
-3.91891
-3.16129
-2.45122
-1.85409
-1.40359
-1.10777
-0.959406
-0.944193
-1.0456
-1.2478
-1.53774
-1.90665
-2.35113
-2.87388
-3.48405
-4.19696
-5.03261
-6.01251
16.7046
16.6318
16.5247
16.3749
16.1719
15.9029
15.5525
15.1021
14.5305
13.8142
12.9288
11.8522
10.5698
9.07997
7.40026
5.57556
3.68285
1.82702
0.125009
-1.3201
-2.44223
-3.21984
-3.66685
-3.81948
-3.72569
-3.44139
-3.03136
-2.56608
-2.11242
-1.72305
-1.4309
-1.25048
-1.18371
-1.22533
-1.3668
-1.59884
-1.91337
-2.30485
-2.77123
-3.31443
-3.94032
-4.65826
-5.47994
-6.4163
16.2493
16.1404
15.996
15.8081
15.5675
15.2632
14.8823
14.4102
13.8307
13.127
12.2832
11.2864
10.1305
8.82019
7.37562
5.83584
4.25942
2.72071
1.29962
0.0669012
-0.929904
-1.67269
-2.16757
-2.4364
-2.51127
-2.43202
-2.24562
-2.00312
-1.75384
-1.53894
-1.38736
-1.31557
-1.33031
-1.43194
-1.61729
-1.88177
-2.22095
-2.63164
-3.11266
-3.66523
-4.2928
-5.00057
-5.79431
-6.6783
15.8299
15.691
15.5161
15.2983
15.0295
14.7006
14.3012
13.8198
13.2445
12.5638
11.7675
10.8491
9.80781
8.65143
7.39888
6.08213
4.74587
3.44383
2.23191
1.15911
0.259459
-0.451272
-0.973668
-1.3208
-1.51473
-1.58449
-1.5645
-1.49207
-1.4038
-1.33157
-1.29976
-1.32445
-1.41451
-1.57354
-1.80185
-2.09802
-2.46012
-2.88659
-3.37682
-3.9314
-4.55204
-5.24104
-6.00032
-6.83012
15.4466
15.2829
15.0837
14.8429
14.5537
14.2087
13.7994
13.3174
12.754
12.1014
11.3538
10.5083
9.56727
8.53949
7.44189
6.30018
5.14816
4.02489
2.9702
2.01913
1.19706
0.517376
-0.0182116
-0.417651
-0.696288
-0.875211
-0.979653
-1.03714
-1.07511
-1.11832
-1.18681
-1.29514
-1.45262
-1.6645
-1.9331
-2.25899
-2.64186
-3.08121
-3.57678
-4.1287
-4.73743
-5.40336
-6.1261
-6.9036
15.0989
14.915
14.6966
14.4385
14.1352
13.7803
13.3677
12.8907
12.3435
11.7209
11.0199
10.2402
9.38545
8.46434
7.49145
6.4873
5.47759
4.49122
3.55717
2.70106
1.94202
1.29094
0.750402
0.315725
-0.0237098
-0.283131
-0.481109
-0.638142
-0.77497
-0.910823
-1.062
-1.24111
-1.4571
-1.71576
-2.02046
-2.37293
-2.77383
-3.22334
-3.72136
-4.26773
-4.8621
-5.50367
-6.19071
-6.91993
14.7856
14.5855
14.3523
14.0816
13.7687
13.4089
12.9971
12.5287
11.9997
11.4069
10.749
10.0273
9.24584
8.41281
7.54045
6.6451
5.74651
4.8663
4.02597
3.24453
2.53653
1.91079
1.37015
0.911979
0.528972
0.210126
-0.0582861
-0.291626
-0.505675
-0.715406
-0.933965
-1.17205
-1.43777
-1.73685
-2.07306
-2.44868
-2.86493
-3.32232
-3.82088
-4.36022
-4.9395
-5.55722
-6.21091
-6.89677
14.5054
14.2925
14.048
13.7683
13.4496
13.088
12.68
12.2221
11.7116
11.147
10.528
9.8565
9.1369
8.37638
7.58517
6.77632
5.96511
5.16797
4.40109
3.6788
3.01232
2.40876
1.87091
1.3974
0.983237
0.620473
0.298933
0.00705474
-0.267226
-0.535597
-0.808617
-1.09522
-1.40252
-1.73582
-2.09889
-2.4942
-2.9232
-3.38657
-3.88436
-4.41604
-4.98049
-5.57585
-6.19932
-6.84695
14.2569
14.0339
13.781
13.4951
13.1731
12.8122
12.4095
11.9628
11.4704
10.9315
10.3468
9.71843
9.0506
8.34963
7.62398
6.88415
6.14208
5.41042
4.70152
4.0264
3.39377
2.80941
2.27589
1.79264
1.35628
0.961072
0.599456
0.262702
-0.0584493
-0.373141
-0.689838
-1.01592
-1.35749
-1.71929
-2.10484
-2.51657
-2.95597
-3.42375
-3.91995
-4.44395
-4.99448
-5.56953
-6.16622
-6.78066
14.0384
13.8077
13.5486
13.2585
12.9352
12.5763
12.1799
11.7443
11.2687
10.7529
10.1979
9.60614
8.9814
8.32916
7.65649
6.97185
6.28468
5.60487
4.942
4.30462
3.69962
3.13171
2.60322
2.11406
1.662
1.24287
0.851068
0.479981
0.122471
-0.228631
-0.580101
-0.938001
-1.30747
-1.69267
-2.09674
-2.52193
-2.96965
-3.44059
-3.93472
-4.45139
-4.98925
-5.54628
-6.11963
-6.70562
13.8485
13.6119
13.3482
13.0557
12.7323
12.3763
11.9863
11.5612
11.1008
10.6052
10.0757
9.51458
8.92542
8.31292
7.68296
7.04245
6.39894
5.76026
5.13398
4.52684
3.94436
3.39042
2.86709
2.37462
1.91153
1.47484
1.06038
0.663104
0.277509
-0.102047
-0.480991
-0.864279
-1.25621
-1.66034
-2.07943
-2.51548
-2.96976
-3.44286
-3.93472
-4.44463
-4.97126
-5.5126
-6.06594
-6.62785
13.6858
13.4446
13.1778
12.8839
12.5611
12.2084
11.8246
11.4092
10.962
10.4837
9.97568
9.44007
8.88004
8.2997
7.70401
7.09865
6.48978
5.88369
5.28644
4.70347
4.13926
3.59704
3.07866
2.58457
2.11384
1.66433
1.23292
0.815791
0.408638
0.00701366
-0.393439
-0.796769
-1.20656
-1.6258
-2.05689
-2.50156
-2.96091
-3.43543
-3.92499
-4.42887
-4.94575
-5.4737
-6.01016
-6.55194
13.5488
13.3043
13.0354
12.7408
12.4192
12.0696
11.6915
11.2845
10.8488
10.3851
9.89476
9.37993
8.84343
8.28884
7.72037
7.1428
6.5612
5.98074
5.40637
4.84256
4.29301
3.76046
3.2466
2.75195
2.27599
1.8172
1.37324
0.941166
0.517618
0.099057
-0.318035
-0.736976
-1.16074
-1.59187
-2.03238
-2.48377
-2.94697
-3.42235
-3.90973
-4.40838
-4.91701
-5.43377
-5.95625
-6.4815
13.4366
13.1896
12.9193
12.6244
12.3041
11.9576
11.5845
11.1846
10.7583
10.3065
9.8305
9.33227
8.8144
8.28004
7.73285
7.17689
6.61645
6.05586
5.49926
4.9504
4.41242
3.88769
3.37773
2.88315
2.40368
1.93826
1.48511
1.04195
0.606122
0.17477
-0.254974
-0.685851
-1.12035
-1.56062
-2.00838
-2.4649
-2.93095
-3.40681
-3.89225
-4.38652
-4.88836
-5.39601
-5.90721
-6.4192
13.3481
13.0994
12.8281
12.5333
12.2143
11.8703
11.5013
11.1072
10.6884
10.246
9.78107
9.29565
8.79205
8.27311
7.74206
7.20243
6.65795
6.11234
5.56915
5.03162
4.50248
3.98383
3.47706
2.98284
2.50107
2.031
1.57129
1.1201
0.675303
0.234548
-0.204546
-0.644285
-1.08678
-1.53387
-1.98702
-2.44733
-2.91543
-3.39151
-3.87531
-4.36606
-4.86254
-5.36306
-5.86547
-6.36718
13.2825
13.0326
12.7608
12.4662
12.1482
11.8064
11.4405
11.0507
10.6376
10.202
9.74533
9.26927
8.77605
8.26826
7.74883
7.22094
6.6879
6.15302
5.61946
5.09008
4.56734
4.05315
3.54881
3.05501
2.57179
2.09859
1.63436
1.17761
0.726544
0.279186
-0.166502
-0.612511
-1.06068
-1.5126
-1.96958
-2.43256
-2.90207
-3.37824
-3.86077
-4.34888
-4.84139
-5.33665
-5.83261
-6.32682
13.2391
12.9886
12.7165
12.4221
12.1049
11.7644
11.4007
11.0138
10.6044
10.1734
9.72204
9.25208
8.76558
8.265
7.75306
7.23273
6.70705
6.17907
5.6517
5.12759
4.60899
4.09772
3.59501
3.10157
2.61749
2.14238
1.67535
1.21511
0.760102
0.308571
-0.141298
-0.59129
-1.04306
-1.49807
-1.95748
-2.42214
-2.89253
-3.36871
-3.85037
-4.33672
-4.82661
-5.31841
-5.81015
-6.29944
13.218
12.9671
12.695
12.4008
12.084
11.7443
11.3817
10.9964
10.589
10.1603
9.71165
9.24475
8.76163
8.26463
7.75641
7.2398
6.71773
6.19312
5.66875
5.14718
4.63057
4.12067
3.61871
3.12539
2.64085
2.16476
1.69631
1.23432
0.777339
0.323731
-0.128213
-0.580181
-1.03374
-1.49027
-1.95088
-2.41636
-2.88717
-3.36336
-3.84457
-4.33005
-4.81862
-5.30871
-5.79835
-6.28522
8.35777
7.85394
7.34186
6.82447
6.30474
5.7855
5.26928
4.75824
4.25409
3.75802
3.27071
2.79228
2.32236
1.86014
1.40444
0.953796
0.506524
0.0608365
-0.385053
-0.832819
-1.28394
-1.73962
8.35795
7.85043
7.33466
6.81369
6.29062
5.76839
5.24964
4.73663
4.23111
3.73432
3.24691
2.76897
2.30008
1.83931
1.38539
0.936736
0.491554
0.0479593
-0.395924
-0.841854
-1.29138
-1.74579
8.36086
7.84586
7.32255
6.79426
6.26434
5.73595
5.21198
4.69485
4.18645
3.68807
3.20035
2.72331
2.25638
1.79849
1.34812
0.903469
0.46252
0.0231753
-0.416636
-0.858843
-1.30515
-1.75697
8.36517
7.83857
7.30357
6.76389
6.22328
5.68534
5.15327
4.6298
4.11699
3.61624
3.12815
2.65265
2.18893
1.73563
1.29092
0.852638
0.418399
-0.0142303
-0.447625
-0.883984
-1.32524
-1.77299
8.37137
7.82867
7.27739
6.72181
6.16631
5.61503
5.07171
4.53947
4.02067
3.51679
3.02843
2.5553
2.09631
1.6497
1.21314
0.783955
0.359272
-0.0638284
-0.488152
-0.916268
-1.35042
-1.79245
8.37926
7.81533
7.2425
6.66584
6.09056
5.52161
4.96343
4.41972
3.8932
3.3855
2.89716
2.42763
1.97538
1.53807
1.11274
0.696012
0.28432
-0.125895
-0.538007
-0.955068
-1.37971
-1.81409
8.389
7.79791
7.19738
6.59355
5.99275
5.40103
4.82382
4.26556
3.72946
3.21736
2.72967
2.26546
1.8226
1.39798
0.987746
0.587611
0.193098
-0.200189
-0.59635
-0.999035
-1.41135
-1.83582
8.40086
7.77559
7.14
6.50166
5.8684
5.24779
4.64656
4.07017
3.52247
3.00552
2.51954
2.06306
1.63313
1.22557
0.835379
0.457027
0.0848623
-0.286574
-0.662287
-1.04665
-1.44332
-1.8552
8.41546
7.74757
7.06798
6.38612
5.7119
5.05487
4.42358
3.82484
3.26332
2.7413
2.25873
1.81334
1.40105
1.01628
0.652442
0.302416
-0.0409776
-0.384546
-0.734399
-1.09575
-1.47287
-1.86904
8.43393
7.71316
6.97851
6.24192
5.51605
4.81324
4.14444
3.51829
2.94048
2.41356
1.93694
1.5073
1.11895
0.764448
0.435105
0.121693
-0.184937
-0.49328
-0.810774
-1.14359
-1.49659
-1.87346
8.45822
7.67196
6.86842
6.06289
5.27181
4.51132
3.7957
3.13599
2.53922
2.00807
1.54119
1.13369
0.777747
0.463337
0.179002
-0.0872726
-0.347181
-0.611327
-0.888711
-1.18652
-1.51021
-1.8637
8.49158
7.62418
6.73424
5.84152
4.9677
4.13421
3.35995
2.6592
2.04056
1.50674
1.0551
0.678543
0.366313
0.104941
-0.120763
-0.326516
-0.527316
-0.736384
-0.964511
-1.21991
-1.50843
-1.83403
8.53917
7.57112
6.57236
5.5687
4.58913
3.66262
2.8145
2.06348
1.42
0.886378
0.457962
0.12448
-0.128801
-0.320004
-0.469356
-0.59754
-0.723871
-0.864788
-1.03305
-1.23772
-1.48475
-1.77769
8.60918
7.51601
6.37943
5.2335
4.11757
3.07147
2.12979
1.31709
0.645849
0.117238
-0.276568
-0.550269
-0.724007
-0.822212
-0.872011
-0.900842
-0.933702
-0.990937
-1.08729
-1.23228
-1.43127
-1.6868
8.71426
7.46519
6.15277
4.82234
3.52833
2.32679
1.26595
0.378065
-0.322849
-0.838369
-1.18127
-1.37227
-1.43861
-1.41331
-1.33309
-1.23478
-1.15092
-1.10643
-1.11771
-1.19381
-1.33849
-1.55225
8.87369
7.43052
5.89302
4.3212
2.79114
1.38355
0.167876
-0.812184
-1.54254
-2.0311
-2.29891
-2.37495
-2.29557
-2.10531
-1.85456
-1.59354
-1.3648
-1.19833
-1.11112
-1.11005
-1.19559
-1.3647
9.12078
7.43828
5.61132
3.71991
1.87294
0.189721
-1.22912
-2.32489
-3.0845
-3.52639
-3.68479
-3.60055
-3.32219
-2.91022
-2.43492
-1.96583
-1.55871
-1.2482
-1.04945
-0.964407
-0.987766
-1.11101
9.50712
7.52845
5.32473
3.00252
0.72104
-1.33778
-3.02304
-4.25695
-5.03703
-5.40389
-5.40709
-5.09923
-4.54584
-3.83213
-3.05955
-2.32647
-1.70488
-1.23107
-0.913103
-0.743294
-0.707138
-0.788054
10.1015
7.75702
5.05695
2.14035
-0.754174
-3.33521
-5.3682
-6.75691
-7.53247
-7.77654
-7.56007
-6.94271
-6.00628
-4.87464
-3.70161
-2.63115
-1.75364
-1.09924
-0.659519
-0.410175
-0.323033
-0.370289
-4.29992
-2.82464
-1.66738
-0.834229
-0.287426
0.0215982
0.139437
0.108803
-4.66281
-2.71155
-1.2758
-0.294936
0.319452
0.646987
0.757383
0.711058
32.6521
32.7646
32.507
31.7701
31.8559
32.4248
32.7916
32.8722
32.5663
31.7569
30.3266
31.9793
32.5451
32.9041
32.9699
32.6389
31.7871
30.2903
32.0405
32.6055
32.9615
33.0213
32.6785
31.806
30.2751
27.9841
32.0387
32.6034
32.959
33.0183
32.6749
31.8014
30.2693
27.9766
29.6438
30.4801
31.27
31.9737
32.5387
32.8967
32.9612
32.6283
31.7738
30.2735
28.0305
28.6753
29.5238
30.356
31.1433
31.8467
32.4144
32.7796
32.858
32.5492
31.7359
30.3006
28.1548
28.5073
29.3499
30.1785
30.9656
31.6732
32.2515
32.6358
32.7458
32.4845
31.7429
30.4104
28.4054
28.2901
29.1274
29.9552
30.7474
31.4685
32.071
32.4939
32.6609
32.4805
31.8488
30.6593
28.8301
28.0274
28.8615
29.6931
30.4989
31.2465
31.8927
32.3808
32.6393
32.5813
32.1054
31.1022
29.478
27.1763
26.9092
27.7215
28.555
29.3961
30.2252
31.0151
31.7279
32.313
32.7041
32.8174
32.5506
31.783
30.3951
28.2903
25.7995
26.568
27.3726
28.2074
29.063
29.925
30.7727
31.5758
32.292
32.8617
33.2039
33.2101
32.7414
31.6348
29.7261
25.4301
26.1827
26.9782
27.8144
28.6869
29.588
30.5054
31.4193
32.2986
33.0945
33.7312
34.0945
34.0172
33.2698
31.5732
25.018
25.751
26.5336
27.3678
28.2548
29.1948
30.1859
31.2216
32.2871
33.3509
34.3517
35.1803
35.637
35.3963
33.9923
30.8883
26.1718
19.8218
11.9649
24.5623
25.2696
26.0324
26.8564
27.7489
28.7181
29.7736
30.925
32.1792
33.5321
34.9569
36.3707
37.568
38.1329
37.3016
33.7298
28.786
21.6948
12.6354
24.0621
24.7357
25.4682
26.2688
27.1495
28.1259
29.2184
30.4531
31.8615
33.4774
35.3287
37.4043
39.5861
41.5067
40.3436
38.7622
31.963
21.6646
9.53386
-3.90387
23.5177
24.1477
24.8368
25.5958
26.4398
27.3887
28.4704
29.7234
31.1984
32.9632
35.1057
37.7242
40.8883
44.5939
45.3323
45.1629
37.8911
24.7709
6.07963
-8.486
22.9316
23.5073
24.1379
24.8342
25.6112
26.489
27.4963
28.673
30.072
31.7697
33.8697
36.5042
39.7592
42.6074
47.1624
48.9273
45.956
53.6889
22.3087
22.8197
23.3771
23.9898
24.6694
25.431
26.2963
27.2929
28.4538
29.8188
31.4265
33.2929
35.2828
37.8121
40.4895
38.7376
28.7265
21.6567
22.0944
22.5665
23.0782
23.6354
24.2446
24.9138
25.6497
26.4493
27.2879
28.0943
28.6904
28.6242
26.9543
26.6941
16.5629
-0.187709
-75.1935
-25.2378
-7.98987
20.9855
21.3441
21.7231
22.123
22.5431
22.9799
23.4257
23.8661
24.2633
24.5366
24.5339
23.9659
22.2857
18.4898
11.2758
4.25779
-15.6548
-37.5617
-53.3407
-55.793
-53.4759
-45.7506
-37.428
-25.1282
-14.6695
-6.47914
-1.81253
0.692198
1.96088
2.57655
2.73006
2.56143
2.20914
1.77704
1.33759
0.94654
0.649102
0.480775
0.465477
0.610012
0.893993
1.23768
20.3063
20.5837
20.8668
21.1517
21.4315
21.6941
21.919
22.0756
22.1064
21.9052
21.2992
20.0101
17.6066
13.4638
6.89163
-2.40515
-11.1421
-23.4711
-30.6154
-33.2106
-32.6182
-29.8935
-26.151
-20.8981
-13.2259
-8.23101
-4.03657
-1.15266
0.588023
1.55072
1.98338
2.05715
1.90858
1.63832
1.31624
0.993555
0.709082
0.489889
0.348452
0.276609
0.230926
0.110053
-0.271827
19.6306
19.828
20.0175
20.1914
20.3381
20.4397
20.4682
20.3833
20.1232
19.5857
18.6169
17.0029
14.4653
10.6858
5.40894
-1.22476
-8.32081
-14.517
-18.572
-20.4731
-20.7415
-19.8304
-17.9997
-15.2462
-11.8256
-8.1113
-4.79648
-2.30952
-0.649788
0.375615
0.943402
1.18229
1.19288
1.05462
0.827826
0.558048
0.278374
0.00804574
-0.249595
-0.511307
-0.823183
-1.27395
-2.00633
18.8345
18.9691
19.0909
19.1929
19.265
19.2929
19.2556
19.123
18.8513
18.3832
17.6353
16.4872
14.7905
12.3806
9.11047
4.92353
-0.0169574
-5.15867
-9.69625
-12.8857
-14.5952
-15.1157
-14.7437
-13.6498
-11.9025
-9.61329
-7.06741
-4.68646
-2.75293
-1.34131
-0.392655
0.185237
0.474826
0.54745
0.46415
0.274502
0.0153755
-0.287948
-0.622114
-0.988067
-1.40445
-1.91228
-2.57877
-3.501
18.2576
18.331
18.3836
18.4071
18.3901
18.317
18.1664
17.9091
17.505
16.903
16.0395
14.8313
13.1809
10.9969
8.22177
4.87818
1.12954
-2.66667
-6.01644
-8.52252
-10.073
-10.7816
-10.8015
-10.2422
-9.17839
-7.71057
-6.01964
-4.34582
-2.89099
-1.75645
-0.950356
-0.433788
-0.15704
-0.0720946
-0.135643
-0.31158
-0.572005
-0.898048
-1.28095
-1.72364
-2.24277
-2.87083
-3.6558
-4.65973
17.7056
17.7237
17.7149
17.6701
17.5778
17.4226
17.1842
16.8363
16.345
15.6681
14.7573
13.559
12.0159
10.0816
7.74303
5.04881
2.13662
-0.757026
-3.34224
-5.38418
-6.7837
-7.56716
-7.81109
-7.58948
-6.97001
-6.04004
-4.92312
-3.76897
-2.71839
-1.86234
-1.23207
-0.81898
-0.598025
-0.540111
-0.616911
-0.803319
-1.07936
-1.43167
-1.85472
-2.35182
-2.93606
-3.6307
-4.4681
-5.48663
17.1833
17.1526
17.0905
16.9882
16.8345
16.6149
16.3114
15.9017
15.3582
14.6488
13.7377
12.5901
11.1759
9.47706
7.50179
5.30111
2.98085
0.699143
-1.36284
-3.05405
-4.29513
-5.08127
-5.45113
-5.45508
-5.14964
-4.60356
-3.90214
-3.1452
-2.42985
-1.82784
-1.37574
-1.08145
-0.936676
-0.926321
-1.03342
-1.24184
-1.53837
-1.91414
-2.36575
-2.89598
-3.51413
-4.23564
-5.08065
-6.07079
16.694
16.621
16.5139
16.3643
16.1618
15.8937
15.5444
15.0955
14.5258
13.8116
12.9283
11.8534
10.572
9.08197
7.4011
5.57538
3.68435
1.83634
0.150253
-1.27316
-2.37444
-3.13934
-3.58556
-3.74789
-3.66881
-3.39848
-2.99781
-2.53654
-2.08356
-1.69428
-1.4033
-1.2256
-1.16271
-1.20892
-1.35542
-1.59279
-1.91285
-2.31001
-2.78222
-3.3314
-3.96355
-4.68813
-5.51666
-6.46
16.2397
16.1308
15.9864
15.7988
15.5588
15.2553
14.8755
14.4049
13.8272
13.1256
12.2841
11.2896
10.1359
8.82738
7.38458
5.84706
4.27457
2.74283
1.33236
0.112629
-0.872287
-1.6078
-2.10154
-2.37484
-2.45742
-2.3865
-2.20696
-1.96904
-1.72263
-1.51003
-1.3611
-1.29263
-1.31123
-1.41707
-1.60684
-1.87588
-2.21968
-2.63504
-3.12076
-3.67806
-4.31041
-5.023
-5.8215
-6.71011
15.8213
15.6825
15.5077
15.2903
15.0221
14.6941
14.2957
13.8157
13.2422
12.5636
11.7697
10.8538
9.81514
8.6615
7.41189
6.09856
4.76669
3.4705
2.2659
1.2011
0.308509
-0.397642
-0.918823
-1.26796
-1.46617
-1.54113
-1.5261
-1.45778
-1.37286
-1.30366
-1.27498
-1.30306
-1.39674
-1.55954
-1.79169
-2.09174
-2.45771
-2.88802
-3.38205
-3.94037
-4.56466
-5.25716
-6.01978
-6.85267
15.439
15.2754
15.0764
14.836
14.5475
14.2033
13.7951
13.3145
12.7528
12.1022
11.3568
10.5139
9.57565
8.55084
7.45645
6.31831
5.17036
4.05182
3.00241
2.05667
1.23923
0.562638
0.0281082
-0.372287
-0.653457
-0.835776
-0.943829
-1.00476
-1.0459
-1.09215
-1.1637
-1.27518
-1.43592
-1.6511
-1.92301
-2.25217
-2.63828
-3.08078
-3.57941
-4.13427
-4.74581
-5.41435
-6.13949
-6.91908
15.0921
14.9084
14.6903
14.4327
14.1299
13.7759
13.3643
12.8887
12.3431
11.7224
11.0236
10.2463
9.39419
8.47597
7.50617
6.50535
5.49924
4.5167
3.58662
2.7343
1.97845
1.32953
0.789853
0.354713
0.0137221
-0.247983
-0.448612
-0.608406
-0.747989
-0.886586
-1.04053
-1.22245
-1.44129
-1.7028
-2.01032
-2.36554
-2.76913
-3.22121
-3.7217
-4.2704
-4.86694
-5.51047
-6.19923
-6.92989
14.7796
14.5797
14.3469
14.0766
13.7644
13.4053
12.9946
12.5275
11.9999
11.4089
10.753
10.0335
9.25451
8.42413
7.55458
6.66219
5.76667
4.88959
4.05233
3.27371
2.56804
1.94389
1.40396
0.945595
0.561602
0.241174
-0.0292073
-0.264731
-0.481073
-0.693157
-0.914113
-1.15463
-1.42279
-1.72429
-2.06287
-2.4408
-2.85927
-3.31878
-3.81934
-4.36053
-4.94149
-5.56069
-6.21564
-6.90249
14.5001
14.2874
14.0433
13.7641
13.4459
13.0852
12.6781
12.2214
11.7123
11.1493
10.5321
9.86263
9.14523
8.38707
7.59834
6.79206
5.98345
5.18888
4.42444
3.70434
3.03963
2.4373
1.90005
1.4265
1.0117
0.647821
0.32481
0.031221
-0.244923
-0.515252
-0.79029
-1.07895
-1.3883
-1.72364
-2.0887
-2.48592
-2.91676
-3.38187
-3.88127
-4.41443
-4.9802
-5.5767
-6.20111
-6.84945
14.2521
14.0295
13.7769
13.4914
13.1701
12.8099
12.4082
11.9626
11.4714
10.934
10.3509
9.72433
9.05846
8.35955
7.63607
6.89844
6.15856
5.42903
4.72212
4.04874
3.41752
2.83416
2.30116
1.81796
1.3812
0.985191
0.622474
0.284391
-0.0382518
-0.354544
-0.67291
-1.0007
-1.34398
-1.70748
-2.09469
-2.50801
-2.94893
-3.41813
-3.91564
-4.44083
-4.99241
-5.56834
-6.16574
-6.78071
14.0342
13.8037
13.545
13.2554
12.9327
12.5745
12.179
11.7444
11.2699
10.7554
10.2019
9.61173
8.98871
8.33828
7.66749
6.98474
6.29943
5.6214
4.96016
4.32422
3.72038
3.1533
2.62528
2.13623
1.68392
1.26423
0.871605
0.499489
0.140797
-0.211596
-0.564431
-0.923736
-1.29463
-1.68123
-2.08667
-2.51318
-2.96216
-3.43427
-3.92947
-4.4471
-4.9858
-5.54353
-6.11743
-6.70382
13.8447
13.6083
13.3451
13.053
12.7301
12.3748
11.9856
11.5615
11.1021
10.6077
10.0795
9.51984
8.9322
8.32127
7.69294
7.05405
6.41214
5.77497
5.15006
4.54413
3.96262
3.4094
2.88651
2.39418
1.93095
1.49387
1.0788
0.680737
0.294211
-0.0863804
-0.466432
-0.850871
-1.24397
-1.64926
-2.06949
-2.50664
-2.96196
-3.43602
-3.92876
-4.43946
-4.96677
-5.50867
-6.06245
-6.62467
13.6823
13.4414
13.175
12.8815
12.5593
12.2072
11.8242
11.4096
10.9634
10.4862
9.97935
9.445
8.88631
8.30736
7.71308
7.10914
6.50164
5.89684
5.30077
4.71883
4.15546
3.61387
3.09591
2.60199
2.1312
1.68143
1.24958
0.831843
0.42396
0.0215085
-0.379841
-0.784111
-1.19486
-1.61507
-2.0471
-2.49268
-2.95289
-3.42821
-3.9185
-4.42303
-4.94047
-5.46887
-6.00569
-6.54773
13.5456
13.3014
13.0329
12.7387
12.4176
12.0687
11.6913
11.2851
10.8503
10.3875
9.89826
9.38456
8.84925
8.29589
7.72867
7.15234
6.57194
5.99261
5.41927
4.85635
4.30755
3.77557
3.26209
2.76764
2.29169
1.83273
1.38845
0.955914
0.531794
0.112572
-0.305247
-0.724958
-1.14952
-1.58144
-2.02274
-2.47489
-2.93881
-3.41486
-3.90286
-4.40205
-4.91114
-5.42828
-5.95106
-6.47653
13.4336
13.187
12.917
12.6226
12.3028
11.9569
11.5844
11.1853
10.7598
10.3089
9.83383
9.33663
8.81984
8.28658
7.74051
7.18565
6.62628
6.06669
5.51101
4.96295
4.42564
3.90143
3.39184
2.89747
2.41806
1.95254
1.49916
1.05565
0.619369
0.187485
-0.242851
-0.674365
-1.10953
-1.55047
-1.99889
-2.45605
-2.92271
-3.39914
-3.8851
-4.37983
-4.88206
-5.39004
-5.90149
-6.41367
13.3453
13.0969
12.826
12.5316
12.2131
11.8697
11.5013
11.1079
10.6899
10.2482
9.78426
9.29979
8.79718
8.27925
7.74921
7.21059
6.66707
6.12236
5.58001
5.04321
4.51468
3.99652
3.49011
2.99611
2.51443
2.04432
1.58444
1.13299
0.687829
0.24664
-0.192947
-0.63322
-1.07628
-1.52393
-1.97766
-2.43852
-2.90715
-3.38372
-3.86797
-4.35912
-4.85594
-5.35674
-5.85937
-6.36126
13.2798
13.0303
12.7588
12.4647
12.1471
11.8058
11.4405
11.0514
10.6391
10.2043
9.74842
9.27324
8.78094
8.27409
7.7556
7.22864
6.69649
6.16245
5.62966
5.10097
4.57881
4.06508
3.5611
3.06752
2.58441
2.11121
1.64686
1.1899
0.738539
0.290817
-0.155292
-0.601762
-1.05042
-1.50284
-1.96032
-2.42379
-2.89377
-3.37038
-3.8533
-4.34177
-4.83458
-5.3301
-5.82626
-6.32062
13.2366
12.9863
12.7146
12.4206
12.1038
11.7639
11.4007
11.0145
10.6059
10.1756
9.72506
9.25594
8.77032
8.27063
7.75959
7.24014
6.7153
6.18812
5.66148
5.13802
4.61998
4.10916
3.6068
3.11358
2.62964
2.15455
1.68743
1.22702
0.771753
0.319901
-0.130342
-0.580749
-1.03297
-1.48843
-1.94829
-2.4134
-2.88422
-3.3608
-3.84282
-4.32951
-4.81967
-5.31172
-5.80364
-6.29307
13.2154
12.9649
12.6931
12.3993
12.083