/*--------------------------------*- C++ -*----------------------------------*\
  =========                 |
  \\      /  F ield         | OpenFOAM: The Open Source CFD Toolbox
   \\    /   O peration     | Website:  https://openfoam.org
    \\  /    A nd           | Version:  13
     \\/     M anipulation  |
\*---------------------------------------------------------------------------*/
FoamFile
{
    format      ascii;
    class       volScalarField;
    location    "200";
    object      k;
}
// * * * * * * * * * * * * * * * * * * * * * * * * * * * * * * * * * * * * * //

dimensions      [0 2 -2 0 0 0 0];

internalField   nonuniform List<scalar> 
169896
(
0.623748
0.617447
0.611261
0.605187
0.599223
0.593365
0.587611
0.581958
0.576404
0.570946
0.565581
0.560309
0.555125
0.550028
0.545017
0.540088
0.53524
0.530472
0.52578
0.521165
0.516622
0.512152
0.507753
0.503422
0.499158
0.49496
0.490827
0.486756
0.482748
0.478799
0.47491
0.471078
0.467303
0.463584
0.459919
0.456307
0.452747
0.449239
0.44578
0.442371
0.43901
0.435696
0.432429
0.429208
0.426031
0.422898
0.419809
0.416762
0.413757
0.410793
0.40787
0.404986
0.402142
0.399337
0.396569
0.39384
0.391147
0.388491
0.385871
0.383287
0.380738
0.378224
0.375745
0.3733
0.370889
0.368512
0.366168
0.363857
0.361578
0.359332
0.357119
0.354937
0.352787
0.350668
0.623748
0.617446
0.61126
0.605187
0.599222
0.593365
0.587611
0.581958
0.576403
0.570945
0.565581
0.560308
0.555124
0.550028
0.545016
0.540088
0.53524
0.530471
0.52578
0.521164
0.516622
0.512152
0.507752
0.503421
0.499158
0.49496
0.490827
0.486756
0.482748
0.478799
0.47491
0.471078
0.467303
0.463584
0.459919
0.456307
0.452747
0.449239
0.44578
0.442371
0.43901
0.435697
0.43243
0.429208
0.426032
0.422899
0.41981
0.416763
0.413758
0.410795
0.407871
0.404988
0.402144
0.399339
0.396571
0.393842
0.391149
0.388494
0.385874
0.38329
0.380742
0.378228
0.375749
0.373305
0.370894
0.368517
0.366173
0.363862
0.361585
0.359339
0.357126
0.354945
0.352796
0.350677
0.623748
0.617446
0.61126
0.605187
0.599222
0.593365
0.587611
0.581958
0.576403
0.570945
0.565581
0.560308
0.555125
0.550028
0.545016
0.540088
0.53524
0.530472
0.52578
0.521165
0.516623
0.512153
0.507753
0.503422
0.499159
0.494961
0.490828
0.486758
0.482749
0.478801
0.474912
0.471081
0.467306
0.463587
0.459922
0.45631
0.452751
0.449243
0.445785
0.442376
0.439015
0.435702
0.432435
0.429214
0.426038
0.422906
0.419817
0.416771
0.413767
0.410804
0.407881
0.404998
0.402155
0.39935
0.396583
0.393855
0.391163
0.388508
0.385889
0.383306
0.380758
0.378246
0.375768
0.373324
0.370914
0.368538
0.366196
0.363887
0.36161
0.359366
0.357155
0.354975
0.352827
0.350711
0.623748
0.617447
0.611261
0.605187
0.599223
0.593365
0.587611
0.581958
0.576404
0.570946
0.565582
0.560309
0.555126
0.55003
0.545018
0.54009
0.535243
0.530475
0.525784
0.521169
0.516627
0.512158
0.507759
0.503429
0.499166
0.494969
0.490837
0.486768
0.48276
0.478813
0.474924
0.471094
0.467321
0.463602
0.459939
0.456328
0.45277
0.449263
0.445806
0.442399
0.43904
0.435728
0.432463
0.429243
0.426068
0.422938
0.419851
0.416806
0.413803
0.410842
0.407921
0.40504
0.402198
0.399395
0.396631
0.393904
0.391214
0.388561
0.385944
0.383364
0.380818
0.378308
0.375832
0.373391
0.370984
0.368611
0.366271
0.363965
0.361692
0.359451
0.357243
0.355067
0.352923
0.35081
0.623748
0.617447
0.611261
0.605188
0.599224
0.593367
0.587614
0.581962
0.576409
0.570952
0.565589
0.560318
0.555136
0.550042
0.545032
0.540106
0.535261
0.530495
0.525806
0.521193
0.516654
0.512187
0.507791
0.503463
0.499203
0.495009
0.49088
0.486814
0.482809
0.478865
0.47498
0.471153
0.467382
0.463668
0.460007
0.4564
0.452846
0.449342
0.445889
0.442485
0.43913
0.435821
0.43256
0.429344
0.426173
0.423046
0.419963
0.416922
0.413923
0.410966
0.408049
0.405172
0.402334
0.399536
0.396775
0.394052
0.391367
0.388718
0.386106
0.383529
0.380988
0.378483
0.376012
0.373576
0.371173
0.368805
0.366471
0.36417
0.361902
0.359667
0.357465
0.355295
0.353157
0.351052
0.623753
0.617453
0.611269
0.605199
0.599238
0.593384
0.587635
0.581987
0.576439
0.570987
0.565629
0.560364
0.555187
0.550099
0.545095
0.540175
0.535336
0.530577
0.525895
0.521289
0.516756
0.512296
0.507907
0.503586
0.499333
0.495146
0.491024
0.486965
0.482967
0.47903
0.475152
0.471332
0.467569
0.463861
0.460208
0.456608
0.45306
0.449563
0.446117
0.44272
0.439371
0.436069
0.432815
0.429605
0.426441
0.423321
0.420244
0.41721
0.414217
0.411266
0.408356
0.405485
0.402654
0.399861
0.397107
0.394391
0.391712
0.389069
0.386464
0.383894
0.381359
0.37886
0.376396
0.373967
0.371571
0.36921
0.366883
0.364589
0.362329
0.360102
0.357907
0.355746
0.353616
0.351519
0.623762
0.617465
0.611285
0.605219
0.599264
0.593417
0.587675
0.582036
0.576496
0.571054
0.565706
0.56045
0.555285
0.550207
0.545215
0.540306
0.535478
0.530731
0.52606
0.521466
0.516945
0.512497
0.50812
0.503811
0.49957
0.495395
0.491284
0.487237
0.483251
0.479325
0.475458
0.471649
0.467897
0.4642
0.460558
0.456969
0.453431
0.449945
0.446509
0.443122
0.439783
0.436492
0.433246
0.430047
0.426892
0.423781
0.420713
0.417688
0.414704
0.411762
0.40886
0.405998
0.403175
0.40039
0.397644
0.394936
0.392265
0.38963
0.387032
0.38447
0.381943
0.379452
0.376996
0.374574
0.372186
0.369833
0.367514
0.365228
0.362976
0.360757
0.358571
0.356417
0.354296
0.352208
0.623769
0.617474
0.611298
0.605236
0.599286
0.593445
0.58771
0.582079
0.576547
0.571113
0.565775
0.560529
0.555373
0.550306
0.545325
0.540427
0.535612
0.530876
0.526217
0.521635
0.517127
0.512691
0.508326
0.50403
0.499802
0.49564
0.491542
0.487507
0.483534
0.479621
0.475767
0.471971
0.468231
0.464547
0.460917
0.45734
0.453815
0.45034
0.446916
0.443541
0.440214
0.436934
0.4337
0.430512
0.427368
0.424268
0.421211
0.418196
0.415223
0.412291
0.409399
0.406547
0.403734
0.40096
0.398223
0.395524
0.392862
0.390237
0.387648
0.385095
0.382577
0.380095
0.377647
0.375234
0.372855
0.370511
0.3682
0.365923
0.363679
0.361469
0.359292
0.357147
0.355035
0.352956
0.623773
0.61748
0.611305
0.605247
0.5993
0.593463
0.587733
0.582106
0.57658
0.571152
0.56582
0.560581
0.555433
0.550374
0.5454
0.540511
0.535704
0.530976
0.526327
0.521754
0.517256
0.51283
0.508475
0.504189
0.49997
0.495818
0.49173
0.487706
0.483743
0.479841
0.475998
0.472212
0.468483
0.464809
0.46119
0.457623
0.454109
0.450646
0.447232
0.443867
0.440551
0.437281
0.434058
0.430879
0.427746
0.424656
0.421609
0.418604
0.415641
0.412718
0.409836
0.406993
0.40419
0.401425
0.398697
0.396008
0.393355
0.390738
0.388158
0.385614
0.383105
0.380631
0.378192
0.375787
0.373417
0.371081
0.368779
0.366511
0.364276
0.362074
0.359906
0.35777
0.355667
0.353596
0.623776
0.617483
0.61131
0.605253
0.599309
0.593474
0.587747
0.582123
0.5766
0.571176
0.565848
0.560614
0.55547
0.550415
0.545447
0.540563
0.535761
0.53104
0.526396
0.52183
0.517337
0.512918
0.508569
0.50429
0.500078
0.495933
0.491853
0.487835
0.48388
0.479985
0.476149
0.472371
0.46865
0.464984
0.461372
0.457813
0.454307
0.450851
0.447445
0.444088
0.440779
0.437518
0.434302
0.431131
0.428006
0.424923
0.421884
0.418887
0.415931
0.413017
0.410142
0.407307
0.404511
0.401753
0.399033
0.396351
0.393705
0.391096
0.388523
0.385986
0.383484
0.381017
0.378586
0.376188
0.373825
0.371497
0.369202
0.366941
0.364714
0.36252
0.360359
0.358232
0.356137
0.354074
0.623777
0.617485
0.611313
0.605257
0.599314
0.593481
0.587755
0.582133
0.576612
0.571191
0.565865
0.560633
0.555492
0.55044
0.545475
0.540595
0.535796
0.531078
0.526439
0.521876
0.517387
0.512972
0.508627
0.504352
0.500145
0.496005
0.491929
0.487916
0.483965
0.480075
0.476244
0.472471
0.468755
0.465094
0.461487
0.457933
0.454432
0.450981
0.447581
0.444229
0.440925
0.437669
0.434458
0.431293
0.428173
0.425096
0.422062
0.41907
0.41612
0.41321
0.410341
0.407511
0.40472
0.401968
0.399253
0.396576
0.393936
0.391332
0.388765
0.386233
0.383736
0.381275
0.378849
0.376457
0.3741
0.371777
0.369488
0.367233
0.365012
0.362825
0.360671
0.35855
0.356462
0.354407
0.623778
0.617487
0.611315
0.605259
0.599317
0.593485
0.58776
0.582139
0.57662
0.571199
0.565875
0.560645
0.555506
0.550456
0.545493
0.540614
0.535818
0.531102
0.526465
0.521904
0.517418
0.513005
0.508664
0.504391
0.500187
0.496049
0.491976
0.487966
0.484018
0.480131
0.476303
0.472533
0.46882
0.465162
0.461559
0.458008
0.45451
0.451063
0.447665
0.444317
0.441017
0.437764
0.434557
0.431395
0.428278
0.425204
0.422174
0.419185
0.416238
0.413332
0.410466
0.40764
0.404853
0.402104
0.399393
0.396719
0.394082
0.391482
0.388918
0.38639
0.383898
0.38144
0.379018
0.37663
0.374277
0.371959
0.369675
0.367425
0.365209
0.363027
0.360879
0.358764
0.356682
0.354634
0.623779
0.617487
0.611316
0.605261
0.599319
0.593487
0.587763
0.582143
0.576625
0.571205
0.565882
0.560653
0.555515
0.550466
0.545504
0.540627
0.535832
0.531117
0.526482
0.521923
0.517438
0.513027
0.508687
0.504416
0.500213
0.496077
0.492006
0.487998
0.484052
0.480167
0.47634
0.472572
0.468861
0.465205
0.461604
0.458055
0.454559
0.451114
0.447718
0.444372
0.441074
0.437823
0.434618
0.431458
0.428343
0.425272
0.422243
0.419257
0.416312
0.413408
0.410544
0.40772
0.404935
0.402188
0.399479
0.396808
0.394174
0.391576
0.389014
0.386489
0.383999
0.381544
0.379125
0.37674
0.374391
0.372076
0.369795
0.367549
0.365338
0.36316
0.361017
0.358907
0.356831
0.354789
0.623779
0.617488
0.611316
0.605262
0.59932
0.593489
0.587765
0.582146
0.576628
0.571209
0.565886
0.560658
0.555521
0.550473
0.545511
0.540635
0.535841
0.531127
0.526493
0.521934
0.517451
0.513041
0.508701
0.504432
0.50023
0.496095
0.492025
0.488018
0.484073
0.480189
0.476364
0.472597
0.468887
0.465232
0.461632
0.458085
0.45459
0.451146
0.447752
0.444407
0.44111
0.43786
0.434656
0.431498
0.428384
0.425314
0.422286
0.419301
0.416358
0.413455
0.410593
0.40777
0.404986
0.40224
0.399533
0.396863
0.39423
0.391634
0.389074
0.38655
0.384062
0.381609
0.379192
0.37681
0.374463
0.372151
0.369873
0.367631
0.365423
0.363249
0.361111
0.359006
0.356936
0.3549
0.62378
0.617488
0.611317
0.605262
0.599321
0.59349
0.587767
0.582147
0.57663
0.571212
0.565889
0.560661
0.555525
0.550477
0.545516
0.54064
0.535847
0.531134
0.5265
0.521942
0.517459
0.51305
0.508711
0.504442
0.500242
0.496107
0.492038
0.488031
0.484087
0.480204
0.47638
0.472613
0.468904
0.46525
0.46165
0.458104
0.45461
0.451166
0.447773
0.444429
0.441132
0.437883
0.43468
0.431522
0.428409
0.42534
0.422313
0.419329
0.416386
0.413484
0.410622
0.4078
0.405016
0.402272
0.399565
0.396896
0.394264
0.391669
0.38911
0.386587
0.384101
0.38165
0.379234
0.376854
0.374509
0.372199
0.369925
0.367685
0.365481
0.363312
0.361177
0.359078
0.357013
0.354983
0.62378
0.617489
0.611317
0.605263
0.599322
0.593491
0.587768
0.582149
0.576632
0.571213
0.565892
0.560664
0.555527
0.55048
0.54552
0.540644
0.535851
0.531139
0.526505
0.521948
0.517465
0.513056
0.508718
0.504449
0.500249
0.496115
0.492046
0.48804
0.484096
0.480213
0.47639
0.472624
0.468915
0.465261
0.461662
0.458116
0.454622
0.451179
0.447786
0.444442
0.441146
0.437897
0.434695
0.431537
0.428424
0.425355
0.422329
0.419345
0.416402
0.4135
0.410639
0.407817
0.405034
0.40229
0.399584
0.396915
0.394284
0.391689
0.389131
0.386609
0.384124
0.381674
0.37926
0.376881
0.374538
0.372231
0.369959
0.367723
0.365522
0.363357
0.361227
0.359133
0.357074
0.355051
0.62378
0.617489
0.611318
0.605263
0.599322
0.593492
0.587768
0.58215
0.576633
0.571215
0.565893
0.560665
0.555529
0.550482
0.545522
0.540647
0.535854
0.531142
0.526508
0.521951
0.517469
0.51306
0.508722
0.504454
0.500254
0.49612
0.492051
0.488046
0.484102
0.48022
0.476396
0.47263
0.468922
0.465268
0.461669
0.458123
0.45463
0.451187
0.447794
0.44445
0.441154
0.437906
0.434703
0.431546
0.428433
0.425364
0.422337
0.419353
0.416411
0.413509
0.410648
0.407826
0.405043
0.402299
0.399593
0.396925
0.394294
0.3917
0.389142
0.386621
0.384137
0.381688
0.379275
0.376898
0.374557
0.372252
0.369983
0.36775
0.365553
0.363392
0.361267
0.359179
0.357126
0.35511
0.62378
0.617489
0.611318
0.605263
0.599322
0.593492
0.587769
0.58215
0.576633
0.571216
0.565894
0.560667
0.555531
0.550484
0.545524
0.540649
0.535856
0.531144
0.52651
0.521954
0.517472
0.513063
0.508725
0.504457
0.500257
0.496124
0.492055
0.488049
0.484106
0.480223
0.4764
0.472635
0.468926
0.465272
0.461674
0.458128
0.454634
0.451191
0.447798
0.444454
0.441159
0.43791
0.434707
0.43155
0.428437
0.425368
0.422341
0.419357
0.416415
0.413513
0.410651
0.407829
0.405047
0.402303
0.399597
0.396928
0.394298
0.391704
0.389147
0.386627
0.384143
0.381695
0.379283
0.376908
0.374569
0.372267
0.37
0.367771
0.365578
0.363421
0.361302
0.359219
0.357174
0.355165
0.62378
0.617489
0.611318
0.605264
0.599323
0.593492
0.587769
0.582151
0.576634
0.571216
0.565895
0.560667
0.555531
0.550485
0.545525
0.54065
0.535857
0.531145
0.526512
0.521955
0.517473
0.513065
0.508727
0.504459
0.500259
0.496126
0.492057
0.488052
0.484108
0.480226
0.476402
0.472637
0.468928
0.465275
0.461676
0.45813
0.454636
0.451193
0.4478
0.444456
0.44116
0.437911
0.434708
0.431551
0.428438
0.425368
0.422342
0.419357
0.416415
0.413513
0.410651
0.407829
0.405046
0.402302
0.399596
0.396928
0.394297
0.391704
0.389147
0.386627
0.384144
0.381697
0.379287
0.376914
0.374577
0.372277
0.370013
0.367787
0.365599
0.363447
0.361334
0.359258
0.35722
0.35522
0.62378
0.617489
0.611318
0.605264
0.599323
0.593493
0.58777
0.582151
0.576634
0.571217
0.565895
0.560668
0.555532
0.550485
0.545526
0.540651
0.535858
0.531146
0.526513
0.521956
0.517475
0.513066
0.508728
0.50446
0.50026
0.496127
0.492058
0.488053
0.48411
0.480227
0.476403
0.472638
0.468929
0.465276
0.461676
0.45813
0.454636
0.451193
0.4478
0.444456
0.44116
0.437911
0.434708
0.43155
0.428436
0.425367
0.42234
0.419355
0.416412
0.41351
0.410648
0.407826
0.405043
0.402298
0.399592
0.396924
0.394293
0.3917
0.389144
0.386625
0.384142
0.381697
0.379288
0.376916
0.374582
0.372284
0.370024
0.367802
0.365618
0.363472
0.361365
0.359296
0.357266
0.355276
0.62378
0.617489
0.611318
0.605264
0.599323
0.593493
0.58777
0.582151
0.576635
0.571217
0.565896
0.560668
0.555533
0.550486
0.545526
0.540651
0.535859
0.531147
0.526514
0.521957
0.517475
0.513066
0.508729
0.504461
0.500261
0.496127
0.492059
0.488053
0.48411
0.480227
0.476404
0.472638
0.468929
0.465275
0.461676
0.45813
0.454636
0.451193
0.447799
0.444455
0.441158
0.437909
0.434705
0.431547
0.428434
0.425364
0.422336
0.419352
0.416408
0.413505
0.410643
0.407821
0.405037
0.402293
0.399587
0.396918
0.394288
0.391695
0.389139
0.38662
0.384139
0.381694
0.379287
0.376917
0.374585
0.37229
0.370034
0.367816
0.365637
0.363497
0.361396
0.359336
0.357315
0.355335
0.62378
0.617489
0.611318
0.605264
0.599323
0.593493
0.58777
0.582152
0.576635
0.571217
0.565896
0.560669
0.555533
0.550486
0.545527
0.540652
0.535859
0.531147
0.526514
0.521957
0.517476
0.513067
0.508729
0.504461
0.500261
0.496128
0.492059
0.488053
0.48411
0.480227
0.476403
0.472637
0.468928
0.465275
0.461675
0.458129
0.454634
0.451191
0.447797
0.444452
0.441156
0.437906
0.434702
0.431544
0.42843
0.425359
0.422332
0.419346
0.416403
0.4135
0.410637
0.407814
0.405031
0.402286
0.399579
0.396911
0.394281
0.391688
0.389132
0.386614
0.384134
0.38169
0.379285
0.376917
0.374587
0.372295
0.370043
0.367829
0.365656
0.363522
0.361429
0.359377
0.357367
0.355398
0.62378
0.617489
0.611318
0.605264
0.599323
0.593493
0.58777
0.582152
0.576635
0.571217
0.565896
0.560669
0.555533
0.550487
0.545527
0.540652
0.535859
0.531148
0.526514
0.521958
0.517476
0.513067
0.508729
0.504461
0.500261
0.496127
0.492058
0.488053
0.484109
0.480226
0.476402
0.472636
0.468927
0.465273
0.461673
0.458127
0.454632
0.451188
0.447795
0.44445
0.441152
0.437902
0.434698
0.431539
0.428425
0.425354
0.422326
0.419341
0.416396
0.413493
0.41063
0.407807
0.405023
0.402278
0.399571
0.396903
0.394273
0.39168
0.389125
0.386608
0.384128
0.381686
0.379282
0.376916
0.374589
0.372301
0.370052
0.367844
0.365676
0.36355
0.361465
0.359422
0.357423
0.355466
0.62378
0.617489
0.611318
0.605264
0.599323
0.593493
0.58777
0.582152
0.576635
0.571218
0.565896
0.560669
0.555533
0.550487
0.545527
0.540652
0.535859
0.531148
0.526514
0.521958
0.517476
0.513067
0.508729
0.504461
0.500261
0.496127
0.492058
0.488052
0.484108
0.480225
0.476401
0.472635
0.468926
0.465271
0.461671
0.458125
0.45463
0.451186
0.447792
0.444446
0.441149
0.437898
0.434694
0.431535
0.42842
0.425349
0.42232
0.419334
0.41639
0.413486
0.410622
0.407799
0.405015
0.402269
0.399563
0.396894
0.394264
0.391672
0.389117
0.3866
0.384122
0.381681
0.379279
0.376915
0.374591
0.372306
0.370062
0.367859
0.365698
0.363579
0.361503
0.359471
0.357483
0.35554
0.62378
0.617489
0.611318
0.605264
0.599323
0.593493
0.58777
0.582152
0.576635
0.571218
0.565896
0.560669
0.555533
0.550487
0.545527
0.540652
0.535859
0.531148
0.526514
0.521957
0.517475
0.513066
0.508729
0.50446
0.50026
0.496126
0.492057
0.488051
0.484107
0.480224
0.4764
0.472634
0.468924
0.465269
0.461669
0.458122
0.454627
0.451183
0.447788
0.444443
0.441145
0.437894
0.434689
0.431529
0.428414
0.425343
0.422314
0.419327
0.416382
0.413478
0.410614
0.407791
0.405006
0.402261
0.399554
0.396885
0.394255
0.391663
0.389109
0.386593
0.384115
0.381676
0.379276
0.376915
0.374593
0.372313
0.370073
0.367876
0.365721
0.36361
0.361544
0.359523
0.357547
0.355619
0.62378
0.617489
0.611318
0.605264
0.599323
0.593493
0.58777
0.582152
0.576635
0.571218
0.565896
0.560669
0.555533
0.550487
0.545527
0.540652
0.535859
0.531147
0.526514
0.521957
0.517475
0.513066
0.508728
0.50446
0.50026
0.496126
0.492056
0.48805
0.484106
0.480223
0.476398
0.472632
0.468922
0.465267
0.461667
0.45812
0.454624
0.451179
0.447785
0.444439
0.441141
0.437889
0.434684
0.431524
0.428409
0.425337
0.422307
0.41932
0.416375
0.413471
0.410606
0.407782
0.404997
0.402252
0.399545
0.396876
0.394246
0.391654
0.389101
0.386586
0.384109
0.381671
0.379273
0.376914
0.374596
0.37232
0.370085
0.367894
0.365747
0.363644
0.361588
0.359579
0.357617
0.355704
0.62378
0.617489
0.611318
0.605264
0.599323
0.593493
0.58777
0.582152
0.576635
0.571218
0.565897
0.560669
0.555533
0.550487
0.545527
0.540652
0.535859
0.531147
0.526514
0.521957
0.517475
0.513066
0.508728
0.504459
0.500259
0.496125
0.492055
0.488049
0.484105
0.480221
0.476397
0.47263
0.46892
0.465265
0.461664
0.458117
0.454621
0.451176
0.447781
0.444435
0.441136
0.437885
0.434679
0.431519
0.428403
0.42533
0.422301
0.419313
0.416368
0.413463
0.410598
0.407774
0.404989
0.402243
0.399536
0.396867
0.394237
0.391646
0.389093
0.386578
0.384103
0.381667
0.379271
0.376915
0.3746
0.372328
0.370099
0.367914
0.365774
0.363681
0.361635
0.359639
0.357692
0.355795
0.62378
0.617489
0.611318
0.605264
0.599323
0.593493
0.58777
0.582152
0.576635
0.571218
0.565897
0.560669
0.555533
0.550487
0.545527
0.540652
0.535859
0.531147
0.526514
0.521957
0.517474
0.513065
0.508727
0.504459
0.500258
0.496124
0.492054
0.488048
0.484104
0.48022
0.476395
0.472628
0.468918
0.465263
0.461662
0.458114
0.454618
0.451173
0.447777
0.444431
0.441132
0.43788
0.434674
0.431513
0.428397
0.425324
0.422294
0.419307
0.41636
0.413455
0.41059
0.407765
0.40498
0.402234
0.399527
0.396858
0.394229
0.391637
0.389085
0.386571
0.384097
0.381663
0.379269
0.376916
0.374605
0.372337
0.370113
0.367935
0.365803
0.36372
0.361686
0.359702
0.357771
0.355892
0.62378
0.617489
0.611318
0.605264
0.599324
0.593493
0.58777
0.582152
0.576635
0.571218
0.565897
0.560669
0.555533
0.550487
0.545527
0.540652
0.535859
0.531147
0.526513
0.521956
0.517474
0.513065
0.508727
0.504458
0.500257
0.496123
0.492053
0.488047
0.484102
0.480218
0.476393
0.472626
0.468916
0.465261
0.461659
0.458111
0.454615
0.45117
0.447774
0.444427
0.441128
0.437876
0.434669
0.431508
0.428391
0.425318
0.422288
0.4193
0.416353
0.413448
0.410582
0.407757
0.404972
0.402225
0.399518
0.39685
0.39422
0.391629
0.389077
0.386565
0.384092
0.381659
0.379267
0.376917
0.37461
0.372347
0.370129
0.367957
0.365834
0.363761
0.361739
0.35977
0.357855
0.355995
0.62378
0.617489
0.611318
0.605264
0.599324
0.593493
0.58777
0.582152
0.576635
0.571218
0.565896
0.560669
0.555533
0.550487
0.545527
0.540651
0.535859
0.531147
0.526513
0.521956
0.517474
0.513064
0.508726
0.504457
0.500256
0.496122
0.492052
0.488046
0.484101
0.480217
0.476392
0.472624
0.468914
0.465258
0.461657
0.458108
0.454612
0.451166
0.44777
0.444423
0.441124
0.437871
0.434664
0.431503
0.428386
0.425312
0.422282
0.419293
0.416346
0.41344
0.410575
0.407749
0.404963
0.402217
0.39951
0.396841
0.394212
0.391621
0.38907
0.386559
0.384087
0.381656
0.379266
0.376919
0.374616
0.372357
0.370145
0.367981
0.365867
0.363804
0.361794
0.35984
0.357942
0.356102
0.62378
0.617489
0.611318
0.605264
0.599324
0.593493
0.58777
0.582152
0.576635
0.571218
0.565896
0.560669
0.555533
0.550486
0.545526
0.540651
0.535858
0.531146
0.526512
0.521955
0.517473
0.513064
0.508725
0.504456
0.500256
0.496121
0.492051
0.488044
0.4841
0.480215
0.47639
0.472622
0.468912
0.465256
0.461654
0.458106
0.454609
0.451163
0.447767
0.444419
0.44112
0.437867
0.43466
0.431498
0.42838
0.425307
0.422276
0.419287
0.416339
0.413433
0.410567
0.407742
0.404956
0.402209
0.399502
0.396833
0.394204
0.391614
0.389064
0.386553
0.384082
0.381653
0.379266
0.376922
0.374622
0.372368
0.370162
0.368006
0.3659
0.363848
0.361852
0.359912
0.358032
0.356213
0.62378
0.617489
0.611318
0.605264
0.599324
0.593493
0.58777
0.582152
0.576635
0.571218
0.565896
0.560669
0.555533
0.550486
0.545526
0.540651
0.535858
0.531146
0.526512
0.521955
0.517472
0.513063
0.508725
0.504456
0.500255
0.49612
0.49205
0.488043
0.484098
0.480214
0.476388
0.472621
0.46891
0.465254
0.461652
0.458103
0.454606
0.45116
0.447763
0.444416
0.441116
0.437863
0.434655
0.431493
0.428375
0.425301
0.42227
0.419281
0.416333
0.413427
0.410561
0.407735
0.404948
0.402202
0.399494
0.396826
0.394197
0.391607
0.389057
0.386548
0.384079
0.381651
0.379266
0.376925
0.374629
0.37238
0.37018
0.368031
0.365934
0.363893
0.36191
0.359986
0.358125
0.356326
0.62378
0.617489
0.611318
0.605264
0.599324
0.593493
0.58777
0.582152
0.576635
0.571218
0.565896
0.560669
0.555533
0.550486
0.545526
0.540651
0.535858
0.531146
0.526512
0.521954
0.517472
0.513062
0.508724
0.504455
0.500254
0.496119
0.492049
0.488042
0.484097
0.480212
0.476387
0.472619
0.468908
0.465252
0.46165
0.458101
0.454604
0.451157
0.44776
0.444412
0.441112
0.437859
0.434651
0.431489
0.428371
0.425296
0.422265
0.419275
0.416327
0.413421
0.410554
0.407728
0.404942
0.402195
0.399488
0.396819
0.394191
0.391601
0.389052
0.386543
0.384075
0.38165
0.379267
0.376928
0.374636
0.372392
0.370198
0.368056
0.365968
0.363938
0.361968
0.36006
0.358216
0.35644
0.62378
0.617489
0.611318
0.605264
0.599324
0.593493
0.58777
0.582152
0.576635
0.571218
0.565896
0.560669
0.555533
0.550486
0.545526
0.540651
0.535858
0.531145
0.526511
0.521954
0.517472
0.513062
0.508723
0.504454
0.500253
0.496118
0.492048
0.488041
0.484096
0.480211
0.476386
0.472618
0.468906
0.46525
0.461648
0.458099
0.454601
0.451155
0.447758
0.44441
0.441109
0.437855
0.434648
0.431485
0.428367
0.425292
0.42226
0.419271
0.416322
0.413415
0.410549
0.407723
0.404936
0.402189
0.399482
0.396814
0.394185
0.391596
0.389048
0.386539
0.384073
0.381649
0.379268
0.376932
0.374644
0.372404
0.370215
0.36808
0.366001
0.363981
0.362024
0.360131
0.358306
0.356551
0.62378
0.617489
0.611318
0.605264
0.599323
0.593493
0.58777
0.582152
0.576635
0.571217
0.565896
0.560669
0.555533
0.550486
0.545526
0.54065
0.535857
0.531145
0.526511
0.521954
0.517471
0.513061
0.508723
0.504454
0.500253
0.496118
0.492047
0.48804
0.484095
0.48021
0.476384
0.472616
0.468905
0.465248
0.461646
0.458097
0.454599
0.451153
0.447756
0.444407
0.441106
0.437853
0.434645
0.431482
0.428363
0.425288
0.422256
0.419266
0.416318
0.413411
0.410544
0.407718
0.404931
0.402184
0.399477
0.396809
0.39418
0.391592
0.389044
0.386536
0.384071
0.381648
0.379269
0.376936
0.374651
0.372415
0.370232
0.368103
0.366032
0.364022
0.362077
0.360198
0.35839
0.356655
0.62378
0.617489
0.611318
0.605264
0.599323
0.593493
0.58777
0.582152
0.576635
0.571217
0.565896
0.560669
0.555533
0.550486
0.545526
0.54065
0.535857
0.531145
0.526511
0.521954
0.517471
0.513061
0.508722
0.504453
0.500252
0.496117
0.492047
0.488039
0.484094
0.480209
0.476383
0.472615
0.468904
0.465247
0.461645
0.458095
0.454598
0.451151
0.447754
0.444405
0.441104
0.43785
0.434642
0.431479
0.42836
0.425285
0.422253
0.419263
0.416314
0.413407
0.41054
0.407714
0.404927
0.40218
0.399472
0.396805
0.394176
0.391588
0.389041
0.386534
0.384069
0.381648
0.379271
0.37694
0.374658
0.372426
0.370247
0.368124
0.36606
0.364059
0.362125
0.360259
0.358467
0.356751
0.62378
0.617489
0.611318
0.605264
0.599323
0.593493
0.58777
0.582152
0.576635
0.571217
0.565896
0.560669
0.555533
0.550486
0.545525
0.54065
0.535857
0.531145
0.526511
0.521953
0.517471
0.513061
0.508722
0.504453
0.500252
0.496116
0.492046
0.488039
0.484094
0.480209
0.476383
0.472614
0.468903
0.465246
0.461644
0.458094
0.454596
0.451149
0.447752
0.444403
0.441102
0.437848
0.43464
0.431477
0.428358
0.425283
0.42225
0.41926
0.416311
0.413404
0.410537
0.40771
0.404924
0.402177
0.399469
0.396801
0.394173
0.391585
0.389038
0.386532
0.384068
0.381648
0.379273
0.376944
0.374663
0.372435
0.37026
0.368142
0.366084
0.364091
0.362166
0.360312
0.358533
0.356832
0.62378
0.617489
0.611318
0.605264
0.599323
0.593493
0.58777
0.582152
0.576635
0.571217
0.565896
0.560668
0.555532
0.550485
0.545525
0.54065
0.535857
0.531145
0.526511
0.521953
0.51747
0.513061
0.508722
0.504453
0.500251
0.496116
0.492046
0.488038
0.484093
0.480208
0.476382
0.472614
0.468902
0.465245
0.461643
0.458093
0.454595
0.451148
0.447751
0.444402
0.441101
0.437847
0.434638
0.431475
0.428356
0.425281
0.422248
0.419258
0.416309
0.413402
0.410535
0.407708
0.404921
0.402174
0.399467
0.396799
0.394171
0.391583
0.389036
0.386531
0.384068
0.381648
0.379274
0.376946
0.374668
0.372442
0.37027
0.368156
0.366103
0.364116
0.362198
0.360353
0.358585
0.356898
0.62378
0.617489
0.611318
0.605264
0.599323
0.593493
0.58777
0.582152
0.576635
0.571217
0.565896
0.560668
0.555532
0.550485
0.545525
0.54065
0.535857
0.531144
0.52651
0.521953
0.51747
0.51306
0.508722
0.504453
0.500251
0.496116
0.492045
0.488038
0.484093
0.480208
0.476382
0.472613
0.468902
0.465245
0.461642
0.458093
0.454595
0.451148
0.44775
0.444401
0.4411
0.437846
0.434638
0.431474
0.428355
0.42528
0.422247
0.419257
0.416308
0.4134
0.410533
0.407706
0.40492
0.402173
0.399465
0.396798
0.39417
0.391582
0.389036
0.38653
0.384068
0.381649
0.379275
0.376949
0.374672
0.372447
0.370277
0.368166
0.366117
0.364133
0.36222
0.360381
0.358621
0.356942
0.599323
0.593493
0.58777
0.582152
0.576635
0.571217
0.565896
0.560668
0.555532
0.550485
0.545525
0.54065
0.535857
0.531144
0.52651
0.521953
0.51747
0.51306
0.508722
0.504452
0.500251
0.496116
0.492045
0.488038
0.484093
0.480208
0.476382
0.472613
0.468901
0.465245
0.461642
0.458092
0.454595
0.451147
0.44775
0.444401
0.4411
0.437845
0.434637
0.431474
0.428355
0.425279
0.422246
0.419256
0.416307
0.413399
0.410532
0.407706
0.404919
0.402172
0.399464
0.396797
0.394169
0.391582
0.389035
0.38653
0.384067
0.381649
0.379275
0.376949
0.374673
0.372449
0.37028
0.36817
0.366123
0.364142
0.362231
0.360396
0.358639
0.356965
0.368169
0.366122
0.364141
0.36223
0.360394
0.368162
0.366112
0.364129
0.362216
0.360377
0.623748
0.617447
0.611261
0.605187
0.599223
0.593365
0.587611
0.581958
0.576404
0.570946
0.565582
0.560309
0.555125
0.550029
0.545017
0.540089
0.535241
0.530473
0.525782
0.521166
0.516624
0.512154
0.507754
0.503424
0.49916
0.494963
0.490829
0.486759
0.482751
0.478803
0.474914
0.471082
0.467308
0.463589
0.459924
0.456312
0.452753
0.449245
0.445787
0.442378
0.439017
0.435704
0.432438
0.429217
0.42604
0.422908
0.419819
0.416773
0.413769
0.410805
0.407882
0.404999
0.402155
0.39935
0.396583
0.393854
0.391161
0.388505
0.385886
0.383301
0.380753
0.378238
0.375759
0.373313
0.370902
0.368523
0.366178
0.363866
0.361586
0.359338
0.357122
0.354938
0.352786
0.350664
0.623748
0.617447
0.611261
0.605187
0.599222
0.593365
0.587611
0.581958
0.576404
0.570946
0.565581
0.560309
0.555125
0.550028
0.545017
0.540088
0.535241
0.530472
0.525781
0.521165
0.516623
0.512154
0.507754
0.503423
0.49916
0.494962
0.490829
0.486759
0.482751
0.478803
0.474914
0.471082
0.467308
0.463589
0.459924
0.456312
0.452753
0.449245
0.445787
0.442378
0.439018
0.435705
0.432438
0.429217
0.426041
0.422909
0.41982
0.416774
0.41377
0.410806
0.407884
0.405001
0.402157
0.399352
0.396585
0.393856
0.391164
0.388508
0.385889
0.383305
0.380756
0.378242
0.375763
0.373318
0.370906
0.368528
0.366183
0.363871
0.361592
0.359345
0.35713
0.354946
0.352794
0.350673
0.623748
0.617447
0.611261
0.605187
0.599222
0.593365
0.587611
0.581958
0.576404
0.570946
0.565581
0.560309
0.555125
0.550029
0.545017
0.540089
0.535241
0.530473
0.525782
0.521166
0.516624
0.512154
0.507755
0.503424
0.499161
0.494964
0.490831
0.486761
0.482752
0.478804
0.474916
0.471085
0.46731
0.463591
0.459927
0.456316
0.452757
0.449249
0.445791
0.442383
0.439023
0.43571
0.432444
0.429223
0.426048
0.422916
0.419828
0.416782
0.413778
0.410815
0.407893
0.405011
0.402168
0.399363
0.396597
0.393869
0.391177
0.388522
0.385903
0.38332
0.380772
0.37826
0.375781
0.373337
0.370926
0.36855
0.366206
0.363895
0.361617
0.359371
0.357158
0.354976
0.352825
0.350706
0.623748
0.617447
0.611261
0.605187
0.599223
0.593365
0.587611
0.581958
0.576404
0.570946
0.565582
0.56031
0.555126
0.55003
0.545019
0.540091
0.535244
0.530476
0.525785
0.52117
0.516629
0.512159
0.507761
0.503431
0.499168
0.494972
0.49084
0.48677
0.482763
0.478816
0.474928
0.471098
0.467325
0.463607
0.459944
0.456334
0.452776
0.449269
0.445813
0.442406
0.439047
0.435736
0.432471
0.429252
0.426078
0.422948
0.419861
0.416817
0.413815
0.410854
0.407933
0.405053
0.402211
0.399409
0.396645
0.393918
0.391228
0.388575
0.385959
0.383378
0.380832
0.378322
0.375846
0.373404
0.370996
0.368622
0.366281
0.363973
0.361698
0.359455
0.357245
0.355066
0.352919
0.350804
0.623748
0.617447
0.611261
0.605188
0.599224
0.593367
0.587614
0.581962
0.576409
0.570952
0.56559
0.560318
0.555137
0.550042
0.545033
0.540107
0.535261
0.530496
0.525807
0.521194
0.516655
0.512189
0.507792
0.503465
0.499205
0.495012
0.490882
0.486816
0.482812
0.478868
0.474984
0.471157
0.467387
0.463672
0.460012
0.456406
0.452852
0.449349