/*--------------------------------*- C++ -*----------------------------------*\
  =========                 |
  \\      /  F ield         | OpenFOAM: The Open Source CFD Toolbox
   \\    /   O peration     | Website:  https://openfoam.org
    \\  /    A nd           | Version:  13
     \\/     M anipulation  |
\*---------------------------------------------------------------------------*/
FoamFile
{
    format      ascii;
    class       volScalarField;
    location    "200";
    object      p;
}
// * * * * * * * * * * * * * * * * * * * * * * * * * * * * * * * * * * * * * //

dimensions      [0 2 -2 0 0 0 0];

internalField   nonuniform List<scalar> 
169896
(
13.8234
13.8232
13.8228
13.822
13.821
13.8197
13.8181
13.8163
13.8142
13.8118
13.8091
13.8061
13.8027
13.799
13.7949
13.7903
13.7853
13.7799
13.7739
13.7674
13.7603
13.7525
13.7441
13.7349
13.7249
13.7141
13.7024
13.6896
13.6758
13.6609
13.6447
13.6271
13.6082
13.5877
13.5655
13.5415
13.5156
13.4876
13.4574
13.4248
13.3895
13.3515
13.3106
13.2665
13.2189
13.1678
13.1127
13.0535
12.9899
12.9216
12.8482
12.7696
12.6853
12.595
12.4985
12.3953
12.2851
12.1675
12.0422
11.9088
11.767
11.6165
11.4568
11.2878
11.1091
10.9205
10.7217
10.5126
10.2931
10.063
9.82219
9.57073
9.30861
9.03586
13.8237
13.8235
13.823
13.8223
13.8212
13.82
13.8184
13.8166
13.8145
13.8121
13.8094
13.8064
13.8031
13.7994
13.7953
13.7908
13.7858
13.7804
13.7745
13.768
13.7609
13.7532
13.7448
13.7357
13.7258
13.715
13.7033
13.6907
13.6769
13.662
13.6459
13.6285
13.6097
13.5893
13.5672
13.5434
13.5176
13.4897
13.4596
13.4272
13.3921
13.3543
13.3136
13.2696
13.2223
13.1714
13.1166
13.0576
12.9943
12.9262
12.8532
12.7748
12.6908
12.6009
12.5047
12.4018
12.292
12.1747
12.0498
11.9168
11.7753
11.6251
11.4658
11.2971
11.1187
10.9304
10.7319
10.523
10.3037
10.0738
9.83315
9.58181
9.31979
9.04709
13.8242
13.824
13.8235
13.8228
13.8218
13.8205
13.819
13.8172
13.8151
13.8127
13.8101
13.8071
13.8038
13.8001
13.7961
13.7916
13.7868
13.7814
13.7755
13.7691
13.7621
13.7545
13.7462
13.7372
13.7274
13.7168
13.7052
13.6927
13.6791
13.6644
13.6485
13.6312
13.6126
13.5924
13.5706
13.547
13.5215
13.4939
13.4641
13.432
13.3973
13.3598
13.3195
13.2759
13.2291
13.1786
13.1243
13.0658
13.003
12.9355
12.863
12.7853
12.7019
12.6126
12.5171
12.4149
12.3057
12.1892
12.065
11.9327
11.792
11.6425
11.4838
11.3158
11.138
10.9503
10.7524
10.5441
10.3252
10.0957
9.85541
9.60436
9.34256
9.07
13.8249
13.8247
13.8242
13.8235
13.8225
13.8213
13.8198
13.818
13.816
13.8136
13.811
13.8081
13.8049
13.8013
13.7973
13.7929
13.7881
13.7829
13.7771
13.7708
13.764
13.7565
13.7483
13.7395
13.7298
13.7194
13.708
13.6957
13.6824
13.6679
13.6522
13.6353
13.6169
13.5971
13.5756
13.5524
13.5273
13.5001
13.4708
13.4391
13.405
13.3681
13.3283
13.2854
13.2392
13.1894
13.1358
13.0781
13.016
12.9494
12.8778
12.8009
12.7185
12.6302
12.5357
12.4345
12.3264
12.211
12.0878
11.9566
11.8169
11.6685
11.5109
11.3438
11.167
10.9802
10.7832
10.5757
10.3575
10.1287
9.88893
9.63831
9.37683
9.1045
13.8258
13.8257
13.8252
13.8245
13.8235
13.8223
13.8209
13.8191
13.8171
13.8149
13.8123
13.8095
13.8063
13.8028
13.7989
13.7947
13.79
13.7849
13.7792
13.7731
13.7664
13.7591
13.7511
13.7425
13.7331
13.7229
13.7118
13.6997
13.6867
13.6725
13.6572
13.6406
13.6227
13.6033
13.5823
13.5595
13.535
13.5084
13.4797
13.4486
13.4151
13.379
13.34
13.2979
13.2525
13.2036
13.151
13.0943
13.0334
12.9678
12.8974
12.8218
12.7406
12.6536
12.5604
12.4606
12.3539
12.2399
12.1181
11.9884
11.8502
11.7031
11.5469
11.3812
11.2058
11.0202
10.8243
10.6179
10.4008
10.1728
9.93377
9.68377
9.42276
9.15076
13.827
13.8269
13.8264
13.8257
13.8248
13.8236
13.8222
13.8205
13.8186
13.8164
13.8139
13.8112
13.8081
13.8047
13.801
13.7968
13.7923
13.7873
13.7818
13.7759
13.7694
13.7623
13.7546
13.7462
13.7371
13.7272
13.7164
13.7047
13.692
13.6783
13.6634
13.6473
13.6298
13.611
13.5905
13.5684
13.5445
13.5186
13.4906
13.4604
13.4278
13.3925
13.3545
13.3134
13.2691
13.2214
13.1699
13.1145
13.0549
12.9907
12.9218
12.8476
12.7681
12.6827
12.5911
12.4931
12.3881
12.2759
12.156
12.028
11.8916
11.7464
11.5919
11.428
11.2541
11.0702
10.8758
10.6708
10.4549
10.228
9.99
9.7408
9.48042
9.20887
13.8284
13.8283
13.8279
13.8272
13.8263
13.8252
13.8238
13.8222
13.8203
13.8182
13.8158
13.8132
13.8102
13.807
13.8033
13.7994
13.795
13.7902
13.785
13.7792
13.773
13.7661
13.7587
13.7506
13.7418
13.7323
13.7219
13.7106
13.6984
13.6851
13.6708
13.6552
13.6383
13.6201
13.6003
13.5789
13.5558
13.5308
13.5037
13.4744
13.4428
13.4086
13.3717
13.3319
13.2889
13.2425
13.1925
13.1386
13.0805
13.018
12.9508
12.8785
12.8008
12.7173
12.6278
12.5318
12.429
12.3189
12.2011
12.0754
11.9412
11.7981
11.6459
11.484
11.3122
11.1302
10.9376
10.7343
10.52
10.2945
10.0577
9.80951
9.54994
9.27898
13.8301
13.8299
13.8295
13.8289
13.828
13.8269
13.8256
13.8241
13.8223
13.8203
13.818
13.8155
13.8127
13.8095
13.8061
13.8023
13.7981
13.7935
13.7885
13.783
13.7771
13.7705
13.7634
13.7557
13.7473
13.7381
13.7282
13.7174
13.7057
13.693
13.6792
13.6643
13.6481
13.6306
13.6116
13.5911
13.5689
13.5448
13.5188
13.4906
13.4601
13.4272
13.3916
13.3532
13.3117
13.2669
13.2185
13.1664
13.1102
13.0496
12.9844
12.9142
12.8387
12.7575
12.6703
12.5767
12.4764
12.3688
12.2536
12.1305
11.9988
11.8584
11.7086
11.5493
11.3799
11.2002
11.0098
10.8086
10.5961
10.3723
10.137
9.89007
9.6315
9.36131
13.8319
13.8317
13.8314
13.8308
13.83
13.8289
13.8277
13.8262
13.8245
13.8226
13.8205
13.8181
13.8154
13.8125
13.8092
13.8056
13.8016
13.7973
13.7926
13.7874
13.7817
13.7755
13.7688
13.7614
13.7534
13.7448
13.7353
13.7251
13.7139
13.7018
13.6887
13.6745
13.6591
13.6425
13.6244
13.6048
13.5836
13.5606
13.5357
13.5088
13.4797
13.4482
13.4141
13.3772
13.3374
13.2944
13.2479
13.1978
13.1437
13.0853
13.0224
12.9546
12.8816
12.803
12.7185
12.6277
12.5302
12.4255
12.3133
12.1931
12.0645
11.927
11.7802
11.6238
11.4572
11.2802
11.0924
10.8936
10.6834
10.4616
10.2281
9.98265
9.72532
9.45609
13.8339
13.8338
13.8334
13.8329
13.8321
13.8311
13.8299
13.8286
13.827
13.8252
13.8232
13.8209
13.8184
13.8157
13.8126
13.8092
13.8055
13.8015
13.797
13.7921
13.7868
13.781
13.7747
13.7678
13.7602
13.7521
13.7432
13.7335
13.723
13.7116
13.6993
13.6859
13.6714
13.6556
13.6385
13.62
13.5999
13.5781
13.5546
13.529
13.5014
13.4714
13.439
13.4039
13.366
13.325
13.2806
13.2327
13.1809
13.125
13.0647
12.9996
12.9294
12.8538
12.7723
12.6846
12.5903
12.4889
12.38
12.2632
12.138
12.0039
11.8606
11.7074
11.5441
11.3702
11.1855
10.9894
10.7819
10.5625
10.331
10.0874
9.83158
9.56353
13.8361
13.836
13.8357
13.8351
13.8344
13.8335
13.8324
13.8311
13.8297
13.828
13.8261
13.8241
13.8217
13.8192
13.8163
13.8132
13.8098
13.806
13.8018
13.7973
13.7924
13.787
13.7811
13.7747
13.7677
13.7601
13.7518
13.7428
13.733
13.7223
13.7108
13.6983
13.6847
13.6699
13.6539
13.6366
13.6177
13.5973
13.5751
13.5511
13.5251
13.4968
13.4663
13.4332
13.3973
13.3585
13.3164
13.271
13.2218
13.1686
13.1111
13.049
12.9819
12.9095
12.8314
12.7472
12.6565
12.5588
12.4536
12.3406
12.2193
12.089
11.9495
11.8001
11.6405
11.4702
11.2889
11.0961
10.8915
10.6749
10.4459
10.2044
9.95044
9.68385
13.8385
13.8384
13.8381
13.8376
13.8369
13.8361
13.8351
13.8339
13.8326
13.831
13.8293
13.8274
13.8253
13.8229
13.8203
13.8175
13.8143
13.8109
13.8071
13.8029
13.7984
13.7934
13.788
13.7821
13.7757
13.7686
13.761
13.7527
13.7437
13.7339
13.7232
13.7116
13.699
13.6854
13.6705
13.6544
13.6369
13.6179
13.5973
13.5749
13.5507
13.5243
13.4957
13.4647
13.4311
13.3947
13.3552
13.3124
13.266
13.2158
13.1614
13.1026
13.0389
12.9701
12.8957
12.8153
12.7285
12.6349
12.5339
12.4251
12.308
12.1821
12.0468
11.9016
11.7462
11.58
11.4025
11.2135
11.0124
10.7989
10.5728
10.3339
10.0821
9.81725
13.841
13.8409
13.8406
13.8402
13.8396
13.8388
13.8379
13.8368
13.8356
13.8343
13.8327
13.831
13.8291
13.827
13.8246
13.822
13.8192
13.8161
13.8126
13.8089
13.8047
13.8003
13.7953
13.79
13.7842
13.7778
13.7709
13.7633
13.7551
13.7461
13.7364
13.7258
13.7143
13.7018
13.6883
13.6735
13.6574
13.64
13.621
13.6004
13.578
13.5536
13.5272
13.4985
13.4673
13.4334
13.3966
13.3567
13.3134
13.2664
13.2154
13.1601
13.1002
13.0352
12.9648
12.8886
12.8062
12.717
12.6206
12.5164
12.404
12.2828
12.1523
12.0119
11.8611
11.6994
11.5264
11.3415
11.1444
10.9346
10.7118
10.4759
10.2266
9.9639
13.8436
13.8435
13.8433
13.8429
13.8424
13.8417
13.8409
13.84
13.8389
13.8376
13.8363
13.8348
13.8331
13.8312
13.8291
13.8268
13.8243
13.8215
13.8185
13.8151
13.8115
13.8075
13.8031
13.7983
13.7931
13.7875
13.7813
13.7745
13.7671
13.7591
13.7504
13.7409
13.7305
13.7192
13.707
13.6936
13.6791
13.6633
13.6461
13.6273
13.6069
13.5847
13.5606
13.5343
13.5056
13.4745
13.4406
13.4038
13.3637
13.3202
13.2728
13.2213
13.1654
13.1046
13.0386
12.9669
12.8891
12.8048
12.7133
12.6143
12.507
12.391
12.2657
12.1306
11.9849
11.8283
11.6602
11.4801
11.2874
11.0818
10.8629
10.6303
10.3841
10.124
13.8464
13.8463
13.8461
13.8458
13.8453
13.8447
13.844
13.8432
13.8423
13.8412
13.84
13.8387
13.8372
13.8356
13.8338
13.8318
13.8296
13.8272
13.8246
13.8217
13.8185
13.815
13.8112
13.8071
13.8025
13.7976
13.7921
13.7862
13.7797
13.7727
13.765
13.7566
13.7475
13.7375
13.7266
13.7148
13.7018
13.6877
13.6724
13.6556
13.6373
13.6173
13.5956
13.5719
13.546
13.5178
13.487
13.4534
13.4168
13.3769
13.3334
13.286
13.2343
13.178
13.1167
13.0498
12.9771
12.898
12.8119
12.7183
12.6167
12.5064
12.3868
12.2574
12.1175
11.9665
11.8038
11.629
11.4413
11.2405
11.0259
10.7974
10.5546
10.2976
13.8493
13.8492
13.849
13.8487
13.8483
13.8478
13.8473
13.8466
13.8458
13.8449
13.8439
13.8428
13.8416
13.8402
13.8387
13.837
13.8352
13.8332
13.831
13.8285
13.8258
13.8229
13.8197
13.8162
13.8123
13.8081
13.8034
13.7984
13.7928
13.7868
13.7802
13.7729
13.7651
13.7564
13.747
13.7367
13.7255
13.7132
13.6997
13.685
13.669
13.6514
13.6321
13.6111
13.5881
13.5629
13.5354
13.5052
13.4723
13.4363
13.3969
13.3537
13.3066
13.255
13.1987
13.1371
13.0697
12.9962
12.9159
12.8282
12.7327
12.6285
12.5152
12.392
12.2584
12.1136
11.957
11.788
11.606
11.4104
11.2008
10.9768
10.7382
10.4848
13.8522
13.8522
13.852
13.8518
13.8515
13.8511
13.8506
13.85
13.8494
13.8487
13.8479
13.847
13.846
13.8449
13.8437
13.8424
13.8409
13.8393
13.8375
13.8355
13.8334
13.831
13.8284
13.8255
13.8223
13.8189
13.8151
13.8109
13.8063
13.8013
13.7958
13.7898
13.7832
13.776
13.7681
13.7594
13.7499
13.7395
13.7281
13.7155
13.7017
13.6866
13.6699
13.6517
13.6317
13.6097
13.5856
13.5591
13.5299
13.498
13.4629
13.4243
13.3819
13.3354
13.2843
13.2282
13.1666
13.099
13.0248
12.9435
12.8545
12.757
12.6504
12.534
12.4072
12.2691
12.1192
11.9567
11.7809
11.5914
11.3874
11.1686
10.9347
10.6855
13.8553
13.8552
13.8551
13.8549
13.8547
13.8544
13.854
13.8536
13.8531
13.8525
13.8519
13.8513
13.8506
13.8497
13.8489
13.8479
13.8468
13.8455
13.8442
13.8427
13.8411
13.8393
13.8373
13.8351
13.8326
13.83
13.827
13.8237
13.8202
13.8162
13.8119
13.8071
13.8019
13.7961
13.7897
13.7827
13.775
13.7665
13.7571
13.7468
13.7353
13.7227
13.7088
13.6935
13.6766
13.6579
13.6373
13.6146
13.5894
13.5617
13.531
13.4972
13.4599
13.4186
13.373
13.3227
13.2672
13.2059
13.1383
13.0638
12.9817
12.8913
12.792
12.6829
12.5634
12.4327
12.2901
12.1347
11.9659
11.7829
11.5852
11.3723
11.1438
10.8995
13.8583
13.8583
13.8582
13.8581
13.8579
13.8577
13.8575
13.8572
13.8568
13.8565
13.8561
13.8557
13.8552
13.8547
13.8541
13.8534
13.8527
13.8519
13.851
13.85
13.8489
13.8477
13.8463
13.8448
13.8431
13.8412
13.8391
13.8368
13.8342
13.8314
13.8282
13.8247
13.8209
13.8166
13.8118
13.8065
13.8006
13.794
13.7868
13.7787
13.7697
13.7597
13.7486
13.7363
13.7225
13.7073
13.6903
13.6714
13.6504
13.6271
13.6011
13.5722
13.54
13.5043
13.4645
13.4202
13.3711
13.3164
13.2557
13.1884
13.1137
13.0309
12.9393
12.8381
12.7266
12.6038
12.469
12.3214
12.1602
11.9846
11.7939
11.5875
11.3652
11.1265
13.8614
13.8614
13.8614
13.8613
13.8612
13.8611
13.8609
13.8608
13.8606
13.8604
13.8603
13.8601
13.8599
13.8596
13.8594
13.8591
13.8587
13.8583
13.8579
13.8574
13.8568
13.8562
13.8555
13.8546
13.8537
13.8526
13.8514
13.85
13.8485
13.8467
13.8448
13.8426
13.8401
13.8373
13.8341
13.8305
13.8265
13.8219
13.8168
13.8111
13.8045
13.7972
13.789
13.7797
13.7692
13.7574
13.7442
13.7293
13.7126
13.6937
13.6725
13.6487
13.622
13.5919
13.5582
13.5203
13.4777
13.43
13.3766
13.3167
13.2498
13.1751
13.0917
12.9989
12.8959
12.7816
12.6554
12.5163
12.3633
12.1957
12.0128
11.8138
11.5983
11.3661
13.8645
13.8645
13.8645
13.8645
13.8645
13.8645
13.8644
13.8644
13.8644
13.8644
13.8645
13.8645
13.8645
13.8646
13.8646
13.8647
13.8647
13.8648
13.8648
13.8648
13.8648
13.8647
13.8646
13.8645
13.8643
13.8641
13.8637
13.8633
13.8628
13.8622
13.8614
13.8605
13.8594
13.8581
13.8565
13.8547
13.8526
13.8501
13.8471
13.8437
13.8397
13.8351
13.8297
13.8235
13.8164
13.8082
13.7987
13.7879
13.7755
13.7613
13.745
13.7265
13.7053
13.6811
13.6535
13.6222
13.5865
13.5461
13.5002
13.4482
13.3895
13.3232
13.2485
13.1646
13.0706
12.9655
12.8484
12.7183
12.5744
12.4156
12.2411
12.0502
11.8425
11.6174
13.8676
13.8676
13.8677
13.8677
13.8678
13.8678
13.8679
13.8681
13.8682
13.8684
13.8686
13.8689
13.8692
13.8696
13.8699
13.8703
13.8708
13.8712
13.8717
13.8722
13.8727
13.8732
13.8738
13.8744
13.8749
13.8755
13.8761
13.8766
13.8771
13.8776
13.878
13.8784
13.8787
13.8789
13.879
13.8789
13.8787
13.8782
13.8775
13.8764
13.8749
13.873
13.8706
13.8675
13.8637
13.8591
13.8536
13.8469
13.8389
13.8293
13.8181
13.8049
13.7893
13.7712
13.75
13.7254
13.6969
13.6639
13.6259
13.5821
13.5319
13.4744
13.4088
13.3343
13.2498
13.1544
13.0471
12.9268
12.7925
12.6431
12.4779
12.296
12.0967
11.8798
13.8707
13.8707
13.8708
13.8709
13.871
13.8712
13.8714
13.8717
13.872
13.8723
13.8728
13.8733
13.8738
13.8745
13.8752
13.8759
13.8767
13.8776
13.8785
13.8795
13.8806
13.8817
13.8829
13.8841
13.8855
13.8868
13.8883
13.8898
13.8913
13.8929
13.8945
13.8962
13.8979
13.8996
13.9013
13.903
13.9047
13.9062
13.9076
13.9089
13.91
13.9108
13.9113
13.9114
13.911
13.91
13.9083
13.9058
13.9022
13.8975
13.8913
13.8835
13.8737
13.8617
13.8471
13.8294
13.8081
13.7828
13.7528
13.7175
13.6761
13.6278
13.5718
13.507
13.4326
13.3474
13.2504
13.1404
13.0165
12.8774
12.7221
12.5499
12.36
12.152
13.8737
13.8738
13.8739
13.874
13.8742
13.8745
13.8748
13.8752
13.8757
13.8762
13.8769
13.8776
13.8784
13.8793
13.8803
13.8814
13.8826
13.8839
13.8852
13.8867
13.8883
13.89
13.8918
13.8938
13.8958
13.898
13.9003
13.9027
13.9053
13.908
13.9108
13.9138
13.9169
13.9201
13.9234
13.9268
13.9303
13.9339
13.9375
13.9411
13.9447
13.9482
13.9516
13.9549
13.9579
13.9605
13.9627
13.9643
13.9652
13.9652
13.9642
13.9618
13.9579
13.9521
13.944
13.9333
13.9195
13.902
13.8803
13.8537
13.8214
13.7826
13.7364
13.6818
13.6178
13.5433
13.4572
13.3582
13.2452
13.117
12.9724
12.8107
12.631
12.4328
13.8767
13.8767
13.8769
13.8771
13.8773
13.8777
13.8781
13.8787
13.8793
13.88
13.8808
13.8818
13.8829
13.884
13.8853
13.8868
13.8883
13.89
13.8918
13.8938
13.8959
13.8982
13.9006
13.9032
13.906
13.909
13.9121
13.9155
13.919
13.9228
13.9268
13.931
13.9354
13.9401
13.945
13.9501
13.9555
13.9611
13.9668
13.9727
13.9788
13.985
13.9913
13.9977
14.004
14.0102
14.0163
14.022
14.0274
14.0322
14.0363
14.0394
14.0413
14.0417
14.0403
14.0366
14.0303
14.0208
14.0075
13.9897
13.9667
13.9376
13.9015
13.8574
13.8043
13.7409
13.6661
13.5786
13.4771
13.3604
13.2273
13.0768
12.908
12.7204
13.8795
13.8796
13.8798
13.88
13.8804
13.8808
13.8814
13.882
13.8828
13.8837
13.8847
13.8859
13.8872
13.8886
13.8902
13.892
13.8939
13.896
13.8982
13.9007
13.9033
13.9061
13.9091
13.9124
13.9159
13.9196
13.9236
13.9278
13.9324
13.9372
13.9423
13.9477
13.9535
13.9596
13.9661
13.9729
13.98
13.9876
13.9954
14.0036
14.0121
14.021
14.0301
14.0395
14.0491
14.0589
14.0687
14.0786
14.0884
14.0979
14.107
14.1155
14.1233
14.1299
14.1351
14.1386
14.1398
14.1382
14.1334
14.1246
14.111
14.0918
14.066
14.0327
13.9907
13.9387
13.8757
13.8001
13.7107
13.6061
13.485
13.3463
13.1893
13.0131
13.8823
13.8824
13.8826
13.8829
13.8833
13.8838
13.8845
13.8853
13.8862
13.8872
13.8885
13.8898
13.8914
13.8931
13.895
13.897
13.8993
13.9017
13.9044
13.9073
13.9104
13.9138
13.9174
13.9213
13.9254
13.9299
13.9347
13.9398
13.9453
13.9511
13.9573
13.964
13.971
13.9785
13.9865
13.9949
14.0038
14.0132
14.0231
14.0335
14.0444
14.0558
14.0677
14.0801
14.0929
14.1061
14.1197
14.1336
14.1477
14.1618
14.176
14.1898
14.2033
14.2161
14.2279
14.2384
14.2471
14.2535
14.2571
14.2573
14.2532
14.2439
14.2286
14.2062
14.1756
14.1354
14.0844
14.0211
13.9442
13.8521
13.7436
13.6174
13.4727
13.3087
13.8849
13.885
13.8853
13.8856
13.8861
13.8867
13.8875
13.8884
13.8894
13.8906
13.892
13.8936
13.8954
13.8973
13.8995
13.9018
13.9044
13.9073
13.9103
13.9136
13.9172
13.9211
13.9252
13.9297
13.9346
13.9397
13.9453
13.9512
13.9576
13.9644
13.9717
13.9795
13.9878
13.9966
14.006
14.016
14.0266
14.0378
14.0497
14.0622
14.0754
14.0893
14.1039
14.1191
14.1351
14.1517
14.1689
14.1867
14.2049
14.2236
14.2426
14.2617
14.2808
14.2996
14.3179
14.3353
14.3514
14.3657
14.3777
14.3868
14.3921
14.3929
14.3881
14.3767
14.3575
14.3292
14.2905
14.2398
14.1756
14.0965
14.0009
13.8877
13.7559
13.6047
13.8874
13.8875
13.8878
13.8882
13.8888
13.8895
13.8903
13.8913
13.8925
13.8939
13.8954
13.8972
13.8992
13.9013
13.9038
13.9064
13.9093
13.9125
13.9159
13.9196
13.9237
13.928
13.9327
13.9378
13.9432
13.9491
13.9554
13.9621
13.9694
13.9771
13.9854
13.9943
14.0037
14.0138
14.0246
14.0361
14.0483
14.0613
14.075
14.0896
14.105
14.1212
14.1384
14.1564
14.1753
14.1952
14.2158
14.2374
14.2597
14.2827
14.3064
14.3306
14.3551
14.3798
14.4044
14.4285
14.4519
14.4739
14.4942
14.5121
14.5268
14.5374
14.5431
14.5426
14.5349
14.5186
14.4922
14.4542
14.403
14.337
14.2547
14.1548
14.0362
13.8982
13.8898
13.8899
13.8902
13.8906
13.8913
13.892
13.8929
13.8941
13.8954
13.8969
13.8986
13.9005
13.9027
13.9051
13.9078
13.9107
13.9139
13.9174
13.9212
13.9253
13.9297
13.9346
13.9398
13.9454
13.9514
13.9579
13.9649
13.9724
13.9804
13.989
13.9983
14.0082
14.0187
14.0301
14.0421
14.055
14.0688
14.0834
14.0989
14.1154
14.1329
14.1514
14.171
14.1916
14.2134
14.2363
14.2603
14.2854
14.3116
14.3388
14.367
14.396
14.4258
14.4561
14.4867
14.5174
14.5477
14.5773
14.6056
14.632
14.6558
14.6761
14.6921
14.7024
14.7061
14.7016
14.6875
14.6622
14.624
14.5713
14.5024
14.4159
14.3109
14.1865
13.892
13.8921
13.8924
13.8929
13.8936
13.8944
13.8954
13.8966
13.898
13.8997
13.9016
13.9037
13.906
13.9086
13.9115
13.9147
13.9182
13.922
13.9261
13.9306
13.9354
13.9406
13.9463
13.9524
13.959
13.9661
13.9737
13.9819
13.9907
14.0001
14.0103
14.0211
14.0327
14.0452
14.0585
14.0727
14.0878
14.104
14.1212
14.1395
14.1589
14.1795
14.2014
14.2245
14.2489
14.2747
14.3018
14.3303
14.3602
14.3913
14.4238
14.4574
14.4921
14.5278
14.5642
14.601
14.638
14.6748
14.7108
14.7455
14.7781
14.8078
14.8336
14.8545
14.8692
14.8764
14.8744
14.8616
14.8363
14.7967
14.7412
14.6682
14.5767
14.4659
13.894
13.8941
13.8944
13.895
13.8957
13.8966
13.8977
13.899
13.9005
13.9023
13.9043
13.9065
13.9091
13.9119
13.915
13.9184
13.9221
13.9262
13.9306
13.9354
13.9406
13.9462
13.9523
13.9589
13.966
13.9736
13.9818
13.9906
14.0001
14.0103
14.0213
14.033
14.0456
14.0591
14.0735
14.0889
14.1054
14.123
14.1417
14.1617
14.1829
14.2055
14.2294
14.2548
14.2817
14.3102
14.3402
14.3718
14.4051
14.4399
14.4763
14.5142
14.5536
14.5943
14.6361
14.6788
14.7221
14.7656
14.8089
14.8514
14.8923
14.931
14.9664
14.9974
15.0227
15.041
15.0507
15.0501
15.0374
15.0107
14.9682
14.9085
14.8303
14.7331
13.8958
13.8959
13.8963
13.8968
13.8976
13.8986
13.8997
13.9011
13.9027
13.9046
13.9067
13.9091
13.9118
13.9148
13.9181
13.9217
13.9256
13.93
13.9346
13.9397
13.9453
13.9513
13.9577
13.9647
13.9723
13.9804
13.9892
13.9986
14.0087
14.0196
14.0313
14.0438
14.0573
14.0717
14.0871
14.1036
14.1213
14.1402
14.1603
14.1818
14.2047
14.229
14.2549
14.2824
14.3116
14.3425
14.3751
14.4096
14.4459
14.4841
14.5242
14.5661
14.6097
14.655
14.7018
14.7499
14.799
14.8488
14.8989
14.9487
14.9975
15.0445
15.0888
15.1293
15.1647
15.1936
15.2145
15.2254
15.2247
15.2103
15.1805
15.1336
15.0683
14.9839
13.8974
13.8975
13.8979
13.8985
13.8993
13.9003
13.9015
13.903
13.9047
13.9066
13.9089
13.9114
13.9142
13.9174
13.9208
13.9246
13.9288
13.9333
13.9383
13.9436
13.9494
13.9557
13.9626
13.9699
13.9779
13.9865
13.9957
14.0056
14.0163
14.0278
14.0401
14.0534
14.0676
14.0829
14.0992
14.1167
14.1355
14.1555
14.1769
14.1997
14.224
14.25
14.2776
14.307
14.3381
14.3712
14.4063
14.4433
14.4825
14.5237
14.567
14.6125
14.6599
14.7094
14.7607
14.8137
14.8681
14.9237
14.9799
15.0363
15.0923
15.147
15.1995
15.2488
15.2935
15.3323
15.3634
15.3852
15.3957
15.3929
15.3749
15.34
15.2868
15.2148
13.8988
13.8989
13.8993
13.8999
13.9008
13.9018
13.9031
13.9046
13.9064
13.9084
13.9108
13.9134
13.9163
13.9196
13.9232
13.9272
13.9315
13.9362
13.9414
13.947
13.9531
13.9596
13.9668
13.9744
13.9827
13.9917
14.0013
14.0117
14.0229
14.0349
14.0478
14.0617
14.0766
14.0926
14.1098
14.1281
14.1478
14.1688
14.1913
14.2153
14.2409
14.2682
14.2974
14.3284
14.3613
14.3963
14.4334
14.4728
14.5143
14.5582
14.6044
14.653
14.7039
14.757
14.8123
14.8696
14.9287
14.9893
15.051
15.1134
15.1757
15.2373
15.2971
15.3543
15.4074
15.455
15.4956
15.5271
15.5478
15.5555
15.5483
15.5244
15.4824
15.4215
13.8999
13.9001
13.9005
13.9011
13.902
13.9031
13.9044
13.906
13.9078
13.9099
13.9123
13.9151
13.9181
13.9215
13.9252
13.9293
13.9338
13.9387
13.944
13.9498
13.9561
13.9629
13.9703
13.9782
13.9868
13.9961
14.0061
14.0169
14.0285
14.0409
14.0543
14.0687
14.0842
14.1008
14.1186
14.1377
14.1581
14.18
14.2034
14.2284
14.2551
14.2836
14.314
14.3464
14.3809
14.4175
14.4564
14.4976
14.5413
14.5874
14.6361
14.6873
14.7411
14.7973
14.856
14.917
14.9802
15.0451
15.1115
15.1789
15.2468
15.3143
15.3805
15.4444
15.5048
15.5602
15.6089
15.649
15.6786
15.6956
15.6979
15.6836
15.6513
15.6003
13.9009
13.901
13.9014
13.9021
13.903
13.9041
13.9055
13.9071
13.909
13.9111
13.9136
13.9164
13.9195
13.923
13.9268
13.931
13.9356
13.9407
13.9461
13.9521
13.9585
13.9655
13.9731
13.9813
13.9901
13.9997
14.0099
14.021
14.0329
14.0458
14.0596
14.0744
14.0903
14.1074
14.1258
14.1454
14.1665
14.1891
14.2132
14.239
14.2666
14.2961
14.3275
14.361
14.3967
14.4346
14.475
14.5177
14.5631
14.6111
14.6617
14.7151
14.7712
14.83
14.8915
14.9555
15.0219
15.0904
15.1607
15.2323
15.3046
15.377
15.4485
15.518
15.5844
15.6462
15.7017
15.7489
15.786
15.8107
15.8209
15.8146
15.7905
15.7476
13.9015
13.9017
13.9021
13.9028
13.9037
13.9049
13.9062
13.9079
13.9098
13.912
13.9146
13.9174
13.9206
13.9241
13.928
13.9323
13.937
13.9421
13.9477
13.9538
13.9604
13.9675
13.9752
13.9836
13.9926
14.0023
14.0128
14.0241
14.0363
14.0494
14.0635
14.0786
14.0949
14.1124
14.1311
14.1513
14.1728
14.1959
14.2206
14.247
14.2753
14.3055
14.3377
14.372
14.4086
14.4475
14.489
14.5329
14.5795
14.6289
14.6811
14.7361
14.794
14.8547
14.9183
14.9847
15.0535
15.1247
15.198
15.2727
15.3485
15.4246
15.5001
15.574
15.645
15.7117
15.7724
15.8251
15.8679
15.8985
15.9148
15.9148
15.8969
15.8603
13.902
13.9022
13.9026
13.9033
13.9042
13.9053
13.9067
13.9084
13.9104
13.9126
13.9152
13.9181
13.9213
13.9249
13.9288
13.9332
13.9379
13.9431
13.9487
13.9549
13.9616
13.9688
13.9766
13.9851
13.9942
14.0041
14.0147
14.0262
14.0385
14.0518
14.0661
14.0815
14.098
14.1157
14.1347
14.1551
14.177
14.2004
14.2255
14.2524
14.281
14.3117
14.3444
14.3793
14.4165
14.4562
14.4983
14.543
14.5905
14.6408
14.694
14.7501
14.8092
14.8713
14.9363
15.0041
15.0747
15.1477
15.2229
15.2998
15.3779
15.4565
15.5347
15.6115
15.6856
15.7556
15.8198
15.8763
15.923
15.9576
15.978
15.9822
15.9685
15.9361
13.9044
13.9056
13.907
13.9087
13.9106
13.9129
13.9155
13.9184
13.9216
13.9252
13.9292
13.9335
13.9383
13.9435
13.9492
13.9554
13.9621
13.9694
13.9773
13.9858
13.995
14.0049
14.0156
14.0272
14.0396
14.053
14.0674
14.0828
14.0994
14.1173
14.1365
14.157
14.179
14.2026
14.2279
14.255
14.2839
14.3148
14.3477
14.3829
14.4204
14.4604
14.5029
14.548
14.5959
14.6467
14.7003
14.757
14.8167
14.8794
14.9451
15.0137
15.0851
15.159
15.2352
15.3132
15.3924
15.4722
15.5517
15.6299
15.7056
15.7772
15.8431
15.9013
15.9499
15.9865
16.0088
16.0149
16.0032
15.973
15.9005
15.949
15.9855
16.0077
16.0138
15.8737
15.9202
15.9546
15.9746
15.9785
13.81
13.8097
13.8092
13.8084
13.8072
13.8058
13.804
13.802
13.7996
13.7969
13.7939
13.7905
13.7868
13.7826
13.778
13.773
13.7675
13.7614
13.7549
13.7477
13.7399
13.7314
13.7222
13.7122
13.7014
13.6897
13.677
13.6633
13.6485
13.6325
13.6152
13.5966
13.5765
13.5548
13.5313
13.5061
13.4789
13.4496
13.418
13.3839
13.3473
13.3079
13.2656
13.22
13.171
13.1185
13.062
13.0014
12.9365
12.8668
12.7922
12.7124
12.6271
12.5358
12.4384
12.3345
12.2237
12.1057
11.9802
11.8468
11.7052
11.5551
11.3961
11.228
11.0506
10.8635
10.6667
10.4598
10.2428
10.0155
9.77791
9.52992
9.27156
9.00285
13.8102
13.81
13.8095
13.8086
13.8075
13.806
13.8043
13.8022
13.7999
13.7972
13.7942
13.7908
13.7871
13.783
13.7784
13.7734
13.7679
13.7619
13.7554
13.7482
13.7405
13.732
13.7229
13.713
13.7022
13.6906
13.6779
13.6643
13.6496
13.6337
13.6165
13.5979
13.5779
13.5563
13.533
13.5079
13.4808
13.4516
13.4201
13.3863
13.3498
13.3106
13.2684
13.223
13.1743
13.1219
13.0657
13.0054
12.9406
12.8713
12.797
12.7174
12.6324
12.5414
12.4443
12.3407
12.2303
12.1126
11.9874
11.8544
11.7131
11.5633
11.4046
11.2369
11.0597
10.873
10.6763
10.4697
10.2529
10.0259
9.78841
9.54056
9.28232
9.01369
13.8107
13.8105
13.8099
13.8091
13.808
13.8066
13.8048
13.8028
13.8005
13.7978
13.7948
13.7915
13.7878
13.7837
13.7792
13.7743
13.7688
13.7629
13.7564
13.7494
13.7417
13.7333
13.7243
13.7144
13.7038
13.6923
13.6798
13.6663
13.6517
13.6359
13.6189
13.6005
13.5807
13.5593
13.5362
13.5113
13.4845
13.4556
13.4244
13.3909
13.3548
13.3159
13.2741
13.2291
13.1808
13.1288
13.0731
13.0132
12.949
12.8801
12.8064
12.7274
12.643
12.5526
12.4562
12.3532
12.2434
12.1264
12.0019
11.8695
11.7289
11.5798
11.4218
11.2547
11.0781
10.8919
10.6959
10.4898
10.2735
10.0468
9.80973
9.56219
9.30419
9.03575
13.8114
13.8112
13.8107
13.8098
13.8087
13.8073
13.8056
13.8036
13.8013
13.7987
13.7958
13.7925
13.7889
13.7849
13.7804
13.7755
13.7702
13.7644
13.758
13.751
13.7435
13.7352
13.7263
13.7166
13.7062
13.6948
13.6825
13.6692
13.6548
13.6393
13.6225
13.6044
13.5849
13.5638
13.5411
13.5166
13.4901
13.4616
13.4309
13.3978
13.3622
13.3238
13.2825
13.2381
13.1904
13.1391
13.0841
13.0249
12.9615
12.8934
12.8205
12.7424
12.6588
12.5694
12.4739
12.3719
12.2631
12.1471
12.0236
11.8922
11.7527
11.6045
11.4475
11.2814
11.1057
10.9204
10.7252
10.5199
10.3043
10.0783
9.84179
9.59473
9.33711
9.06896
13.8123
13.8121
13.8116
13.8108
13.8097
13.8084
13.8067
13.8047
13.8025
13.7999
13.7971
13.7938
13.7903
13.7863
13.782
13.7772
13.772
13.7663
13.76
13.7532
13.7458
13.7378
13.729
13.7196
13.7093
13.6982
13.6861
13.6731
13.659
13.6438
13.6274
13.6096
13.5905
13.5698
13.5475
13.5235
13.4975
13.4695
13.4394
13.4069
13.3719
13.3343
13.2938
13.2501
13.2032
13.1528
13.0987
13.0405
12.9781
12.9111
12.8392
12.7623
12.6799
12.5917
12.4974
12.3967
12.2892
12.1746
12.0525
11.9225
11.7842
11.6375
11.4818
11.3169
11.1426
10.9585
10.7644
10.5602
10.3456
10.1204
9.88468
9.63827
9.38119
9.11347
13.8135
13.8133
13.8128
13.812
13.811
13.8096
13.808
13.8061
13.8039
13.8014
13.7986
13.7955
13.792
13.7882
13.784
13.7793
13.7742
13.7687
13.7626
13.756
13.7487
13.7409
13.7324
13.7232
13.7132
13.7023
13.6906
13.6779
13.6642
13.6494
13.6333
13.6161
13.5974
13.5772
13.5555
13.532
13.5067
13.4794
13.45
13.4183
13.3841
13.3473
13.3077
13.265
13.2192
13.1698
13.1168
13.0598
12.9986
12.933
12.8625
12.787
12.7061
12.6194
12.5267
12.4277
12.3218
12.2089
12.0884
11.9601
11.8236
11.6786
11.5246
11.3614
11.1886
11.006
10.8134
10.6105
10.3972
10.1732
9.93843
9.69287
9.4365
9.16932
13.8149
13.8147
13.8142
13.8135
13.8124
13.8111
13.8096
13.8077
13.8056
13.8032
13.8005
13.7974
13.7941
13.7904
13.7863
13.7818
13.7769
13.7715
13.7656
13.7592
13.7522
13.7446
13.7364
13.7275
13.7178
13.7073
13.6959
13.6836
13.6703
13.656
13.6404
13.6237
13.6056
13.586
13.5649
13.5422
13.5176
13.4911
13.4625
13.4317
13.3985
13.3628
13.3242
13.2827
13.2381
13.19
13.1384
13.0828
13.0231
12.959
12.8902
12.8164
12.7373
12.6525
12.5617
12.4646
12.3607
12.2498
12.1314
12.0052
11.8708
11.7278
11.5758
11.4146
11.2438
11.0631
10.8722
10.671
10.4592
10.2366
10.0031
9.7586
9.50311
9.23665
13.8165
13.8163
13.8158
13.8151
13.8141
13.8129
13.8113
13.8096
13.8075
13.8052
13.8026
13.7997
13.7965
13.7929
13.789
13.7847
13.7799
13.7747
13.7691
13.7629
13.7562
13.7489
13.741
13.7324
13.7231
13.713
13.7021
13.6902
13.6774
13.6636
13.6486
13.6325
13.615
13.5962
13.5759
13.5539
13.5302
13.5046
13.477
13.4473
13.4152
13.3806
13.3433
13.3032
13.2599
13.2134
13.1633
13.1094
13.0515
12.9892
12.9223
12.8505
12.7734
12.6908
12.6022
12.5073
12.4058
12.2973
12.1813
12.0575
11.9255
11.785
11.6354
11.4766
11.3081
11.1296
10.9409
10.7416
10.5317
10.3108
10.0788
9.83557
9.58119
9.3156
13.8183
13.8181
13.8177
13.817
13.816
13.8148
13.8134
13.8117
13.8097
13.8075
13.805
13.8022
13.7992
13.7957
13.792
13.7879
13.7833
13.7784
13.773
13.7671
13.7607
13.7537
13.7462
13.738
13.7291
13.7194
13.709
13.6976
13.6854
13.6722
13.6578
13.6424
13.6257
13.6076
13.5882
13.5671
13.5444
13.5199
13.4934
13.4648
13.434
13.4007
13.3649
13.3263
13.2846
13.2398
13.1915
13.1395
13.0835
13.0233
12.9586
12.889
12.8143
12.7341
12.6481
12.5558
12.457
12.3512
12.238
12.117
11.9879
11.8501
11.7034
11.5473
11.3815
11.2056
11.0193
10.8225
10.6147
10.3957
10.1655
9.92393
9.67088
9.40639
13.8202
13.8201
13.8197
13.819
13.8181
13.817
13.8156
13.814
13.8121
13.81
13.8077
13.805
13.8021
13.7989
13.7953
13.7914
13.7871
13.7824
13.7773
13.7717
13.7657
13.7591
13.7519
13.7441
13.7357
13.7265
13.7166
13.7058
13.6942
13.6816
13.668
13.6534
13.6375
13.6203
13.6018
13.5817
13.5601
13.5367
13.5115
13.4842
13.4548
13.4231
13.3888
13.3519
13.312
13.2691
13.2228
13.1729
13.1191
13.0612
12.999
12.932
12.8599
12.7825
12.6993
12.6099
12.5141
12.4114
12.3014
12.1836
12.0576
11.9231
11.7796
11.6266
11.4639
11.291
11.1076
10.9134
10.7082
10.4916
10.2635
10.0238
9.77233
9.50916
13.8224
13.8222
13.8218
13.8212
13.8204
13.8193
13.818
13.8165
13.8147
13.8128
13.8105
13.8081
13.8053
13.8023