/*--------------------------------*- C++ -*----------------------------------*\
  =========                 |
  \\      /  F ield         | OpenFOAM: The Open Source CFD Toolbox
   \\    /   O peration     | Website:  https://openfoam.org
    \\  /    A nd           | Version:  13
     \\/     M anipulation  |
\*---------------------------------------------------------------------------*/
FoamFile
{
    format      ascii;
    class       volScalarField;
    location    "200";
    object      k;
}
// * * * * * * * * * * * * * * * * * * * * * * * * * * * * * * * * * * * * * //

dimensions      [0 2 -2 0 0 0 0];

internalField   nonuniform List<scalar> 
171247
(
1.09422
0.070401
0.603434
0.610632
0.619082
0.629514
0.643097
0.661748
0.686578
0.721671
0.729521
0.769592
0.84345
0.908982
1.06241
1.22434
1.43946
0.528405
0.516641
0.524476
0.533746
0.544994
0.558449
0.573971
0.594103
0.620678
0.653645
0.668723
0.709874
0.76412
0.834032
0.957782
1.11516
1.31592
1.4691
0.444197
0.449303
0.455314
0.462044
0.470218
0.481167
0.495517
0.513653
0.53489
0.554602
0.571891
0.605991
0.645169
0.69852
0.773237
0.868251
0.986484
1.0088
0.409799
0.412937
0.416479
0.420875
0.426319
0.433034
0.44121
0.450939
0.462047
0.473458
0.4832
0.492982
0.504915
0.520242
0.540284
0.566246
0.597839
0.644199
0.687348
0.730915
0.776907
0.82728
0.39146
0.393659
0.396169
0.399055
0.402388
0.406217
0.41058
0.415496
0.420929
0.426553
0.431634
0.436619
0.441944
0.448504
0.457138
0.468028
0.481192
0.496685
0.512385
0.526686
0.539914
0.552587
0.379217
0.380638
0.382131
0.383707
0.385401
0.387258
0.389312
0.391598
0.394147
0.396964
0.399823
0.402588
0.405264
0.407965
0.410928
0.414586
0.419191
0.424505
0.430389
0.436441
0.44213
0.447
0.451095
0.454577
0.374651
0.375464
0.376212
0.376927
0.377674
0.378499
0.379478
0.380664
0.382082
0.383706
0.38547
0.387272
0.388979
0.390583
0.392176
0.39389
0.395863
0.398091
0.400504
0.402944
0.405235
0.407135
0.4086
0.409652
0.371179
0.37125
0.371229
0.37122
0.371371
0.371797
0.372535
0.373477
0.374588
0.375838
0.377181
0.37855
0.379889
0.381167
0.382378
0.383549
0.384717
0.385904
0.387101
0.388266
0.389341
0.390169
0.390725
0.391016
0.366681
0.366237
0.365844
0.365601
0.365662
0.366101
0.366865
0.367828
0.368947
0.370172
0.371445
0.37272
0.37396
0.375138
0.376244
0.377277
0.378253
0.379187
0.380079
0.380911
0.381652
0.382271
0.382662
0.382833
0.36341
0.362661
0.362041
0.361653
0.361625
0.362068
0.362776
0.363698
0.36478
0.365961
0.367185
0.368409
0.369601
0.370742
0.371814
0.372813
0.373746
0.374629
0.375466
0.376243
0.37694
0.377538
0.378018
0.378317
0.361628
0.360735
0.360014
0.359556
0.359494
0.359882
0.360521
0.361373
0.362383
0.36349
0.364636
0.365777
0.366888
0.367956
0.368965
0.369907
0.370789
0.371627
0.372426
0.373175
0.373855
0.374448
0.374945
0.375343
0.361123
0.360165
0.3594
0.358917
0.358848
0.359201
0.359805
0.360624
0.361602
0.36267
0.363766
0.364846
0.365886
0.366876
0.367806
0.368668
0.369473
0.37024
0.370975
0.371665
0.372292
0.37284
0.3733
0.373674
0.360994
0.360038
0.359276
0.358798
0.358735
0.359089
0.359695
0.360517
0.361499
0.36257
0.363665
0.364734
0.365753
0.36671
0.367594
0.368403
0.369154
0.369867
0.370553
0.371198
0.371784
0.372295
0.372722
0.373063
0.360285
0.359574
0.359129
0.359083
0.359475
0.360118
0.360979
0.361997
0.363106
0.364238
0.365342
0.366385
0.367349
0.368221
0.369005
0.369723
0.370401
0.37105
0.371662
0.372217
0.372697
0.373087
0.373342
0.361934
0.361321
0.36094
0.360923
0.36138
0.362088
0.363014
0.364102
0.365279
0.366477
0.367637
0.368721
0.369705
0.370571
0.371326
0.371994
0.372605
0.373179
0.373707
0.374168
0.374508
0.374692
0.374725
0.365376
0.364979
0.36473
0.364783
0.365229
0.365995
0.366964
0.368088
0.369308
0.37055
0.371752
0.372861
0.373846
0.374679
0.375363
0.375887
0.376318
0.376707
0.377043
0.377287
0.377404
0.377377
0.377209
0.370415
0.370389
0.37037
0.370509
0.370932
0.37168
0.372618
0.373725
0.374961
0.376268
0.377559
0.378753
0.379784
0.380514
0.381018
0.381398
0.381748
0.38211
0.382455
0.382721
0.382858
0.382838
0.382663
0.375414
0.376129
0.376878
0.377705
0.37869
0.379888
0.381319
0.38295
0.384688
0.386374
0.387847
0.389017
0.38991
0.390643
0.391368
0.392174
0.39315
0.394155
0.395044
0.395726
0.396162
0.396362
0.38178
0.383376
0.385101
0.386999
0.389109
0.391465
0.394091
0.396928
0.399761
0.402447
0.404834
0.406859
0.408538
0.410247
0.412302
0.414854
0.417875
0.421004
0.42377
0.42601
0.427708
0.428957
0.394259
0.396851
0.399865
0.403377
0.407437
0.41207
0.41726
0.422904
0.42853
0.433538
0.437831
0.441477
0.445226
0.449666
0.455371
0.462722
0.471768
0.480646
0.488471
0.495013
0.500189
0.504665
0.415793
0.419592
0.42433
0.430191
0.43738
0.446019
0.456064
0.467153
0.478388
0.487947
0.495558
0.503125
0.512018
0.524119
0.539894
0.559283
0.589621
0.616793
0.641374
0.665096
0.689333
0.713794
0.455928
0.462744
0.470316
0.478904
0.490038
0.504153
0.521373
0.540904
0.560793
0.576524
0.575262
0.582017
0.598509
0.623927
0.660313
0.708574
0.88221
0.948784
1.02064
1.10202
1.18656
1.27805
0.527286
0.536471
0.547443
0.560803
0.575986
0.594566
0.618502
0.64816
0.65072
0.663948
0.690077
0.730813
0.79323
0.871202
0.971188
1.10796
1.27524
1.51331
1.56827
1.67145
1.80857
1.96472
0.59934
0.606879
0.616158
0.628188
0.644642
0.667208
0.699267
0.702434
0.724515
0.767798
0.832009
0.88266
1.02206
1.17504
1.43861
1.47172
1.28221
0.952891
0.93658
1.11193
1.37571
1.57005
0.610508
0.615816
0.623945
0.635168
0.650581
0.675265
0.71948
0.727518
0.778506
0.879134
0.960174
1.12678
1.1366
0.485286
0.41239
0.711596
0.800496
0.826038
0.892591
1.02748
1.12108
1.21839
0.532995
0.534932
0.538232
0.543863
0.554047
0.574968
0.587216
0.627413
0.71316
0.796703
1.01763
0.938801
0.33012
0.848219
0.965795
0.977879
1.01037
1.03319
1.07927
1.1484
0.470265
0.465683
0.462205
0.459997
0.46173
0.472197
0.49619
0.512074
0.580264
0.693364
0.818129
1.02084
1.13047
0.604921
0.652256
0.986593
1.09291
1.03174
1.13991
1.19223
1.26917
1.39621
0.410885
0.405693
0.401367
0.397625
0.395086
0.395674
0.405508
0.427181
0.447409
0.506224
0.573894
0.667805
0.807309
0.900336
1.08794
1.39732
1.67733
1.57908
1.6755
1.81511
2.01737
2.32143
0.355014
0.352905
0.355356
0.364202
0.377022
0.390384
0.424976
0.466955
0.514373
0.563814
0.617821
0.69195
0.669377
0.734917
0.817484
0.906711
0.997711
1.09619
0.384399
0.376747
0.371952
0.369912
0.370104
0.373192
0.379308
0.387413
0.396669
0.406537
0.416946
0.435608
0.452814
0.470527
0.488742
0.506704
0.524206
0.829887
0.839108
0.850459
0.865596
0.886968
0.917472
0.959996
0.978717
1.06317
1.20349
1.35503
1.17228
0.653377
0.669621
0.688064
0.710097
0.735577
0.765483
0.8056
0.861675
0.891329
0.977702
1.08419
1.16192
1.15755
1.09788
1.0925
1.13517
1.39323
0.48078
0.492545
0.505946
0.520739
0.539233
0.56425
0.597131
0.638177
0.683699
0.714888
0.776942
0.827586
0.862298
0.881503
0.897075
0.914125
0.951176
1.04295
0.419398
0.424735
0.431131
0.439488
0.450411
0.464532
0.48241
0.504141
0.528089
0.548772
0.565751
0.581713
0.597718
0.613999
0.630802
0.64825
0.666177
0.685025
0.709923
0.733894
0.75993
0.789129
0.396554
0.399838
0.403691
0.408326
0.413982
0.420863
0.429141
0.438825
0.449466
0.458626
0.467
0.475279
0.483885
0.492947
0.502781
0.513672
0.525618
0.537982
0.549733
0.559956
0.568905
0.57701
0.384611
0.386637
0.388764
0.391035
0.393547
0.396395
0.399653
0.403367
0.407544
0.412064
0.416175
0.419655
0.422965
0.426366
0.430004
0.43407
0.438756
0.444196
0.450194
0.456202
0.461686
0.466458
0.470531
0.474024
0.382432
0.383688
0.384799
0.38583
0.386898
0.388106
0.389521
0.391213
0.39316
0.395302
0.397461
0.39931
0.400792
0.402049
0.403263
0.404547
0.406021
0.407808
0.409919
0.412181
0.41439
0.416396
0.418145
0.419637
0.380146
0.380516
0.380719
0.380907
0.381305
0.382008
0.382925
0.384044
0.385325
0.386711
0.388126
0.389476
0.390688
0.391686
0.392433
0.393009
0.393503
0.394025
0.394624
0.395266
0.395877
0.396397
0.396794
0.397067
0.374618
0.37427
0.373976
0.373865
0.374126
0.374808
0.375737
0.376866
0.378128
0.379454
0.38078
0.382056
0.383245
0.384316
0.385234
0.386002
0.386643
0.387184
0.387652
0.38804
0.388312
0.388446
0.388439
0.3883
0.3695
0.368694
0.368045
0.367667
0.3677
0.368217
0.369006
0.370021
0.371195
0.372457
0.373736
0.374984
0.376175
0.377292
0.378306
0.379204
0.379996
0.38071
0.381364
0.381944
0.382429
0.382777
0.382933
0.382919
0.366348
0.365279
0.36441
0.363823
0.36365
0.363973
0.364569
0.365394
0.366386
0.367474
0.36859
0.369681
0.370737
0.371751
0.372701
0.373567
0.374363
0.375116
0.375834
0.376499
0.377087
0.377577
0.377956
0.378161
0.365481
0.364251
0.363226
0.362492
0.36218
0.362381
0.362855
0.363562
0.364436
0.3654
0.366381
0.367325
0.368227
0.369092
0.369905
0.37065
0.371346
0.372019
0.372679
0.373303
0.373866
0.374346
0.374733
0.374996
0.365332
0.364103
0.363081
0.36235
0.362039
0.362239
0.362711
0.36342
0.364297
0.365266
0.366249
0.367187
0.368072
0.368907
0.369673
0.370364
0.371004
0.371627
0.372238
0.37282
0.373343
0.373788
0.374142
0.374361
0.364716
0.36386
0.363289
0.363135
0.36346
0.364056
0.364886
0.365887
0.366979
0.368087
0.369147
0.370138
0.371048
0.371858
0.372563
0.373194
0.37379
0.374366
0.374902
0.375373
0.375756
0.376
0.37609
0.367794
0.367163
0.366802
0.366854
0.36737
0.368163
0.369184
0.370368
0.371632
0.372895
0.374092
0.375188
0.376167
0.376992
0.377646
0.378167
0.37861
0.379001
0.379323
0.379538
0.379623
0.379575
0.379406
0.373258
0.372974
0.372869
0.373135
0.373812
0.374744
0.375888
0.377171
0.378518
0.379847
0.381094
0.382206
0.383141
0.383845
0.384206
0.384313
0.384307
0.384277
0.384233
0.384147
0.383996
0.38377
0.383476
0.379601
0.37981
0.379993
0.380384
0.381075
0.381998
0.383143
0.384471
0.385918
0.387398
0.3888
0.390019
0.39085
0.391269
0.391381
0.391299
0.391172
0.391108
0.391121
0.391178
0.391241
0.391285
0.391306
0.383787
0.384834
0.385925
0.38717
0.388663
0.390469
0.392573
0.394913
0.397313
0.399423
0.401012
0.402218
0.403143
0.403849
0.404477
0.405195
0.406131
0.407243
0.408421
0.409575
0.41067
0.411702
0.388014
0.390359
0.392992
0.396024
0.399549
0.403627
0.408264
0.413326
0.418038
0.421865
0.425397
0.428689
0.431754
0.434653
0.437555
0.440732
0.444243
0.447875
0.451329
0.45446
0.457275
0.459835
0.400504
0.404664
0.409749
0.416027
0.423717
0.43297
0.443732
0.455441
0.46568
0.474408
0.482422
0.490043
0.497182
0.503902
0.510575
0.51753
0.524788
0.53177
0.537692
0.542516
0.546507
0.549939
0.43058
0.437802
0.447207
0.459379
0.474886
0.494096
0.516819
0.541233
0.561931
0.577475
0.59108
0.603516
0.614797
0.624605
0.633587
0.642516
0.651557
0.662323
0.671005
0.678936
0.686992
0.695093
0.507185
0.522187
0.53864
0.557778
0.582786
0.614587
0.653099
0.693121
0.690713
0.697858
0.714181
0.730746
0.743015
0.751295
0.758309
0.767285
0.785753
0.866482
0.907465
0.954186
1.0062
1.05866
0.667965
0.686065
0.707323
0.732481
0.760794
0.797924
0.849304
0.851188
0.879843
0.932585
0.983479
0.990143
0.976057
0.953938
0.94338
0.974576
1.10732
1.3301
1.77345
1.89456
1.99571
2.08692
0.812271
0.823092
0.83729
0.857098
0.88611
0.926194
0.925993
0.978509
1.08649
1.16853
1.2766
1.22252
1.1758
1.1711
1.15975
1.26409
1.53233
1.27986
1.38969
1.49005
1.58609
1.5716
0.902653
0.904843
0.910845
0.923201
0.946609
0.995062
1.00279
1.0986
1.1995
1.31002
1.04813
0.500434
0.647924
0.611758
0.868889
1.14854
1.23298
0.907942
0.91037
0.914921
0.923158
0.938927
0.975276
0.984775
1.09642
1.2237
1.08285
0.699614
0.828478
1.18153
1.38875
1.46579
0.72364
0.728055
0.734158
0.744233
0.761894
0.790621
0.818116
0.911111
1.03481
1.09882
1.0081
0.945328
1.61477
1.78311
2.69395
2.98687
2.96754
0.508564
0.510115
0.514388
0.523662
0.539682
0.56791
0.606972
0.652822
0.764668
0.852639
0.974148
0.966325
0.924818
0.876362
0.875481
1.0659
1.39985
2.05103
1.72987
1.97527
2.19978
2.41003
0.43938
0.451812
0.474168
0.502918
0.534094
0.599365
0.650485
0.668076
0.661798
0.643081
0.620663
0.605531
0.610392
0.580491
0.61689
0.657551
0.692267
0.730312
0.449958
0.452903
0.459158
0.466602
0.474855
0.481869
0.485768
0.486638
0.484821
0.480984
0.476447
0.472713
0.470137
0.468052
0.4658
0.463793
0.463187
1.03707
1.03172
1.03162
1.03719
1.05024
1.07259
1.10941
1.13378
1.19882
1.15483
1.06186
0.895143
0.906188
0.921727
0.943347
0.968283
1.00156
1.0461
1.07828
1.16775
1.2425
1.2699
1.20306
1.15045
1.06
0.986166
0.924238
0.940872
1.15678
0.592476
0.615589
0.640226
0.666546
0.701267
0.746393
0.801914
0.863688
0.909667
0.999098
1.03796
1.02881
1.01047
0.98655
0.953972
0.915406
0.882298
0.874564
0.448101
0.458015
0.468963
0.482746
0.501312
0.526313
0.558176
0.597264
0.641826
0.682977
0.717176
0.740427
0.755114
0.769095
0.774971
0.773435
0.766461
0.758178
0.750976
0.413928
0.419105
0.425099
0.432359
0.441701
0.453891
0.469449
0.48871
0.511299
0.53489
0.556936
0.576391
0.593152
0.608227
0.620645
0.632845
0.639952
0.64286
0.645317
0.647578
0.649403
0.650959
0.652696
0.40261
0.40592
0.40934
0.413142
0.417655
0.423172
0.429892
0.437917
0.44731
0.457684
0.468644
0.479057
0.489073
0.498791
0.507758
0.515669
0.52243
0.528306
0.533896
0.53921
0.543963
0.548212
0.55212
0.555908
0.403196
0.405307
0.406979
0.408517
0.410181
0.412157
0.414765
0.417792
0.421288
0.425285
0.429496
0.433584
0.437618
0.441666
0.445602
0.449134
0.452413
0.455607
0.45893
0.462456
0.466072
0.469495
0.472734
0.475861
0.401238
0.402125
0.402472
0.402686
0.40339
0.40444
0.405827
0.40742
0.40906
0.410831
0.412619
0.414268
0.415724
0.417058
0.418243
0.419151
0.419827
0.42049
0.421384
0.422603
0.423983
0.425443
0.426944
0.428476
0.391301
0.391093
0.390728
0.390541
0.390817
0.391662
0.392893
0.394344
0.395912
0.397519
0.399035
0.400409
0.401629
0.40268
0.403434
0.403851
0.403991
0.404034
0.404157
0.404425
0.404755
0.405083
0.405391
0.405681
0.379865
0.378883
0.378002
0.377384
0.37717
0.377505
0.378411
0.379611
0.381015
0.382525
0.384035
0.38544
0.38674
0.387938
0.388986
0.389813
0.390366
0.390808
0.391241
0.391676
0.392046
0.392302
0.392432
0.392451
0.372671
0.37116
0.369823
0.368736
0.368012
0.367836
0.368281
0.369087
0.370135
0.371313
0.372523
0.373665
0.374754
0.375811
0.376791
0.37765
0.378408
0.379127
0.379837
0.380525
0.381149
0.38161
0.381894
0.382014
0.371619
0.369711
0.367909
0.366326
0.365112
0.364467
0.364465
0.36498
0.365749
0.366652
0.367582
0.368427
0.369211
0.36998
0.370706
0.371356
0.371965
0.372589
0.373242
0.3739
0.37452
0.375035
0.375374
0.375548
0.371402
0.369494
0.367694
0.366114
0.364899
0.364246
0.364234
0.364739
0.365508
0.366417
0.367355
0.368209
0.368993
0.369741
0.370431
0.371033
0.371593
0.372174
0.372791
0.373417
0.374004
0.374484
0.374796
0.374948
0.370283
0.368963
0.367898
0.367197
0.367008
0.36744
0.368229
0.36927
0.370449
0.371665
0.372801
0.373846
0.374797
0.375628
0.376289
0.376814
0.377358
0.37796
0.378576
0.379117
0.379523
0.379775
0.379886
0.377426
0.376585
0.376005
0.375821
0.376175
0.377062
0.378245
0.379651
0.381179
0.382702
0.384106
0.385363
0.386453
0.387303
0.387776
0.387993
0.388162
0.388398
0.3887
0.38899
0.389211
0.389345
0.389402
0.389501
0.389184
0.389029
0.389319
0.390163
0.391381
0.392853
0.394468
0.396159
0.39779
0.399296
0.400632
0.40172
0.402403
0.402647
0.402549
0.402345
0.402252
0.402342
0.402589
0.402908
0.403267
0.403666
0.401084
0.401425
0.401592
0.402219
0.403221
0.404592
0.40625
0.408018
0.410019
0.412145
0.414342
0.416458
0.418298
0.419786
0.420818
0.421431
0.421935
0.422633
0.423668
0.425026
0.426555
0.428207
0.42998
0.405692
0.407236
0.408905
0.410957
0.413717
0.417063
0.421013
0.425686
0.430868
0.436321
0.441711
0.44691
0.451726
0.455807
0.459213
0.462422
0.465754
0.469277
0.472823
0.476269
0.479694
0.48315
0.407775
0.41186
0.416777
0.422851
0.430329
0.439378
0.450039
0.462128
0.474974
0.487654
0.499798
0.511272
0.521593
0.530294
0.537425
0.543314
0.548683
0.553466
0.55787
0.562112
0.566331
0.570574
0.42679
0.435069
0.44569
0.459447
0.476868
0.498214
0.523064
0.549642
0.574578
0.596286
0.614835
0.631107
0.644373
0.656494
0.663594
0.664856
0.665351
0.66591
0.666309
0.666927
0.66798
0.669535
0.481964
0.497314
0.517702
0.544619
0.578306
0.618711
0.664093
0.71044
0.746396
0.767824
0.779937
0.792419
0.796533
0.792363
0.781654
0.768595
0.755972
0.745215
0.73619
0.73014
0.726917
0.726488
0.636319
0.662063
0.689621
0.723982
0.76755
0.819718
0.876809
0.937541
0.935852
0.929045
0.917741
0.904793
0.889781
0.86986
0.844619
0.818046
0.794817
0.781157
0.765545
0.772065
0.785383
0.806414
0.888677
0.903734
0.924152
0.948002
0.979385
1.02203
1.03026
1.08257
1.15003
1.16276
1.11218
1.06396
1.01044
0.948726
0.887387
0.839703
0.827063
0.87062
1.00649
1.14998
1.21101
1.28277
1.00171
1.0024
1.00796
1.02081
1.04382
1.08364
1.10905
1.20113
1.26029
1.24702
1.23625
1.30815
1.27664
1.21435
1.17214
1.12897
1.32164
1.63021
1.77125
1.81961
1.42607
1.34009
1.0148
1.00172
0.995189
0.99908
1.00471
1.01372
1.07057
1.16324
1.09571
0.216133
0.465061
0.849828
1.07181
1.11191
0.817905
0.794906
0.775603
0.760336
0.745673
0.774674
0.848598
0.945058
0.828249
0.29169
0.802326
1.42045
1.95006
0.661914
0.65602
0.653928
0.658716
0.677783
0.714602
0.746626
0.848286
0.93421
0.878128
2.10141
2.44539
3.18094
3.34145
0.49693
0.495606
0.497056
0.502802
0.517739
0.547272
0.567688
0.649926
0.763677
0.842555
0.868162
0.976418
1.01732
1.02055
1.02733
0.999975
0.927665
0.841769
1.00329
0.943224
1.08258
1.23018
0.46203
0.474923
0.495091
0.50414
0.546004
0.59356
0.620916
0.624397
0.614222
0.595283
0.572425
0.554277
0.545313
0.543689
0.542715
0.550399
0.559866
0.572153
0.468943
0.472573
0.477638
0.482828
0.487466
0.490003
0.490609
0.489669
0.487279
0.483428
0.479632
0.478061
0.47813
0.477931
0.476666
0.474752
0.472719
0.935596
0.900213
0.864811
0.830333
0.801032
0.777941
0.760329
0.771995
0.852987
0.884123
0.964703
0.959472
0.956883
0.953368
0.949138
0.947295
0.934569
0.918841
0.919265
0.965037
1.03564
1.00436
0.946716
0.923214
0.893933
0.833045
0.76942
0.757342
0.754876
0.775878
0.79845
0.826846
0.864191
0.912587
0.945232
0.9707
0.977844
0.974477
0.9446
0.918489
0.900219
0.879535
0.852486
0.818166
0.780758
0.750335
0.524801
0.536998
0.55427
0.580838
0.61761
0.669614
0.723818
0.779898
0.834212
0.882017
0.909512
0.900865
0.88146
0.864976
0.839125
0.815245
0.790913
0.767061
0.723931
0.464555
0.471898
0.479968
0.491271
0.510141
0.537681
0.573077
0.615236
0.663621
0.712865
0.752297
0.776816
0.790974
0.803151
0.804494
0.789898
0.764076
0.742252
0.728138
0.718609
0.712356
0.709209
0.709018
0.446904
0.451407
0.455853
0.461552
0.470009
0.482366
0.499298
0.519991
0.546219
0.57529
0.60345
0.629093
0.651513
0.671483
0.686467
0.696649
0.698553
0.69488
0.689688
0.685491
0.682944
0.682264
0.683389
0.68619
0.454397
0.457514
0.458833
0.460357
0.46283
0.466966
0.473214
0.481665
0.492121
0.504563
0.51834
0.532452
0.546635
0.560623
0.573481
0.585192
0.592968
0.597978
0.600773
0.603353
0.605862
0.60845
0.611325
0.614598
0.455002
0.456384
0.455448
0.454311
0.454179
0.455348
0.457622
0.460914
0.465109
0.470099
0.475586
0.481314
0.487596
0.494102
0.500579
0.506416
0.511078
0.514872
0.518115
0.521017
0.52376
0.526444
0.529162
0.531988
0.429568
0.43044
0.43042
0.428922
0.42791
0.428253
0.429282
0.431859
0.434586
0.437529
0.440609
0.44361
0.446351
0.449093
0.451917
0.454757
0.457388
0.459589
0.461473
0.463261
0.464985
0.466648
0.468248
0.469808
0.471334
0.399206
0.39865
0.398044
0.396605
0.395224
0.395155
0.395788
0.397277
0.39968
0.402548
0.405527
0.408368
0.410824
0.413069
0.415218
0.417213
0.418835
0.42001
0.421078
0.42223
0.42355
0.424805
0.425955
0.426992
0.427932
0.382952
0.381018
0.378903
0.376553
0.374362
0.372983
0.372265
0.372329
0.373307
0.375145
0.377287
0.379458
0.381416
0.383183
0.384995
0.386668
0.387993
0.389047
0.390153
0.391386
0.392645
0.393845
0.394894
0.395744
0.396393
0.38686
0.383643
0.380056
0.376688
0.37418
0.372299
0.371206
0.371051
0.371841
0.373089
0.374351
0.375396
0.376141
0.376971
0.377765
0.378297
0.378687
0.379235
0.379962
0.380788
0.381608
0.382319
0.382854
0.383194
0.386548
0.383342
0.379751
0.376374
0.373876
0.371975
0.370855
0.370681
0.371476
0.372728
0.374007
0.375102
0.375966
0.376826
0.37754
0.377943
0.378224
0.378712
0.379398
0.380195
0.380995
0.381699
0.38224
0.382598
0.379615
0.377468
0.375089
0.37286
0.371467
0.370617
0.370525
0.37135
0.373081
0.375158
0.377327
0.379354
0.381272
0.383103
0.384616
0.385675
0.386518
0.3875
0.388681
0.389948
0.391197
0.392337
0.393315
0.394126
0.395085
0.393712
0.392308
0.392191
0.392707
0.394042
0.396277
0.399018
0.401959
0.404884
0.40755
0.410022
0.412669
0.414669
0.416064
0.417025
0.417983
0.419148
0.420625
0.422103
0.423515
0.424854
0.426137
0.426586
0.425324
0.424473
0.424979
0.426053
0.428556
0.431257
0.434208
0.437441
0.44082
0.44415
0.447545
0.451322
0.454575
0.457526
0.459925
0.462055
0.464272
0.466484
0.468675
0.470804
0.47297
0.475217
0.455861
0.455171
0.45395
0.453598
0.454251
0.456294
0.459449
0.463728
0.469163
0.475529
0.482506
0.490186
0.497935
0.505502
0.512318
0.517862
0.52255
0.526956
0.531105
0.535064
0.538992
0.543034
0.547299
0.458615
0.459957
0.462346
0.466454
0.472854
0.481776
0.493359
0.507482
0.52353
0.540395
0.557237
0.573564
0.588677
0.60048
0.611111
0.618547
0.623619
0.628014
0.632152
0.6365
0.641301
0.646674
0.455093
0.461924
0.471618
0.485309
0.503817
0.5265
0.555178
0.587731
0.619747
0.649179
0.675163
0.698045
0.715039
0.726696
0.730004
0.72807
0.723529
0.720169
0.71894
0.720285
0.724225
0.729661
0.487725
0.501273
0.522052
0.551487
0.588868
0.632839
0.682838
0.733413
0.77401
0.800037
0.814985
0.828186
0.829507
0.808457
0.776782
0.763263
0.748958
0.739682
0.734674
0.734092
0.737867
0.746049
0.574239
0.602064
0.640275
0.691973
0.745227
0.798759
0.849362
0.893541
0.918922
0.909331
0.886735
0.864884
0.835225
0.813319
0.790516
0.767581
0.719933
0.71364
0.711181
0.716762
0.730415
0.752795
0.773314
0.797324
0.826929
0.862812
0.907496
0.936214
0.956849
0.961714
0.967058
0.9359
0.898873
0.872657
0.847048
0.819376
0.790315
0.761034
0.737257
0.718634
0.705763
0.746903
0.81939
0.904098
0.929634
0.926668
0.921939
0.917268
0.915773
0.908529
0.922162
0.943668
0.956583
0.938451
0.924411
0.905067
0.877019
0.843899
0.801657
0.75992
0.741084
0.739922
0.76849
0.83411
1.71669
1.80532
0.877103
0.843929
0.813473
0.788669
0.769876
0.778776
0.812375
0.87725
0.946049
1.07193
1.19937
1.14501
1.13144
0.905082
0.748544
0.741853
0.684406
0.801719
1.32441
1.98364
1.38134
1.2261
0.781462
0.750022
0.721547
0.70182
0.684942
0.69917
0.746145
0.890102
0.564725
0.995095
1.07753
1.20496
0.694425
0.683545
0.675472
0.670346
0.66915
0.67844
0.722004
0.875624
0.277082
0.773315
1.05929
2.11414
0.575112
0.572801
0.573681
0.579149
0.592823
0.604265
0.646231
0.761581
1.34579
2.05862
1.67814
1.73007
0.500463
0.499303
0.500791
0.50624
0.520003
0.543995
0.549097
0.614013
0.736024
0.924087
1.08836
1.02177
0.94568
0.919204
0.867941
0.929378
1.06031
0.904032
0.763774
0.776656
0.724923
0.758109
0.48967
0.498784
0.510524
0.518304
0.548835
0.574513
0.578644
0.574573
0.568193
0.562005
0.55661
0.552475
0.549462
0.549417
0.549091
0.530677
0.533317
0.535099
0.479462
0.482289
0.485391
0.4874
0.487925
0.487103
0.48544
0.482933
0.479438
0.475095
0.471695
0.472094
0.474317
0.476719
0.478703
0.479451
0.479338
0.692334
0.65554
0.622603
0.594271
0.569817
0.552856
0.560838
0.605192
0.744874
0.84812
0.793778
0.740178
0.689595
0.643936
0.604808
0.583654
0.598652
0.664727
0.803797
0.837652
0.81987
0.859449
0.942673
1.05705
1.00881
0.945207
1.05763
0.819357
0.81516
0.795122
0.758303
0.717906
0.686766
0.648535
0.627983
0.644967
0.691194
0.731561
0.756232
0.762959
0.779247
0.798412
0.773167
0.749054
0.755596
0.504668
0.535042
0.57394
0.617664
0.657343
0.669378
0.695828
0.705682
0.701188
0.698055
0.715638
0.740012
0.748166
0.749296
0.745314
0.731669
0.715744
0.69603
0.692037
0.790158
0.466117
0.462962
0.46444
0.468422
0.501675
0.52866
0.586548
0.639068
0.680875
0.709747
0.710731
0.722912
0.729201
0.733769
0.742986
0.74242
0.731685
0.712128
0.699499
0.711645
0.722365
0.733779
0.74781
0.490628
0.481936
0.47225
0.466583
0.472102
0.485372
0.503683
0.520575
0.554559
0.586746
0.618994
0.646028
0.66771
0.686415
0.694792
0.696966
0.699864
0.695907
0.667555
0.671363
0.676872
0.684064
0.693141
0.704264
0.530826
0.532255
0.5252
0.515892
0.508842
0.50381
0.50226
0.509621
0.521809
0.537733
0.55586
0.575323
0.594074
0.612636
0.631211
0.636933
0.642961
0.643596
0.630741
0.63352
0.637464
0.642827
0.649626
0.657801
0.626117
0.628422
0.623107
0.614085
0.604591
0.591998
0.578411
0.566117
0.555794
0.54965
0.548978
0.564228
0.569169
0.576774
0.585824
0.591158
0.592889
0.593035
0.59443
0.596245
0.598731
0.602225
0.606794
0.612373
0.579509
0.591994
0.603333
0.606539
0.604133
0.651757
0.644292
0.62259
0.593787
0.57608
0.565001
0.556656
0.572674
0.567967
0.565044
0.563529
0.562356
0.559917
0.557491
0.557213
0.557526
0.558243
0.559537
0.56149
0.564082
0.494732
0.500877
0.507439
0.508642
0.505964
0.545472
0.542903
0.540604
0.538014
0.536155
0.53495
0.53286
0.528169
0.52312
0.519709
0.516917
0.513583
0.509574
0.506114
0.504501
0.504151
0.504016
0.504111
0.504474
0.5051
0.404266
0.404242
0.404979
0.403884
0.401473
0.428794
0.428378
0.429036
0.431185
0.435308
0.44083
0.445493
0.448135
0.447838
0.448143
0.448364
0.447128
0.444883
0.442756
0.441858
0.442143
0.442423
0.442682
0.442933
0.443168
0.43563
0.435014
0.430904
0.424276
0.506579
0.497111
0.488708
0.482252
0.478353
0.476824
0.475081
0.472087
0.466568
0.46172
0.457496
0.452013
0.445882
0.440241
0.436065
0.433431
0.43112
0.429056
0.427206
0.425506
0.480486
0.481976
0.47764
0.469006
0.51051
0.500774
0.49197
0.485117
0.480908
0.479165
0.477238
0.474088
0.468719
0.464099
0.459679
0.453612
0.446942
0.440947
0.436502
0.433628
0.431134
0.428947
0.427035
0.425326
0.406546
0.405163
0.401697
0.39682
0.424699
0.422957
0.422909
0.424292
0.427681
0.432794
0.43751
0.44068
0.44177
0.443508
0.443791
0.442164
0.439692
0.437637
0.436947
0.43758
0.438277
0.439013
0.4398
0.440624
0.435304
0.435523
0.433627
0.528311
0.526208
0.524242
0.521849
0.520102
0.519381
0.518548
0.516238
0.513732
0.502506
0.504743
0.502606
0.499737
0.497571
0.49734
0.498448
0.499715
0.50116
0.502849
0.5048
0.543313
0.544944
0.542872
0.64399
0.638226
0.615041
0.582101
0.559904
0.545826
0.537269
0.574754
0.572648
0.559387
0.563104
0.56401
0.563186
0.562139
0.563183
0.564662
0.566403
0.568677
0.571658
0.575392
0.628887
0.632904
0.63055
0.626709
0.618167
0.607343
0.595373
0.583761
0.574303
0.567956
0.581996
0.589094
0.5986
0.607894
0.613801
0.615882
0.615073
0.615168
0.615847
0.617516
0.620602
0.625236
0.631395
0.578171
0.571767
0.565817
0.55771
0.549562
0.544387
0.539809
0.557904
0.579446
0.602113
0.622029
0.639645
0.655777
0.663323
0.653254
0.640376
0.645148
0.646396
0.649472
0.654754
0.662334
0.672243
0.494023
0.489518
0.488505
0.49226
0.501784
0.538044
0.573456
0.607639
0.641077
0.667776
0.686935
0.701844
0.705969
0.698741
0.692428
0.68757
0.668824
0.672003
0.678014
0.687067
0.699525
0.715803
0.462794
0.484579
0.516969
0.519461
0.544875
0.58772
0.634668
0.679956
0.723546
0.734065
0.736245
0.732083
0.735913
0.736873
0.730279
0.713297
0.698826
0.706257
0.721783
0.740769
0.76545
0.797523
0.581126
0.62321
0.66196
0.661325
0.685768
0.707193
0.720835
0.728818
0.745255
0.76283
0.762324
0.755945
0.742065
0.720789
0.702314
0.683592
0.676001
0.804552
0.822179
0.862706
0.915189
0.984857
0.798367
0.78453
0.753653
0.718357
0.706078
0.690489
0.675834
0.682586
0.709634
0.732496
0.733655
0.722298
0.717447
0.723081
0.702019
0.70597
0.734318
0.766565
0.798027
1.19609
1.30941
1.44651
0.788486
0.741575
0.696339
0.65439
0.6132
0.607944
0.621826
0.662181
0.709433
0.752762
0.781985
0.799392
0.86603
0.951592
0.869454
0.958598
1.07455
1.23353
1.43752
1.78275
1.61168
1.11964
0.68125
0.65035
0.62144
0.594718
0.572541
0.577558
0.612922
0.688566
0.851308
1.0438
1.07784
1.16607
1.25088
1.24945
0.829689
0.351368
0.36106
0.431321
0.824241
1.08788
1.26076
0.992727
0.606652
0.592505
0.579963
0.569075
0.564251
0.574262
0.635849
0.747206
0.258268
0.793682
0.86641
1.14519
0.57197
0.565059
0.561262
0.561819
0.570795
0.58315
0.635535
0.678733
1.51557
1.28658
0.554203
0.551013
0.550453
0.555109
0.570126
0.5817
0.654354
0.908552
1.05038
1.18438
1.21685
0.983929
0.533424
0.532853
0.534407
0.539766
0.550657
0.555248
0.584303
0.655699
0.919404
1.10188
1.14081
0.869224
0.819644
0.788567
0.794411
0.90304
1.09406
1.10978
0.805849
0.75821
0.660781
0.653293
0.52802
0.535012
0.536291
0.555419
0.583714
0.593734
0.590098
0.577024
0.56476
0.554549
0.547423
0.547693
0.550688
0.550156
0.548997
0.534304
0.534779
0.535852
0.502144
0.505176
0.507378
0.508626
0.508707
0.50743
0.504419
0.500345
0.495353
0.490155
0.487013
0.487361
0.489359
0.491533
0.493312
0.494158
0.494451
0.532012
0.519015
0.507413
0.497123
0.489332
0.487609
0.501526
0.58131
0.777686
0.577831
0.548555
0.524428
0.505008
0.48907
0.482534
0.477227
0.510201
0.594708
0.743902
0.875229
1.01382
1.2896
0.526319
0.507538
0.496867
0.878938
1.00448
0.832304
0.76068
0.701547
0.64845
0.600327
0.53726
0.500199
0.480412
0.495919
0.56851
0.629771
0.77992
0.961307
1.39343
1.33427
0.635625
1.35184
1.42895
1.49731
0.603482
0.640225
0.671867
0.665561
0.654747
0.628434
0.591124
0.566824
0.565228
0.562434
0.620334
0.658675
0.708193
0.852602
1.08988
1.07054
0.99848
1.15015
1.29778
1.08394
0.370058
0.401065
0.451122
0.509624
0.564057
0.60578
0.630524
0.635926
0.630929
0.632486
0.645141
0.693697
0.685276
0.694229
0.710537
0.710224
0.745046
0.764915
0.873414
0.828467
0.820951
0.820368
0.829172
0.385337
0.389179
0.392089
0.401312
0.431291
0.480609
0.533601
0.576227
0.596437
0.61214
0.620306
0.625285
0.636549
0.650535
0.653296
0.656
0.645191
0.657623
0.685173
0.691404
0.697855
0.706142
0.717414
0.525938
0.495117
0.467254
0.444831
0.426835
0.420724
0.432504
0.460089
0.50125
0.5368
0.560706
0.549666
0.558328
0.572442
0.5942
0.605195
0.602576
0.602685
0.607152
0.617189
0.625818
0.634189
0.643227
0.628152
0.59665
0.5617
0.530211
0.512292
0.498834
0.48879
0.483402
0.481667
0.486433
0.496033
0.507146
0.521604
0.537144
0.550706
0.562062
0.569804
0.570397
0.573706
0.566339
0.574407
0.581883
0.589242
0.596837
0.820576
0.816137
0.807512
0.774791
0.737641
0.708086
0.682998
0.666058
0.65073
0.635448
0.62216
0.608491
0.592139