/*--------------------------------*- C++ -*----------------------------------*\
  =========                 |
  \\      /  F ield         | OpenFOAM: The Open Source CFD Toolbox
   \\    /   O peration     | Website:  https://openfoam.org
    \\  /    A nd           | Version:  13
     \\/     M anipulation  |
\*---------------------------------------------------------------------------*/
FoamFile
{
    format      ascii;
    class       volScalarField;
    location    "200";
    object      nut;
}
// * * * * * * * * * * * * * * * * * * * * * * * * * * * * * * * * * * * * * //

dimensions      [0 2 -1 0 0 0 0];

internalField   nonuniform List<scalar> 
171247
(
0.00111728
0.000238877
0.00674138
0.00676184
0.00670207
0.00653283
0.00622599
0.00577023
0.00519808
0.00448157
0.00567276
0.00398152
0.00334865
0.0035638
0.00192096
0.00180506
0.000831291
0.00204924
0.00741655
0.00726966
0.00707017
0.00679769
0.00645113
0.00604922
0.00566949
0.00540216
0.00497643
0.00717056
0.00583708
0.00535416
0.00371333
0.00264243
0.00229369
0.00180065
0.00176302
0.00882481
0.00847874
0.00811574
0.00773315
0.00735387
0.00704603
0.00684486
0.00689918
0.00752165
0.00919107
0.00890674
0.00872358
0.00646989
0.00494328
0.00414954
0.00383156
0.00344301
0.00397417
0.0103389
0.00994668
0.00958685
0.00925259
0.00895072
0.00876511
0.00883633
0.00934147
0.0105395
0.0131793
0.0132351
0.0128273
0.0124315
0.0108685
0.00898622
0.00773693
0.00738989
0.00741258
0.00707798
0.00661208
0.00580667
0.00522506
0.0118656
0.0116698
0.0115326
0.0114052
0.0113586
0.0115196
0.012009
0.0129793
0.0146159
0.0162093
0.0157898
0.0153737
0.0149694
0.0145708
0.0141451
0.0125224
0.0109705
0.0106415
0.0112647
0.0106489
0.0100944
0.00966367
0.0139749
0.0140042
0.0142093
0.01451
0.0148445
0.0152435
0.0157751
0.0164718
0.0173094
0.0182403
0.0180171
0.0177581
0.0174816
0.0171968
0.016908
0.0166159
0.0162893
0.014694
0.0140942
0.0142146
0.014764
0.0143715
0.0140125
0.0136914
0.0165016
0.0170752
0.0179261
0.01879
0.0193297
0.0193092
0.0192808
0.0192409
0.0191488
0.018851
0.0187065
0.0188678
0.018785
0.018645
0.018495
0.0183384
0.0181777
0.0178313
0.0170874
0.0171695
0.0174776
0.0172948
0.0171146
0.0169399
0.0194896
0.0194926
0.0194918
0.0194904
0.0194913
0.019494
0.0194987
0.018974
0.0180665
0.0173949
0.017043
0.0170482
0.0173131
0.0177052
0.018068
0.0182809
0.0183018
0.0181836
0.018125
0.0183669
0.0189246
0.0188534
0.0187792
0.0187028
0.0193672
0.0193695
0.0193741
0.0193832
0.0193982
0.0194205
0.0186202
0.0172109
0.0162518
0.0156904
0.0154679
0.0154928
0.0157117
0.0160661
0.0164979
0.016931
0.017274
0.0174964
0.0177068
0.0180748
0.0186895
0.0194791
0.0194623
0.0194409
0.0191503
0.0191478
0.0191509
0.01916
0.0191778
0.0192067
0.0174553
0.0160371
0.0151515
0.0146763
0.0145072
0.0145577
0.0147536
0.0150545
0.0154509
0.015896
0.0162973
0.0166011
0.0168753
0.0172558
0.0178192
0.0185633
0.0194532
0.0195415
0.0189409
0.0189334
0.0189316
0.0189364
0.018951
0.0186219
0.0166751
0.0153428
0.0145101
0.014079
0.013953
0.0140353
0.014234
0.0145058
0.0148654
0.0152856
0.0156696
0.0159592
0.0162164
0.0165633
0.0170668
0.017721
0.0184891
0.0193245
0.0187949
0.0187831
0.0187764
0.0187766
0.0187867
0.0180713
0.0161901
0.0148869
0.0140832
0.0136884
0.0136082
0.0137414
0.0139826
0.0142791
0.0146498
0.0150722
0.0154463
0.0157184
0.0159571
0.0162836
0.0167595
0.017374
0.0180902
0.0188785
0.0187959
0.018784
0.0187772
0.0187772
0.0187872
0.0180059
0.0161281
0.0148241
0.0140211
0.0136351
0.0135765
0.0137469
0.0140416
0.0144044
0.0148426
0.0153153
0.015708
0.0159693
0.0161864
0.0164937
0.0169562
0.0175626
0.0182751
0.019062
0.0189313
0.0189294
0.0189342
0.0189487
0.0184549
0.0165151
0.0151794
0.01436
0.0139676
0.0139189
0.0141253
0.0144955
0.014975
0.0155537
0.0161466
0.0166121
0.0168915
0.0170919
0.0173818
0.0178447
0.0184719
0.0192253
0.0193222
0.0191408
0.0191439
0.0191529
0.0191708
0.0192
0.0172459
0.0158269
0.0149524
0.0145478
0.0145131
0.0147725
0.0152498
0.0158873
0.0166755
0.0174721
0.0180874
0.0184386
0.0186498
0.0189427
0.0194417
0.0195242
0.0195318
0.0195357
0.0193598
0.0193647
0.0193741
0.0193895
0.0194129
0.0184304
0.0169999
0.0160669
0.015576
0.0155284
0.0158339
0.0164536
0.0173263
0.0183813
0.0194174
0.0195398
0.0195317
0.0195214
0.0195093
0.0194949
0.0194777
0.0194576
0.0194346
0.019491
0.0194912
0.019491
0.0194933
0.019498
0.0195053
0.0188463
0.0179637
0.0173966
0.0172046
0.0175141
0.0182717
0.0193784
0.019327
0.0192672
0.0192027
0.0191363
0.0190703
0.0190051
0.0189405
0.0188763
0.0188119
0.0187473
0.0179038
0.0187845
0.0193501
0.0193319
0.0193055
0.0192667
0.019212
0.0191375
0.0190451
0.0189323
0.0188021
0.0186582
0.0185048
0.0183469
0.0181889
0.0180334
0.017883
0.0177374
0.0175972
0.0174632
0.0173352
0.0172128
0.0141474
0.0144447
0.0147945
0.01523
0.0158228
0.0166175
0.0175955
0.0182373
0.0179919
0.0177213
0.0174369
0.0171499
0.0168649
0.0165875
0.0163187
0.0160551
0.0157855
0.0155132
0.0152477
0.014999
0.0147721
0.0145676
0.0115534
0.0114062
0.0112665
0.0112084
0.0113635
0.0118596
0.0128618
0.0146249
0.0160538
0.0156168
0.015198
0.0148045
0.0144378
0.0140848
0.0137247
0.0133323
0.01281
0.0122584
0.0117558
0.0113316
0.0109868
0.010715
0.00961994
0.0092574
0.00892755
0.00864769
0.00847778
0.0085625
0.00908676
0.0103455
0.0128195
0.0129058
0.0125132
0.0121619
0.0118123
0.0114207
0.0101322
0.00905231
0.00859494
0.00812017
0.00756236
0.00720731
0.00699802
0.00651599
0.00795008
0.00763277
0.00730832
0.0069896
0.00675323
0.0066411
0.00677374
0.00743863
0.00771109
0.0103643
0.0103406
0.0102111
0.00914135
0.00741687
0.00617444
0.0056147
0.00487151
0.00442446
0.00377336
0.00342209
0.00345358
0.00351974
0.00706504
0.006906
0.00668382
0.00639031
0.00604732
0.00569529
0.00543396
0.00497725
0.00746127
0.0070381
0.00578591
0.00491253
0.00410907
0.0036764
0.00327505
0.00278236
0.00273012
0.00251359
0.00306285
0.00348623
0.0041526
0.00491476
0.00694264
0.00687642
0.00669838
0.00638371
0.00590307
0.00529414
0.00451175
0.00654939
0.00456444
0.00425096
0.00401503
0.00279579
0.00208277
0.00203833
0.00155922
0.00182288
0.00290513
0.00501371
0.00643885
0.00669895
0.00710711
0.00753174
0.00651732
0.00667787
0.00683385
0.00645525
0.00589467
0.0050156
0.00398364
0.00516809
0.00330906
0.00254868
0.002118
0.0016677
0.000582598
0.000692665
0.00156544
0.00535473
0.00696038
0.00663877
0.00648299
0.00659319
0.00723193
0.00765617
0.00502304
0.00520602
0.00538424
0.00555927
0.00573588
0.00592718
0.00605711
0.00338345
0.00244611
0.00303594
0.00113582
0.000341095
0.00052262
0.00390111
0.00792516
0.00796525
0.00825001
0.00850011
0.00869927
0.00896882
0.00384604
0.00399765
0.00415012
0.00430495
0.00447456
0.00468095
0.00493129
0.00512009
0.00305517
0.00279608
0.00223693
0.00148433
0.000792658
0.000690047
0.00291508
0.00722536
0.00798406
0.00928823
0.00952767
0.00992348
0.0103578
0.0109158
0.00298792
0.00310537
0.00322717
0.00335399
0.00349103
0.00365076
0.00386549
0.00412394
0.00435004
0.00473565
0.00483217
0.00329392
0.00259785
0.00229298
0.00186604
0.00191772
0.00215041
0.00260192
0.00325727
0.00370738
0.0043134
0.0051859
0.00296935
0.00306846
0.00320235
0.00338093
0.00357263
0.00374576
0.00408193
0.00428877
0.00423089
0.00378472
0.00326656
0.00294689
0.00295262
0.00308968
0.00318374
0.00293565
0.00299127
0.00306004
0.00360134
0.00356524
0.00355975
0.00358396
0.00362106
0.00367919
0.00374629
0.00379842
0.00381434
0.00378423
0.00371626
0.00358283
0.00351677
0.00350534
0.00353159
0.00358512
0.00365859
0.00546727
0.00555622
0.00557865
0.00551112
0.0053365
0.00502726
0.00460118
0.00479247
0.00348057
0.00300136
0.00171719
0.00048353
0.00554668
0.00553584
0.00548208
0.00536996
0.00520719
0.00499604
0.0047632
0.00418516
0.00511762
0.00454427
0.00445211
0.00312366
0.00264671
0.00190706
0.00170149
0.00176414
0.00168219
0.00651126
0.00622813
0.00595141
0.0056806
0.00543276
0.00526662
0.00519212
0.00536382
0.00517861
0.00674542
0.0072272
0.00724781
0.00685891
0.00618141
0.00561549
0.00489412
0.00428457
0.00403495
0.00872102
0.00818826
0.0077006
0.0072571
0.00688186
0.00666474
0.00667495
0.00702296
0.00810383
0.0091582
0.00899239
0.00884087
0.00870583
0.00856241
0.00837995
0.00813151
0.00769508
0.0073915
0.00688009
0.0065873
0.00644061
0.00639258
0.0108823
0.0104337
0.0100122
0.00956169
0.00919265
0.00905743
0.00923156
0.0098655
0.0112467
0.0114205
0.0110721
0.0107807
0.0105415
0.0103376
0.0101533
0.00997352
0.00978519
0.00957232
0.00932565
0.009095
0.00890255
0.0087512
0.0131771
0.0129666
0.0128625
0.0127281
0.0125276
0.0123637
0.0123704
0.0126503
0.0133031
0.014543
0.0142418
0.0138411
0.0134733
0.0131457
0.0128559
0.0126003
0.0123753
0.0121766
0.0119982
0.0118336
0.0116847
0.0115527
0.0114376
0.0113379
0.015238
0.0156183
0.016164
0.0164495
0.0163037
0.0159469
0.0155936
0.0154065
0.0154429
0.0158156
0.0164828
0.0162134
0.0159407
0.0156747
0.0154219
0.0151863
0.0149712
0.014779
0.0146097
0.0144617
0.0143331
0.0142214
0.014124
0.014038
0.0186222
0.0185246
0.0184368
0.0183675
0.0183107
0.0179811
0.0168686
0.0160747
0.0156207
0.015483
0.0156786
0.0161404
0.0168192
0.0174
0.0172583
0.0171171
0.0169806
0.0168527
0.0167356
0.0166298
0.0165347
0.0164487
0.0163706
0.0162988
0.0185188
0.0184701
0.0184365
0.0184168
0.0184039
0.0180378
0.0164179
0.0153587
0.0147762
0.014557
0.0146327
0.0148936
0.0153045
0.0158372
0.0165281
0.0172397
0.0178533
0.0179926
0.0179454
0.0179
0.0178562
0.0178137
0.0177721
0.0177312
0.0180654
0.0180392
0.0180313
0.0180319
0.0180438
0.0178555
0.016133
0.0149581
0.0142597
0.0139522
0.0139455
0.0141321
0.0144019
0.0147461
0.0152344
0.0158228
0.0163446
0.0166816
0.016932
0.0172961
0.0178616
0.0182548
0.0182539
0.0182499
0.0175839
0.0175618
0.0175526
0.0175535
0.0175674
0.0175163
0.0157883
0.0146027
0.0138849
0.0135622
0.0135461
0.0137421
0.0139767
0.0142204
0.0145875
0.0150575
0.0154576
0.0156952
0.0158755
0.0161788
0.0166786
0.0173393
0.0180862
0.0181083
0.0171573
0.0171335
0.0171193
0.0171156
0.0171254
0.017128
0.0153855
0.0142
0.0134901
0.0131867
0.0132089
0.0134623
0.013741
0.0139893
0.0143285
0.014753
0.0150878
0.0152611
0.0153919
0.0156499
0.0160987
0.0167016
0.017401
0.0177094
0.0171617
0.0171373
0.0171225
0.0171182
0.0171273
0.0170807
0.015333
0.0141353
0.0134163
0.0131119
0.0131452
0.0134281
0.013761
0.0140849
0.0145013
0.0149808
0.0153253
0.0154743
0.0155775
0.015818
0.0162565
0.0168514
0.0175415
0.0177029
0.0175638
0.0175543
0.0175549
0.0175687
0.0173631
0.0156371
0.0144384
0.0137174
0.013414
0.013456
0.0137664
0.0141807
0.0146529
0.0152487
0.0158911
0.0163433
0.0165239
0.0166174
0.0168503
0.0172995
0.01792
0.0180801
0.0181
0.0180393
0.0180318
0.0180329
0.0180457
0.0176576
0.015928
0.0147408
0.0140481
0.0137833
0.0138835
0.0142639
0.0148092
0.0154405
0.0163197
0.0172699
0.0179895
0.0182535
0.018258
0.0182611
0.0182621
0.0182605
0.0182563
0.0182496
0.0184697
0.0184383
0.0184211
0.0184111
0.0178968
0.0162358
0.0151325
0.0145291
0.0143381
0.0145251
0.0150151
0.0157851
0.0167336
0.0180069
0.0181353
0.0180812
0.018027
0.0179754
0.0179271
0.0178814
0.0178379
0.0177958
0.0177548
0.0185435
0.0184602
0.0183965
0.0183463
0.0178831
0.0166939
0.0158209
0.0153077
0.0151524
0.01541
0.0160731
0.0171622
0.0174873
0.0173432
0.0171987
0.0170587
0.0169283
0.0168102
0.0167052
0.0166122
0.0165298
0.016456
0.0163888
0.0161389
0.0164151
0.0162586
0.0158594
0.0154341
0.015164
0.0151158
0.0154124
0.0161975
0.0163067
0.0160243
0.0157507
0.015493
0.0152549
0.0150403
0.0148521
0.0146913
0.014556
0.0144441
0.0143522
0.014276
0.0142109
0.0128252
0.0126546
0.0124261
0.0122286
0.0121854
0.012397
0.0129528
0.0140529
0.014225
0.0138025
0.0134233
0.0130928
0.0128072
0.0125614
0.0123521
0.0121778
0.0120346
0.0119176
0.0118238
0.0117508
0.0116941
0.0116492
0.0102954
0.00983657
0.00935115
0.00894659
0.00876684
0.00887953
0.00940854
0.0106015
0.0112106
0.0108622
0.0105824
0.0103597
0.0101764
0.0100212
0.00988562
0.00976495
0.00964996
0.00952463
0.00940956
0.00931668
0.00924629
0.00919483
0.00772412
0.00725162
0.00683174
0.00649234
0.0062977
0.0063189
0.00664729
0.00758248
0.00857843
0.00873355
0.00860181
0.00849004
0.0083798
0.00825707
0.00811386
0.00794302
0.00771618
0.0073396
0.00708164
0.00692447
0.00683977
0.00680483
0.00577055
0.00555434
0.0053469
0.00515185
0.00504481
0.00502899
0.00522366
0.00544156
0.0076299
0.00763381
0.00759675
0.0074881
0.0073078
0.00705362
0.00672917
0.00631852
0.00577327
0.00458941
0.00464273
0.00478221
0.00471979
0.00446787
0.0053458
0.00531264
0.00522606
0.00510012
0.00491426
0.00471968
0.0041669
0.00669638
0.00524318
0.00569185
0.00480896
0.00506336
0.0044885
0.00394639
0.00357226
0.00326536
0.00323471
0.00359619
0.00439526
0.00511608
0.00566836
0.0059886
0.00550395
0.00551781
0.00544793
0.00527297
0.00496794
0.00455674
0.00707191
0.00384828
0.00357371
0.00456696
0.00164799
0.00199698
0.00123831
0.00181327
0.00141906
0.00128553
0.00181346
0.00259561
0.00312967
0.00587888
0.0058562
0.00639878
0.00582452
0.00583271
0.00573675
0.00550333
0.00503641
0.00418071
0.00584181
0.00319185
0.0034905
0.00199454
9.27888e-05
0.000905096
0.00397475
0.00351386
0.00429285
0.00585775
0.00651959
0.00533238
0.00536481
0.00532175
0.00517335
0.00479108
0.00395769
0.00506724
0.00283479
0.00208853
0.00100807
0.00357316
0.00432447
0.00630977
0.00841859
0.00908753
0.00452696
0.00473074
0.00493276
0.00514101
0.00536833
0.00520138
0.00530717
0.00341876
0.0027807
0.00194362
0.00013217
0.00251529
0.00712369
0.00839415
0.00946053
0.00748815
0.00803463
0.0033111
0.00346627
0.00363333
0.00382338
0.00404709
0.00432756
0.00464475
0.00424187
0.00402691
0.00443221
0.00237064
0.0017714
0.00122137
0.00112432
0.00136275
0.001658
0.00235201
0.0038251
0.00427152
0.00491691
0.00524567
0.00555078
0.00347471
0.00363196
0.00384887
0.00373616
0.00415064
0.00455695
0.00442972
0.00388245
0.00349719
0.0031723
0.00290845
0.00267555
0.00258598
0.00294113
0.0030941
0.00327809
0.00345835
0.00344741
0.00437106
0.00420923
0.00426058
0.00409189
0.00445695
0.00447822
0.0044543
0.00440528
0.00433812
0.00426283
0.00419124
0.00412637
0.00406462
0.00404101
0.00405466
0.00409205
0.00414606
0.00671447
0.00689325
0.00698216
0.00673901
0.00640312
0.00578829
0.00484388
0.00407432
0.00299047
0.0016621
0.000123509
0.00600099
0.0060405
0.0060071
0.00593368
0.00575568
0.00548577
0.00523475
0.00505496
0.00414363
0.00419154
0.00282168
0.0021736
0.00190001
0.00173942
0.00163649
0.00156683
0.00164147
0.00179942
0.00475322
0.00479881
0.00481216
0.00477946
0.00477615
0.00479282
0.00489212
0.00494947
0.0058424
0.00632316
0.00689375
0.00622563
0.00572259
0.00530094
0.00487227
0.00444644
0.00405714
0.00377039
0.0058346
0.00551738
0.00526468
0.00502597
0.0048253
0.00470859
0.00473843
0.00491401
0.00537031
0.00592425
0.00707307
0.00713107
0.00714554
0.00714934
0.0071012
0.00700172
0.00686462
0.00671001
0.00654248
0.00829343
0.00778976
0.00732605
0.0068194
0.00631135
0.00594837
0.00581678
0.00588449
0.00622643
0.00688269
0.0075186
0.00751584
0.00753261
0.00756312
0.00759032
0.00743262
0.00763334
0.00763125
0.00762633
0.00761375
0.00759445
0.00757993
0.00757495
0.0107192
0.0104048
0.00995031
0.0092871
0.00861934
0.00809674
0.00783084
0.00783881
0.00801207
0.00847597
0.00899418
0.00884171
0.00873267
0.00866012
0.00861297
0.00858636
0.00857547
0.00858125
0.00860287
0.00850516
0.00828339
0.00816703
0.00809182
0.00803417
0.0127039
0.0128831
0.012831
0.0121943
0.0113323
0.0106203
0.0101452
0.0102792
0.010576
0.0108643
0.0110654
0.0108526
0.0106684
0.0105146
0.0103883
0.0102904
0.0102176
0.0101706
0.0101473
0.0101452
0.0101595
0.00995407
0.00977681
0.00964337
0.0149303
0.0145972
0.0143501
0.0141923
0.0140531
0.013068
0.0121485
0.0118189
0.0121335
0.0123084
0.0128447
0.0129461
0.0127854
0.0126379
0.0125047
0.0123865
0.0122859
0.0122056
0.0121478
0.0121122
0.0120934
0.0120874
0.0120908
0.0121005
0.0154457
0.0152585
0.0151378
0.0150451
0.0149594
0.0148872
0.0137116
0.0129343
0.0125723
0.012504
0.0129012
0.0134625
0.0139942
0.0143122
0.0142399
0.0141694
0.0141043
0.0140497
0.0140088
0.0139811
0.013963
0.0139519
0.0139459
0.0139435
0.0149834
0.0149134
0.0148863
0.0148729
0.0148643
0.0148707
0.0148156
0.013695
0.0130492
0.0127812
0.0128694
0.0133054
0.0137009
0.0140351
0.0145566
0.0150469
0.0150534
0.015062
0.0150748
0.0150915
0.0151102
0.0151288
0.0151462
0.0151622
0.01421
0.01418
0.0141745
0.0141859
0.0142137
0.0142605
0.0143245
0.0134885
0.0127146
0.0124181
0.0124659
0.0128675
0.0131753
0.0133771
0.0137754
0.0143641
0.0148303
0.0149654
0.0149495
0.0150228
0.015262
0.0153195
0.0153725
0.0154209
0.0132175
0.0132001
0.0132013
0.0132194
0.0132546
0.0133109
0.0133867
0.0130438
0.0122058
0.0118912
0.0119603
0.0124323
0.012828
0.0130351
0.0133691
0.0138555
0.0141755
0.0142022
0.0141362
0.0141978
0.0144924
0.014751
0.014833
0.0149098
0.0132187
0.0132
0.0131999
0.0132164
0.0132501
0.0133048
0.0133789
0.0129906
0.0121266
0.0117899
0.0118436
0.0123131
0.0127505
0.0130551
0.0134779
0.0140196
0.0142851
0.0142949
0.0141946
0.0142407
0.0145265
0.0147375
0.0148193
0.014896
0.0141784
0.0141732
0.0141852
0.0142142
0.0142618
0.0143269
0.0133671
0.0125534
0.0122259
0.0122722
0.0127341
0.0132377
0.0137942
0.0144583
0.0149552
0.0150138
0.0150736
0.0151351
0.0151968
0.0152562
0.0153119
0.0153631
0.0154099
0.0149393
0.014915
0.0149049
0.0149032
0.0149163
0.0146719
0.0135472
0.0128357
0.0125367
0.0126806
0.0132274
0.0139066
0.0146666
0.0151093
0.015109
0.015106
0.0151065
0.0151127
0.0151238
0.0151377
0.015152
0.0151657
0.0151782
0.0153279
0.0152106
0.0151217
0.0150389
0.0149705
0.0136899
0.0127871
0.0123582
0.0121935
0.0125281
0.0131408
0.0139367
0.014439
0.0143607
0.0142803
0.0142038
0.0141381
0.0140876
0.0140516
0.0140271
0.0140103
0.0139992
0.0139919
0.0146444
0.0144022
0.0142539
0.0141282
0.0131843
0.0121844
0.0116691
0.0118643
0.0118438
0.0121813
0.0126458
0.0129541
0.0128032
0.0126613
0.0125318
0.0124192
0.0123272
0.0122594
0.0122151
0.0121903
0.0121793
0.0121779
0.0121826
0.0130873
0.0124094
0.0115124
0.0107341
0.0101725
0.0101053
0.0102943
0.0103359
0.0106198
0.0109637
0.0108236
0.0106566
0.0105172
0.0104044
0.0103195
0.0102628
0.0102317
0.0102246
0.00999763
0.00958666
0.00928021
0.00908817
0.0100663
0.00935332
0.0086438
0.00807219
0.00774493
0.00763739
0.00770648
0.00797461
0.00845024
0.00876846
0.00877152
0.00869211
0.00863908
0.0086068
0.00859167
0.00859494
0.00861119
0.00820728
0.00788864
0.0076337
0.00747404
0.00741627
0.00719696
0.00667595
0.00616411
0.0057905
0.00563606
0.00566679
0.00592377
0.00647038
0.00714779
0.00749359
0.00750954
0.00748912
0.00756792
0.00697972
0.00751498
0.00763134
0.00765126
0.0076463
0.00740288
0.00720652
0.00708654
0.00705117
0.00499509
0.00478693
0.00461922
0.00453145
0.00457707
0.00476363
0.00513576
0.00596548
0.00672108
0.00708415
0.00709251
0.00707049
0.00706634
0.00698974
0.00688835
0.00678559
0.00668645
0.00658548
0.00644837
0.00636919
0.00633441
0.00633202
0.00471792
0.00475156
0.00474137
0.00474887
0.00476891
0.00487668
0.00496564
0.005156
0.00713636
0.00705356
0.00684404
0.00662494
0.00639806
0.00614087
0.00586448
0.00559394
0.00534236
0.00504461
0.00418526
0.00424492
0.00435992
0.00452078
0.00596761
0.00594558
0.00585682
0.00569357
0.0054533
0.00521425
0.00640025
0.00489746
0.00517808
0.00577973
0.00468587
0.00418189
0.00381303
0.00347418
0.00319381
0.00299548
0.0028974
0.00293772
0.00330065
0.00355137
0.00395141
0.00440837
0.00673787
0.00685895
0.00665487
0.0063387
0.0057572
0.00482142
0.00499476
0.00368155
0.00381147
0.00248098
0.00176234
0.00136704
0.00131751
0.00127956
0.00127047
0.00143756
0.0013772
0.00198794
0.00370006
0.00455827
0.00472592
0.00509245
0.00686182
0.00701044
0.00718319
0.00737406
0.00667424
0.0069934
0.00389906
0.00259072
0.00198631
0.000456383
0.00215995
0.00306161
0.00464116
0.00531974
0.00606282
0.00613857
0.00622154
0.00631625
0.00641239
0.0046168
0.0031812
0.00244251
0.000405925
0.00101792
0.00356628
0.00673853
0.00910965
0.00417055
0.00430688
0.00445517
0.0046344
0.00487791
0.0042826
0.00311201
0.00219813
0.00167045
0.00149526
0.00379871
0.00576781
0.00874407
0.0101699
0.00322187
0.00332927
0.003445
0.00357852
0.00376262
0.00402592
0.0042125
0.00269472
0.00264354
0.00189392
0.000828058
0.00130731
0.00125116
0.00124787
0.00128884
0.00165619
0.00145549
0.00207769
0.00262706
0.00332119
0.00392365
0.00459601
0.00405704
0.00416197
0.00387542
0.00430732
0.0034503
0.00395334
0.0040316
0.00382236
0.00361341
0.00341838
0.00325957
0.00318584
0.00315464
0.00316412
0.00380276
0.00388147
0.00398623
0.00412036
0.00561526
0.00537319
0.00495502
0.00526503
0.00552941
0.00544608
0.00537909
0.00531908
0.00526319
0.00521554
0.00519337
0.00520477
0.00523676
0.00527768
0.00532781
0.00539037
0.00546748
0.00611493
0.00615599
0.00617183
0.00616317
0.00615002
0.0061363
0.00605408
0.00297415
0.00208173
0.000284757
0.00603374
0.00620915
0.00639833
0.00658491
0.00676515
0.00694057
0.00532329
0.00404154
0.00329613
0.00231372
0.00179532
0.00168254
0.00169627
0.00201855
0.0020099
0.00170357
0.00154629
0.00150996
0.00500374
0.00522277
0.0054652
0.00575124
0.00609448
0.00605877
0.00566922
0.00508139
0.00506008
0.00588071
0.00483007
0.00433418
0.00410521
0.00392091
0.00371776
0.00352752
0.00335812
0.00321961
0.00466189
0.0046852
0.00475828
0.00489825
0.00510817
0.00537872
0.00503176
0.00492746
0.0051696
0.00549407
0.00668614
0.0065357
0.00628633
0.00610181
0.00580392
0.00556519
0.00537984
0.00524996
0.00502049
0.00555209
0.00505454
0.00500323
0.0052868
0.00530707
0.0046146
0.0046917
0.00475166
0.00521678
0.00578773
0.0064376
0.00657663
0.00664673
0.00645159
0.00663744
0.00667993
0.00660758
0.00646276
0.00639683
0.00636713
0.00636412
0.00637919
0.00641085
0.00606289
0.00586792
0.0055817
0.00532444
0.00514469
0.00505628
0.00510801
0.00551761
0.00600345
0.00627551
0.00641666
0.00656043
0.00669657
0.00682607
0.00693436
0.00633257
0.00704863
0.00712504
0.00716715
0.0072184
0.00727964
0.00735012
0.0074278
0.00750998
0.0074009
0.00716311
0.00700547
0.00692197
0.00645327
0.00595733
0.00560373
0.00544892
0.00564021
0.00596392
0.00632489
0.00656839
0.00668267
0.00677702
0.00701312
0.00615276
0.00671044
0.0071312
0.00757896
0.00768064
0.00761663
0.00745926
0.00733305
0.00725097
0.00865917
0.00836219
0.00818167
0.00806956
0.00799237
0.0079431
0.00744047
0.00686787
0.00655087
0.00646124
0.00659793
0.00685778
0.00685657
0.0069532
0.00705426
0.00725496
0.0076066
0.00788941
0.00798383
0.00788018
0.00775921
0.00766416
0.00759488
0.00754927
0.0099626
0.00966812
0.00943287
0.00929675
0.00918164
0.00907409
0.0090065
0.00894663
0.0084913
0.0080488
0.00787539
0.00800266
0.00837776
0.00845436
0.00841764
0.00845849
0.00870083
0.00902807
0.00910968
0.00893837
0.00878617
0.00870689
0.00868682
0.00869654
0.00875673
0.0100506
0.00991483
0.00981174
0.00976082
0.00972674
0.00968011
0.00966048
0.00966927
0.00970321
0.00933633
0.00905894
0.00922441
0.00973554
0.00991081
0.00988112
0.0100104
0.0101505
0.0102133
0.0102835
0.0103613
0.0103364
0.0103016
0.0103823
0.010523
0.0106873
0.009636
0.00958607
0.00955326
0.00954629
0.00956119
0.00958724
0.00963399
0.00970346
0.00979265
0.00989676
0.00964802
0.00967851
0.0102144
0.0103163
0.0104193
0.0105238
0.0106268
0.0107291
0.0108373
0.0109493
0.0110611
0.0111706
0.0112761
0.0113768
0.0114725
0.00841421
0.00840735
0.00842157
0.0084592
0.00851406
0.00859337
0.00869895
0.00882776
0.00897418
0.00890417
0.00892312
0.00942617
0.0095673
0.00970984
0.00985354
0.00999549
0.0101373
0.0102854
0.0104364
0.0105864
0.0107329
0.0108742
0.0110092
0.0111373
0.00839344
0.0083848
0.00839768
0.00843377
0.0084871
0.00856489
0.00866914
0.00879723
0.00894378
0.008811
0.00879282
0.00931303
0.00954319
0.00968688
0.00983046
0.00997126
0.0101121
0.0102597
0.0104105
0.0105604
0.0107067
0.0108481
0.0109831
0.0111115
0.00956491
0.0095351
0.00953102
0.00954928
0.00958045
0.00963308
0.00970764
0.00980292
0.00991412
0.00952031
0.00943378
0.00985313
0.0101849
0.0104554
0.0105516
0.0106438
0.0107358
0.0108358
0.0109416
0.0110485
0.0111539
0.0112561
0.011354
0.0114471
0.00987921
0.0098346
0.00980665
0.00977505
0.00976681
0.00978513
0.00982789
0.00939546
0.00899475
0.00901699
0.00941205
0.00972586
0.00945776
0.0101813
0.010225
0.0102693
0.0103239
0.0103889
0.0104483
0.0102622
0.0102579
0.0103197
0.0104108
0.0095928
0.00945173
0.00932952
0.00920892
0.00913113
0.00906315
0.00868374
0.00815451
0.00782822
0.00776696
0.00801758
0.00816733
0.00809817
0.00853383
0.00894011
0.00918809
0.0092314
0.00898879
0.00873063
0.00858253
0.00855815
0.00849013
0.00844447
0.00836928
0.00818865
0.00808375
0.00801565
0.0079763
0.00769658
0.00703422
0.00659963
0.00635976
0.00634149
0.00650294
0.00654748
0.00682538
0.00710032
0.00734618
0.00771533
0.00798123
0.00787793
0.00766897
0.00752612
0.00739972
0.00729482
0.00721378
0.00716731
0.00707201
0.00675461
0.00619037
0.00575117
0.00552261
0.00550734
0.0057326
0.00598736
0.00614911
0.00638664
0.00664627
0.00689858
0.0068789
0.00635716
0.00679388
0.00765011
0.00759084
0.0074081
0.00722881
0.0070956
0.00699891
0.00575083
0.00536197
0.00513897
0.00501779
0.00504356
0.00539241
0.00582712
0.00625751
0.00653635
0.00668456
0.00682058
0.00694359
0.00703937
0.00619812
0.00677041
0.00718787
0.00722198
0.0072693
0.00733172
0.00740868
0.00749764
0.00733332
0.00494858
0.00537063
0.00526367
0.00457489
0.00464933
0.00470229
0.00514339
0.0056689
0.00651343
0.00664265
0.00669575
0.00624915
0.00650336
0.00673908
0.00675774
0.00640207
0.00633426
0.00631063
0.00632201
0.00635815
0.00641631
0.00649374
0.00482007
0.00496713
0.00518398
0.00540486
0.00500879
0.00490695
0.00510701
0.0054387
0.00661142
0.00649445
0.00620503
0.00620164
0.00614074
0.00604705
0.00593904
0.00585184
0.00486301
0.00487705
0.00491195
0.00494431
0.00503121
0.00516677
0.00516318
0.00541776
0.00571542
0.00605998
0.00604665
0.00566179
0.00501933
0.00690848
0.00622601
0.00594865
0.0053831
0.00502591
0.00474695
0.00450214
0.00430505
0.00416262
0.00407094
0.00401648
0.0039611
0.00355945
0.00390753
0.00432246
0.00607443
0.00626516
0.00645054
0.00663438
0.00681938
0.00510568
0.00481607
0.00384915
0.00473156
0.00345936
0.00313998
0.00303528
0.00290643
0.00274419
0.00262897
0.00253545
0.00247427
0.00248743
0.00258863
0.00283811
0.00491825
0.0057026
0.00609362
0.00612867
0.00614926
0.00616748
0.00618313
0.00630132
0.00317829
0.0025013
0.0016949
0.00158964
0.00125929
0.00115068
0.00170685
0.00136473
0.000752493
0.00077866
0.000543209
0.000740506
0.00222777
0.00461279
0.00494424
0.00481068
0.00546559
0.0054349
0.00541311
0.00542728
0.0054468
0.00511856
0.0028871
0.00137539
0.00120918
0.0035646
0.00424542
0.00518503
0.00453533
0.00464187
0.00475768
0.00488236
0.00500937
0.00433228
0.00269033
0.00129637
0.000629291
0.00309785
0.0048249
0.00722323
0.00379981
0.00394006
0.00408988
0.00425665
0.00445536
0.00411973
0.00232913
0.00154965
0.00172367
0.00386137
0.00454657
0.00544232
0.00375669
0.00387923
0.0040065
0.00414314
0.00430714
0.00350966
0.00446832
0.00202795
0.00131489
0.00165676
0.00128827
0.00169335
0.00179014
0.00183874
0.00126473
0.00125234
0.00154044
0.00147833
0.00243484
0.00279597
0.003671
0.00403163
0.00531888
0.00513149
0.00394899
0.00435729
0.00350493
0.00405019
0.00442056
0.00437372
0.00433484
0.00430597
0.00422748
0.0042051
0.00386412
0.00322448
0.00365758
0.00504397
0.00530147
0.00542484
0.00727773
0.00724913
0.00702411
0.00729337
0.00714807
0.00705215
0.00697068
0.00689837
0.00684003
0.00679749
0.00678821
0.00683395
0.00578148
0.00573294
0.00629491
0.00673316
0.00707607
0.00449127
0.00446782
0.00445719
0.00446515
0.00448768
0.00453914
0.0041482
0.0023666
0.00105193
0.00545295
0.00534966
0.00523236
0.00511476
0.00500856
0.00492203
0.00488798
0.00336139
0.00255345
0.00150154
0.00145736
0.00146059
0.0017793
0.00202346
0.00198569
0.00166915
0.000801991
0.000774631
0.00503356
0.00523049
0.00534951
0.0053765
0.00535743
0.00530565
0.00519354
0.00437269
0.00398546
0.00383014
0.0031982
0.00287721
0.00270668
0.00261287
0.00257006
0.00254628
0.00249263
0.00253246
0.00329131
0.00355397
0.00387191
0.00422797
0.00458231
0.00477633
0.00466419
0.00419814
0.00393595
0.00363743
0.00396209
0.00479758
0.00439203
0.00405446
0.00375573
0.00351761
0.00341807
0.00335672
0.00343525
0.00358748
0.00332705
0.00336013
0.00345082
0.00355652
0.00380862
0.00400534
0.00414277
0.00398178
0.00417044
0.00431805
0.00538727
0.00537879
0.00524689
0.00521803
0.00509955
0.0049449
0.00478905
0.00470031
0.00471445
0.0044489
0.00455935
0.00469442
0.00485181
0.00398414
0.00393796
0.00387326
0.00383366
0.00386543
0.00395085
0.00408759
0.00420171
0.00447189
0.00474634
0.00502509
0.00524486
0.00538979
0.00550692
0.00554589
0.00559946
0.00566679
0.00571048
0.00540427
0.00541952
0.0054711
0.00555088
0.00565336
0.00577465
0.00401482
0.00421863
0.00419282
0.00416674
0.00418686
0.00423568
0.00431704
0.0044121
0.00440013
0.00460251
0.00482011
0.00504316
0.00525242
0.00544935
0.00562883
0.00571959
0.00588143
0.00602899
0.00595402
0.00603333
0.00612198
0.00622089
0.00632977
0.0064478
0.00422844
0.00441853
0.00480035
0.00481129
0.00457082
0.00448246
0.00446474
0.00439486
0.00426962
0.00450955
0.00491721
0.00518974
0.00528748
0.00542841
0.0057463
0.00546016
0.00582113
0.00612426
0.00625233
0.00638113
0.00651147
0.00664436
0.00678015
0.00691872
0.00545864
0.0052284
0.0053849
0.00546645
0.00547873
0.00505464
0.00515195
0.00524679
0.00545134
0.00565804
0.0056118
0.0056185
0.00565547
0.00584307
0.00581175
0.00592808
0.00622921
0.00634307
0.00646178
0.00659863
0.00674057
0.00688375
0.00702761
0.00717219
0.00731731
0.0055375
0.00552157
0.00551564
0.00552273
0.00555821
0.00505303
0.00515508
0.00527581
0.00541228
0.00556216
0.00571693
0.00586379
0.00598438
0.00610067
0.00622908
0.00635936
0.00648287
0.00660317
0.00673114
0.00687814
0.00703406
0.00718992
0.00734393
0.00749556
0.00764484
0.00595465
0.0059322
0.00590682
0.00590002
0.00592446
0.00519002
0.00525392
0.005346
0.00546643
0.00561419
0.00577789
0.00551546
0.00606614
0.0061951
0.00634057
0.00649008
0.00662933
0.0067653
0.00690923
0.00707001
0.00723969
0.00740748
0.00757135
0.00773067
0.00788538
0.00557461
0.00560157
0.00563449
0.00568734
0.00527737
0.00533753
0.00542179
0.00553265
0.00566965
0.0058242
0.00520884
0.00571178
0.00619407
0.00632456