/*--------------------------------*- C++ -*----------------------------------*\
  =========                 |
  \\      /  F ield         | OpenFOAM: The Open Source CFD Toolbox
   \\    /   O peration     | Website:  https://openfoam.org
    \\  /    A nd           | Version:  13
     \\/     M anipulation  |
\*---------------------------------------------------------------------------*/
FoamFile
{
    format      ascii;
    class       volScalarField;
    location    "200";
    object      omega;
}
// * * * * * * * * * * * * * * * * * * * * * * * * * * * * * * * * * * * * * //

dimensions      [0 0 -1 0 0 0 0];

internalField   nonuniform List<scalar> 
171247
(
831.5
294.717
76.6253
76.7387
77.1391
77.9563
79.4011
81.8345
85.3472
90.9973
92.3746
101.119
120.97
144.696
325.646
678.279
1095.32
237.677
47.9396
49.2566
50.8067
52.6897
54.9263
57.454
60.8894
65.6302
71.6742
74.7099
83.2651
96.3834
122.355
210.356
369.651
533.066
551.011
30.2343
31.1825
32.2925
33.5201
35.0169
37.0542
39.723
43.0625
46.9439
50.5501
53.7326
60.2095
68.1678
82.6151
113.439
166.112
232.529
230.555
23.7062
24.134
24.6388
25.3134
26.1995
27.3433
28.7811
30.5237
32.5337
34.6372
36.5089
38.4321
40.6158
43.4451
47.6603
54.2733
63.9529
81.6007
97.1108
110.542
122.458
133.372
21.1973
21.4219
21.6989
22.0418
22.4676
22.9943
23.6389
24.4137
25.3181
26.3153
27.3362
28.4005
29.5232
30.7811
32.3179
34.333
37.0445
40.8862
45.1889
49.4593
53.4864
57.1819
19.8709
19.971
20.0861
20.2179
20.3716
20.5548
20.7761
21.0448
21.3695
21.7549
22.1913
22.6706
23.1822
23.7234
24.3038
24.9512
25.6968
26.5694
27.6054
28.7593
29.9466
31.1032
32.1923
33.2015
19.3524
19.396
19.4401
19.4863
19.5386
19.602
19.6816
19.784
19.915
20.0764
20.2663
20.4785
20.7069
20.9484
21.2045
21.479
21.7774
22.101
22.4512
22.8175
23.186
23.5409
23.8743
24.1827
19.045
19.0457
19.0454
19.0464
19.0532
19.0724
19.1057
19.1526
19.2144
19.2911
19.3805
19.4793
19.5844
19.6941
19.8073
19.9249
20.0479
20.1766
20.3095
20.4431
20.5733
20.6949
20.8062
20.9068
18.9331
18.9079
18.8831
18.8618
18.8504
18.8512
18.8654
18.8926
18.9315
18.9794
19.0332
19.09
19.1477
19.2047
19.2605
19.3152
19.3696
19.4243
19.4789
19.5317
19.5809
19.6247
19.6617
19.6922
18.9767
18.9401
18.9046
18.8754
18.8564
18.8511
18.8591
18.8803
18.9122
18.9514
18.9943
19.0378
19.0802
19.1201
19.1568
19.19
19.2205
19.2494
19.2769
19.3021
19.3239
19.3411
19.353
19.3597
19.0925
19.0528
19.0165
18.9875
18.9697
18.9659
18.9759
18.9991
19.0329
19.0735
19.1166
19.1593
19.1999
19.2375
19.2711
19.3005
19.3264
19.3499
19.3716
19.3906
19.4059
19.4165
19.4223
19.4231
19.2139
19.1749
19.141
19.1152
19.1012
19.102
19.1171
19.1462
19.1864
19.2331
19.2816
19.3285
19.3722
19.4121
19.4474
19.4779
19.5044
19.5284
19.5502
19.5691
19.5839
19.5939
19.5988
19.5986
19.206
19.1672
19.1336
19.1082
19.0947
19.096
19.1118
19.1418
19.1831
19.2308
19.2799
19.3269
19.3697
19.4076
19.4402
19.4674
19.4906
19.5115
19.5305
19.5469
19.5595
19.5676
19.5707
19.569
19.0312
18.9955
18.9672
18.9502
18.9473
18.9586
18.9836
19.0193
19.0613
19.1048
19.1458
19.1823
19.2132
19.2381
19.2577
19.2735
19.2876
19.3006
19.3119
19.3204
19.3252
19.3257
19.322
18.9091
18.874
18.8452
18.8267
18.8219
18.8309
18.8535
18.887
18.9269
18.9686
19.0082
19.0433
19.0727
19.0959
19.1139
19.1287
19.1421
19.1548
19.1665
19.1758
19.1817
19.1836
19.1815
18.8729
18.8477
18.8257
18.8134
18.8137
18.8276
18.8547
18.8934
18.9404
18.9912
19.0419
19.0898
19.1332
19.1718
19.2059
19.237
19.2671
19.2971
19.3263
19.3531
19.3761
19.3948
19.4091
19.0045
19.0029
19.0021
19.007
19.0241
19.0553
19.1001
19.1596
19.2332
19.3183
19.4101
19.5047
19.5983
19.6883
19.7754
19.8618
19.9488
20.0369
20.1238
20.2065
20.2825
20.3508
20.4116
19.3831
19.4269
19.4768
19.5379
19.6157
19.7173
19.848
20.0094
20.1988
20.4082
20.6279
20.8497
21.0707
21.292
21.5169
21.7471
21.9846
22.2217
22.4492
22.6606
22.853
23.0272
20.0498
20.181
20.3352
20.5206
20.7465
21.0237
21.3618
21.7647
22.2189
22.7097
23.217
23.7237
24.2241
24.7322
25.2656
25.8393
26.472
27.1384
27.7923
28.4025
28.9539
29.446
21.4642
21.7511
22.1109
22.5633
23.1287
23.8255
24.6637
25.6354
26.6934
27.761
28.8085
29.8204
30.8376
31.9257
33.179
34.7069
36.8282
39.2094
41.5514
43.6843
45.5265
47.0989
24.4962
25.0463
25.7908
26.7738
28.0415
29.6197
31.4941
33.5911
35.749
37.8083
39.6028
41.369
43.3462
45.8922
49.4936
54.662
65.7296
75.9582
84.8114
92.2807
98.504
103.792
32.637
33.9686
35.431
37.0701
39.2193
41.9274
45.1768
48.8075
52.4277
55.6262
55.6312
56.9984
60.2752
66.6306
78.3625
97.5804
181.096
201.967
219.209
235.047
248.289
260.346
50.4306
52.0315
53.9334
56.2447
58.7999
61.9713
66.2193
71.6566
71.8903
74.0226
79.4938
90.3078
117.071
166.975
242.091
327.41
390.305
420.043
398.002
384.043
371.068
354.508
73.8907
74.2984
75.0647
76.3698
78.5286
81.8042
87.0378
87.2009
90.8165
100.656
123.947
145.799
273.359
475.403
707.029
564.083
258.103
145.082
145.458
165.986
193.569
208.458
93.6746
92.2175
91.302
91.1037
91.8945
94.6661
101.664
102.506
112.92
145.593
201.104
563.048
647.929
459.698
263.434
132.891
115.008
124.426
137.682
155.84
155.019
159.139
106.11
102.753
99.9644
97.8299
96.5932
97.0053
96.9466
101.257
121.6
148.682
383.315
844.753
631.663
217.43
121.864
122.768
122.468
121.551
124.064
128.044
122.272
116.489
111.371
106.853
103.19
100.876
100.621
100.013
108.15
134.971
189.74
385.423
720.893
561.882
223.753
136.546
116.12
111.08
119.642
120.143
122.532
127.907
137.515
130.642
124.371
118.553
113.172
108.381
104.905
103.586
102.852
106.896
118.765
162.229
253.556
392.649
518.891
570.157
517.563
441.274
416.728
399.825
388.102
378.005
119.559
115.01
110.967
107.722
105.531
104.22
104.111
108.879
121.576
148.971
189.135
234.807
226.706
237.862
247.828
257.911
266.672
275.549
106.738
105.672
104.488
103.213
102.209
101.433
101.249
101.993
103.994
107.429
112.195
121.582
128.759
134.231
138.391
141.335
143.281
130.421
128.659
127.507
127.164
127.949
130.281
134.786
137.097
153.046
194.291
473.319
744.219
91.0801
92.8561
94.9514
97.5675
100.619
104.235
109.384
117.425
121.671
136.893
166.955
243.433
437.353
575.691
642.083
628.65
648.864
50.6552
53.6323
56.7998
60.0374
63.727
68.2655
73.7332
80.097
86.9166
91.4886
101.299
111.475
125.158
140.284
159.75
186.78
222
258.48
31.3646
32.9954
34.8625
37.1773
40.023
43.4409
47.4033
51.7716
56.1974
59.8176
62.9144
65.7982
68.6572
71.7087
75.2752
79.7208
85.378
92.6773
103.185
111.411
117.99
123.445
24.8602
25.749
26.7894
28.0242
29.507
31.2719
33.3195
35.596
37.9645
40.158
42.1779
44.086
45.9028
47.6848
49.5192
51.5036
53.7156
56.2019
58.9485
61.5674
63.9036
65.9349
21.773
22.2153
22.6948
23.2121
23.7847
24.4365
25.191
26.0628
27.0491
28.1193
29.2221
30.3196
31.3928
32.434
33.4481
34.4492
35.4541
36.4794
37.5218
38.5514
39.5122
40.3767
41.1389
41.8088
20.9996
21.2676
21.5191
21.7488
21.9676
22.1942
22.4491
22.7714
23.1623
23.6162
24.1136
24.6284
25.1427
25.6496
26.1488
26.639
27.1202
27.5938
28.058
28.5015
28.9114
29.2795
29.6054
29.893
20.4136
20.5411
20.65
20.7381
20.8242
20.9291
21.0544
21.2046
21.3819
21.5839
21.8061
22.0396
22.2765
22.5107
22.7388
22.96
23.1737
23.3805
23.5799
23.7686
23.9423
24.0989
24.2382
24.3616
20.2291
20.2635
20.2846
20.3002
20.3286
20.3735
20.4334
20.5091
20.5984
20.6981
20.805
20.9157
21.0272
21.1366
21.2407
21.339
21.4316
21.5191
21.6017
21.6782
21.7466
21.806
21.8566
21.8993
20.4535
20.4385
20.4115
20.3898
20.3782
20.3804
20.3973
20.4271
20.4677
20.5156
20.5671
20.6194
20.6708
20.7199
20.7651
20.8056
20.8414
20.8741
20.9042
20.9309
20.9526
20.9686
20.9781
20.982
20.8342
20.7996
20.7611
20.7266
20.7003
20.6863
20.6857
20.6967
20.7169
20.7429
20.7707
20.7974
20.8223
20.8449
20.8639
20.8783
20.8892
20.898
20.9052
20.9098
20.9106
20.9066
20.8975
20.8832
21.3018
21.2596
21.2174
21.179
21.1487
21.131
21.127
21.1355
21.1527
21.1747
21.1971
21.2166
21.2329
21.2458
21.2545
21.2582
21.2582
21.2559
21.2521
21.2457
21.2355
21.2205
21.2002
21.1749
21.2876
21.2462
21.2049
21.1675
21.1382
21.1216
21.1189
21.1289
21.1478
21.1716
21.1953
21.2155
21.2313
21.2426
21.2486
21.2491
21.2458
21.2406
21.234
21.2252
21.2128
21.1958
21.1737
21.1469
20.7652
20.7277
20.6944
20.6694
20.6567
20.6576
20.6702
20.6924
20.7199
20.7482
20.7734
20.7945
20.8108
20.8214
20.8265
20.8277
20.8275
20.8268
20.8245
20.8192
20.81
20.7963
20.7785
20.3885
20.362
20.3407
20.3292
20.3313
20.3481
20.3781
20.4189
20.4662
20.5154
20.5627
20.6064
20.6457
20.6783
20.7037
20.724
20.7418
20.7581
20.7722
20.7828
20.7892
20.7914
20.7898
20.2092
20.2282
20.2414
20.2668
20.3082
20.3647
20.437
20.5229
20.6185
20.7195
20.8222
20.9231
21.0196
21.1077
21.1856
21.2549
21.3184
21.3779
21.4331
21.483
21.527
21.5652
21.5984
20.4709
20.5745
20.6557
20.7335
20.8292
20.9455
21.0872
21.2571
21.4526
21.6687
21.897
22.1279
22.3505
22.5603
22.7564
22.9383
23.1076
23.2661
23.4132
23.5476
23.6688
23.7777
23.8765
21.3371
21.5576
21.7679
21.9868
22.2426
22.5684
22.9685
23.4375
23.9556
24.4944
25.0252
25.5364
26.021
26.4734
26.8929
27.282
27.6444
27.9776
28.2759
28.5374
28.7665
28.9708
22.5165
23.0284
23.6023
24.2661
25.0472
25.9657
27.0233
28.1912
29.3875
30.5644
31.6911
32.7423
33.7118
34.6022
35.4235
36.1914
36.9139
37.5811
38.1711
38.6749
39.103
39.4735
25.7664
26.8508
28.1601
29.7564
31.6813
33.9366
36.461
39.0951
41.5392
43.6752
45.5872
47.303
48.8566
50.2834
51.6483
52.9987
54.3824
55.8311
57.1432
58.2306
59.1055
59.8097
34.1627
36.2124
38.7785
41.9423
45.7308
50.0758
54.7826
59.4368
63.1835
66.1214
68.7158
71.0852
73.3665
75.6449
78.087
80.8905
84.4403
90.2396
94.7527
98.0488
100.441
102.147
58.5932
62.1458
65.7431
69.5702
74.1112
79.375
85.2719
91.0302
90.5271
91.4168
94.0115
97.5876
101.674
106.512
112.69
121.434
136.102
188.8
195.459
199.528
202.556
205.22
95.6124
97.6432
100.12
103.124
106.461
111.074
118.297
117.984
121.872
133.98
161.679
191.192
217.457
241.724
264.085
298.459
342.324
369.864
391.094
370.314
348.679
328.377
125.878
124.902
124.625
125.346
127.615
131.846
130.94
139.384
164.466
206.481
407
593.486
949.519
645.846
785.688
755.421
541.719
291.802
260.21
253.458
259.117
245.609
144.615
141.317
138.934
137.747
138.561
144.159
144.236
164.337
195.151
620.168
2444.18
552.907
157.292
174.098
202.404
196.072
189.12
160.083
155.223
151.381
148.688
147.82
151.732
151.794
181.29
257.601
883.223
194.043
191.579
177.312
164.963
161.297
159.851
153.899
148.833
144.764
141.924
141.105
141.64
154.486
189.038
565.347
1932.69
375.832
215.513
212.423
255.454
284.751
276.934
153.594
147.165
141.575
136.963
133.351
131.231
130.575
132.719
146.673
192.374
325.935
545.515
757.198
779.459
642.435
625.981
561.309
530.221
404.978
389.712
377.221
365.025
126.451
124.399
123.197
123.155
124.714
131.528
146.845
172.076
189.237
202.717
213.4
226.32
236.039
197.371
199.376
200.59
200.173
199.837
98.8872
100.785
102.727
104.619
106.135
107.603
109.056
110.467
111.758
112.832
113.677
114.559
115.666
115.826
114.88
113.34
111.717
154.454
149.672
145.678
142.617
140.606
140.14
143.132
148.273
186.785
482.355
2398.7
140.089
138.352
137.155
136.583
136.378
137.049
139.173
141.418
156.562
206.945
344.145
553.49
605.496
609.399
602.611
589.876
573.187
594.504
100.626
103.827
106.766
109.398
112.353
115.772
119.661
123.982
127.097
137.239
150.565
165.254
176.575
186.109
195.796
205.874
217.468
231.956
56.4242
60.2981
64.1072
68.1323
72.6348
77.6771
83.086
88.6672
94.0113
98.2871
101.395
103.831
105.676
107.576
109.132
110.463
111.654
112.992
114.785
39.5659
42.1002
44.8274
47.7715
51.0416
54.7166
58.7398
62.9826
67.201
70.9837
74.0744
76.6901
78.7445
80.4201
81.768
83.0567
83.8365
84.2404
84.6169
85.0537
85.5101
85.8793
86.165
32.0195
33.7027
35.3714
37.0491
38.8087
40.7162
42.8073
45.0647
47.4337
49.8031
52.1052
54.1815
56.0049
57.5963
58.9528
60.0568
60.9214
61.5651
62.0602
62.4568
62.7693
63.0094
63.2032
63.3859
29.6808
30.7944
31.7184
32.4644
33.1004
33.7146
34.5094
35.4396
36.4949
37.6411
38.8145
39.9521
41.02
42.0052
42.8946
43.6461
44.278
44.7964
45.227
45.5838
45.8756
46.1105
46.3041
46.4747
26.874
27.5481
28.0467
28.3737
28.7047
29.0606
29.463
29.9105
30.3941
30.9169
31.4591
31.9993
32.5156
33.0006
33.447
33.8392
34.1714
34.4507
34.688
34.8906
35.0591
35.1972
35.3116
35.4097
25.334
25.6311
25.8115
25.958
26.1253
26.3085
26.519
26.7406
26.9672
27.2026
27.4447
27.6867
27.9184
28.1354
28.3312
28.5015
28.6431
28.7576
28.8502
28.9266
28.9876
29.0342
29.0688
29.0946
25.3523
25.4056
25.3926
25.3738
25.3742
25.3857
25.4134
25.4546
25.5049
25.5636
25.6301
25.6962
25.76
25.8183
25.8683
25.9065
25.9321
25.9466
25.9534
25.9533
25.9458
25.9307
25.9095
25.8835
26.226
26.1748
26.0908
25.9932
25.8912
25.794
25.7099
25.639
25.582
25.5338
25.4914
25.4482
25.4054
25.3638
25.3182
25.2664
25.21
25.1515
25.0927
25.0339
24.9737
24.9101
24.8426
24.7726
28.1156
28.0082
27.8691
27.7112
27.546
27.3811
27.2259
27.0849
26.9582
26.8404
26.7272
26.6107
26.4935
26.3786
26.2612
26.1393
26.0155
25.8928
25.7731
25.6562
25.5405
25.4243
25.3066
25.1879
28.0967
27.992
27.8559
27.7014
27.5393
27.3771
27.2245
27.0861
26.9622
26.847
26.7359
26.6202
26.5031
26.3863
26.2656
26.1399
26.0126
25.887
25.7649
25.6458
25.5282
25.4103
25.291
25.1711
26.116
26.0325
25.9353
25.8331
25.7337
25.6468
25.5729
25.5131
25.4619
25.4166
25.3697
25.3223
25.2736
25.2205
25.161
25.0978
25.0344
24.9724
24.9116
24.85
24.7862
24.72
24.6521
25.264
25.2487
25.227
25.2175
25.2191
25.2349
25.2639
25.3055
25.3582
25.4178
25.4774
25.5353
25.5872
25.6333
25.6652
25.6847
25.6951
25.7001
25.7012
25.6968
25.687
25.6728
25.6554
25.4112
25.5864
25.7265
25.8875
26.0621
26.2612
26.4718
26.6859
26.9088
27.1401
27.3749
27.6042
27.8219
28.0211
28.196
28.341
28.4583
28.5537
28.6332
28.7009
28.758
28.8065
28.85
27.3882
27.8724
28.1742
28.4693
28.7869
29.147
29.5566
30.0079
30.5103
31.0476
31.6024
32.1487
32.6713
33.1551
33.58
33.934
34.228
34.4743
34.6838
34.8658
35.0228
35.1627
35.2946
30.999
31.7273
32.3424
32.9571
33.7551
34.7093
35.8075
37.0327
38.319
39.5948
40.8101
41.9374
42.951
43.8091
44.4996
45.058
45.5207
45.8969
46.2062
46.4696
46.7105
46.9462
34.5597
36.2443
38.0342
39.9996
42.1877
44.595
47.1681
49.837
52.4706
54.8663
56.9796
58.8202
60.376
61.6133
62.5519
63.2133
63.6728
64.0013
64.2463
64.4515
64.6481
64.8521
44.7279
47.8259
51.3067
55.253
59.6091
64.231
68.8629
73.1351
76.6649
79.5729
81.8739
83.7141
85.1453
86.4582
87.1005
87.1219
86.9597
86.7448
86.5497
86.3727
86.2295
86.1417
66.9289
71.1915
75.9615
81.2702
86.9191
92.6541
98.087
102.818
106.1
108.386
109.966
111.587
112.722
113.361
113.475
113.269
113.06
113.16
114.167
114.636
114.757
114.732
110.247
112.959
115.354
117.894
120.772
123.947
127.453
132.251
131.139
131.713
134.094
136.574
139.071
141.651
144.023
146.238
148.776
154.85
182.915
181.88
180.137
178.379
139.556
138.068
137.165
136.67
136.948
138.645
138.059
143.739
161.716
201.178
237.347
254.421
264.997
273.079
277.846
280.323
285.45
296.359
304.938
323.812
306.475
290.986
148.668
144.652
141.479
139.323
138.723
141.622
144.269
170.37
217.208
486.014
701.481
956.925
968.984
949.037
922.6
785.338
729.895
636.885
478.709
399.189
301.755
263.152
147.891
142.889
138.544
135.034
132.583
131.855
142.647
207.307
551.63
473.578
215.311
277.576
230.935
209.015
134.905
129.494
124.664
120.378
116.286
118.029
131.865
175.116
1200.48
286.555
224.976
210.795
214.065
158.712
152.319
146.78
142.136
138.949
138.54
140.972
174.137
554.916
530.71
474.092
335.084
363.782
328.562
154.236
148.863
144.283
140.505
137.601
135.937
134.763
143.098
195.364
444.873
1048.43
746.892
813.105
817.831
797.091
603.78
511.098
405.146
381.907
284.002
275.912
267.663
113.883
114.11
115.6
117.043
124.863
140.178
154.012
163.354
169.984
174.142
175.614
173.982
172.861
171.829
142.716
141.802
140.45
138.86
76.3858
79.2841
82.5669
85.6221
88.1587
89.9736
91.2066
92.059
92.5824
92.69
92.3546
91.8507
91.3027
90.557
89.4675
88.0741
86.46
153.002
146.234
140.122
134.725
130.249
126.777
125.589
136.018
214.159
1262.7
159.885
154.526
149.552
144.781
140.298
136.486
134.689
136.8
172.24
320.228
576.857
596.933
558.117
457.366
444.766
489
497.59
501.563
150.862
148.557
146.097
143.768
141.799
140.817
139.672
140.37
143.936
165.707
195.567
211.918
219.287
224.319
229.301
231.938
232.499
233.052
112.573
114.616
116.485
118.581
120.906
123.882
126.702
129.239
131.287
133.219
135.563
137.838
140.219
141.757
144.579
146.49
147.014
146.108
144.195
83.672
87.0048
90.0847
92.9242
96.1248
100.185
104.284
108.271
111.815
114.759
116.86
118.118
119.002
119.701
119.65
118.249
115.636
114.851
113.828
112.862
111.933
111.175
110.597
66.7418
69.797
72.5354
75.0698
77.5843
80.2259
83.0683
85.8297
88.8076
91.6722
94.0442
95.8921
97.2906
98.3704
98.9949
99.3064
98.606
97.5266
96.2291
94.9643
93.8158
92.8235
92.0043
91.3704
61.3975
63.8709
65.4964
66.5066
67.3278
68.3553
69.6086
71.0475
72.5364
74.0372
75.4416
76.6734
77.7442
78.6615
79.353
80.0635
80.2077
79.9139
79.2685
78.5551
77.8433
77.1827
76.601
76.1106
52.5457
54.5772
55.6669
56.2994
56.8265
57.3263
57.8839
58.5429
59.2804
60.069
60.8255
61.4703
62.0622
62.577
63.0043
63.2888
63.3826
63.2925
63.0645
62.7639
62.4313
62.0926
61.7692
61.4753
43.1181
44.5216
45.6298
46.1368
46.605
47.1951
47.6635
48.2706
48.6866
49.0152
49.3198
49.5958
49.8165
50.0031
50.1575
50.2792
50.3457
50.3232
50.2172
50.0576
49.8639
49.65
49.4241
49.1955
48.9695
39.7197
40.2074
40.5682
40.6323
40.6327
40.8213
40.9698
41.0865
41.1905
41.28
41.3624
41.4337
41.4577
41.4529
41.4202
41.3601
41.2624
41.1236
40.9468
40.7508
40.5555
40.3549
40.1489
39.9393
39.7295
39.7418
39.747
39.6622
39.445
39.1544
38.9041
38.6408
38.3707
38.1211
37.9059
37.717
37.5341
37.3411
37.1436
36.95
36.7421
36.5108
36.261
36.0011
35.7455
35.498
35.2574
35.0205
34.7851
34.5516
45.977
45.6318
45.1289
44.53
43.9485
43.324
42.6726
42.0323
41.4345
40.8809
40.3476
39.8248
39.3153
38.8236
38.338
37.8468
37.3557
36.8713
36.4075
35.9694
35.555
35.1582
34.776
34.4064
46.0537
45.7186
45.2209
44.627
44.0522
43.4302
42.7787
42.1361
41.5346
40.9767
40.4389
39.9097
39.3963
38.9006
38.4051
37.9033
37.4032
36.9125
36.4438
36.002
35.5846
35.1859
34.8026
34.4327
39.6883
39.5872
39.3546
39.0459
38.7734
38.4733
38.1684
37.8816
37.6313
37.4127
37.21
37.0081
36.8195
36.6415
36.4509
36.2348
36.0029
35.7611
35.5232
35.2941
35.0727
34.8556
34.6413
34.4302
39.9915
40.0334
40.0043
40.1217
40.2083
40.2695
40.3216
40.3762
40.4414
40.5139
40.5661
40.61
40.728
40.7286
40.6907
40.6087
40.487
40.3456
40.2052
40.0616
39.913
39.7622
39.6133
44.4694
44.9996
45.4979
46.1486
46.6594
47.2856
47.6981
48.0057
48.2963
48.5935
48.8795
49.1691
49.5562
49.7932
49.9725
50.0567
50.0525
49.999
49.9119
49.8044
49.6803
49.5588
49.4497
54.4683
55.5856
56.1559
56.589
56.9501
57.3476
57.855
58.4785
59.2226
60.0229
60.8011
61.5877
62.3119
62.9527
63.4434
63.7244
63.8208
63.8015
63.7088
63.5719
63.4248
63.2956
63.2031
63.987
65.039
65.8469
66.8567
68.1186
69.618
71.2898
73.0514
74.7956
76.4391
77.9231
79.2299
80.3098
81.0672
81.7343
81.8684
81.5176
81.0649
80.5967
80.1758
79.836
79.5977
70.7046
73.4392
76.1658
79.032
82.1595
85.3147
88.7256
92.0201
94.8155
97.1161
98.989
100.531
101.577
102.335
102.048
101.291
100.184
99.0699
98.0589
97.2217
96.5937
96.1949
90.1459
93.2221
96.6837
101.022
105.408
109.667
113.455
116.618
118.833
120.439
121.717
122.94
123.287
119.965
114.947
119.221
118.239
117.212
116.209
115.457
114.999
114.887
119.135
121.21
123.51
126.332
129.023
131.297
133.032
134.695
137.165
140.017
142.906
139.461
136.014
134.498
133.105
131.169
148.043
146.326
144.786
144.967
145.177
145.7
149.775
147.169
144.684
142.379
140.919
139.333
139.615
139.208
145.416
157.33
166.981
173.632
178.44
181.997
183.578
182.826
181.102
178.921
178.173
209.837
209.695
209.163
153.04
147.908
142.924
138.26
134.29
132.846
134.251
151.08
201.336
271.279
294.4
298.183
301.751
307.523
304.932
299.718
299.516
297.465
296.871
293.896
349.044
316.579
143.938
137.702
132.288
127.875
124.512
123.589
133.133
204.167
418.486
674.321
952.424
665.938
662.884
663.196
499.93
737.36
627.493
568.98
539.385
430.029
279.383
254.869
142.979
138.001
133.296
129.313
125.751
124.97
137.511
267.206
467.03
279.16
253.81
232.392
153.115
147.257
141.975
137.299
133.58
132.371
143.95
373.747
366.633
249.629
219.546
292.686
151.353
145.379
140.269
136.057
133.058
132.399
140.949
203.802
733.386
533.133
369.099
317.892
133.219
128.712
124.995
122.187
120.73
122.011
121.782
141.974
260.899
557.769
844.822
603.401
528.271
499.909
686.267
742.116
688.32
462.868
313.685
277.777
197.473
188.04
92.0628
92.5738
94.8323
98.184
111.17
127.192
130.898
131.369
131.076
130.518
131.665
131.382
129.198
127.293
124.93
102.172
100.598
98.6387
60.7306
62.4795
64.7131
66.8278
68.2597
69.0716
69.6403
70.0068
70.0929
69.8927
69.4874
69.0807
68.7137
68.1539
67.3591
66.3017
65.0384
154.151
146.725
139.685
133.091
126.974
121.797
121.235
134.469
331.705
155.534
148.379
141.462
134.824
128.567
122.878
119.406
123.658
178.869
535.315
574.774
561.33
483.027
465.872
474.334
604.382
562.917
778.524
162.779
155.848
148.634
141.04
134.002
129.44
123.693
121.331
133.249
178.506
228.742
262.835
281.88
298.234
310.659
303.646
300.508
298.365
153.334
150.548
148.232
146.09
143.452
140.145
135.731
131.835
128.541
128.86
138.105
154.247
170.346
184.808
198.447
208.002
209.4
207.354
201.452
220.255
140.099
137.781
134.588
131.708
131.721
131.989
132.933
133.519
132.957
131.776
131.884
134.4
138.978
140.622
145.696
150.139
152.783
151.507
148.373
159.96
158.436
156.309
154.13
123.145
122.382
121.926
121.707
122.134
122.853
123.222
123.896
124.01
123.621
123.181
123.173
123.884
124.646
125.28
124.47
123.503
121.865
123.524
123.879
123.718
123.235
122.607
121.958
122.347
124.984
125.262
123.812
121.533
118.944
116.344
115.101
118.589
116.835
115.321
114.08
113.105
112.424
112.139
111.36
109.321
106.75
105.935
105.003
104.127
103.334
102.63
102.019
127.585
130.065
129.805
127.634
124.534
120.403
115.78
111.306
108.332
106.484
104.61
107.15
105.109
103.417
101.948
100.525
98.7959
96.8337
95.0734
93.4388
91.9502
90.6371
89.4956
88.5095
104.534
107.632
110.237
110.957
110.269
128.942
125.058
118.661
108.925
101.816
96.6273
92.6954
99.1176
96.5972
94.3233
92.2512
90.2771
88.2721
86.2751
84.4437
82.712
81.0958
79.6199
78.2871
77.0887
89.3421
90.7129
92
92.0998
91.0301
107.949
105.314
102.468
99.4062
96.3934
93.573
90.8731
88.2579
85.7479
83.4327
81.2843
79.2216
77.1711
75.1899
73.3485
71.6729
70.1003
68.6432
67.303
66.0707
67.8908
68.1438
68.5613
68.4547
67.7654
82.6189
81.535
80.2535
78.8788
77.5371
76.296
75.2099
73.8748
72.2891
70.6787
69.0844
67.447
65.7596
64.0819
62.4975
61.0721
59.7266
58.468
57.2955
56.2013
78.1454
77.6593
76.4761
74.6
95.9908
93.1351
90.1377
87.1647
84.3708
81.8695
79.8148
77.6675
75.3249
73.0043
70.783
68.5624
66.3373
64.1755
62.1509
60.3396
58.6551
57.0981
55.6609
54.3296
87.9499
87.7489
86.5111
84.2785
97.1388
94.1879
91.0839
88.0013
85.1017
82.502
80.3724
78.1662
75.7784
73.4417
71.1978
68.9363
66.6708
64.4762
62.4252
60.5925
58.893
57.3253
55.8816
54.5474
69.5273
69.2615
68.4506
67.0622
81.8671
80.3539
79.0744
77.6714
76.2815
74.9975
73.9315
72.6788
71.268
69.9223
68.4835
66.9602
65.3668
63.7749
62.2705
60.9283
59.6623
58.4781
57.3762
56.3502
75.3083
75.5927
75.0483
104.93
102.472
99.7539
96.78
93.8064
91.0252
88.4424
86.1091
83.9835
80.7112
79.5274
77.8301
76.1037
74.4073
72.8205
71.3772
70.0093
68.733
67.5559
66.4744
97.0984
97.4262
96.6727
127.269
123.706
117.42
107.05
98.7814
92.3518
87.4566
98.2571
96.1686
92.5855
91.6273
90.0893
88.4671
86.7802
85.2091
83.695
82.2599
80.9398
79.7506
78.6916
120.727
121.91
121.082
119.019
115.693
111.834
107.713
103.759
100.494
97.8102
107.704
106.03
104.769
103.516
102.289
100.855
99.0315
97.3569
95.7991
94.39
93.1682
92.1367
91.2837
129.078
127.454
124.708
121.021
116.863
113.11
119.313
117.58
116.288
115.382
114.727
114.295
114.193
113.676
110.719
106.149
108.712
107.941
107.238
106.636
106.148
105.785
120.69
120.03
119.167
118.333
117.989
124.829
125.082
124.9
124.686
124.956
125.965
126.935
127.793
124.843
121.208
118.485
127.556
128.243
128.364
128.141
127.779
127.437
132.607
132.76
132.761
131.065
129.827
130.071
130.425
130.35
133.658
136.793
142.111
139.606
139.338
140.969
142.359
141.494
139.221
167.815
166.339
164.252
162.186
160.44
148.995
146.673
143.88
141.312
138.347
135.667
132.906
131.468
135.195
144.314
155.308
166.722
177.373
185.033
188.818
187.811
184.443
232.898
222.778
215.736
209.769
205.184
154.492
147.618
140.329
133.556
130.588
126.147
123.579
129.868
157.104
193.159
221.969
241.931
258.373
271.327
255.281
266.694
265.593
261.566
254.24
289.089
274.915
263.677
146.667
140.265
134.112
128.262
122.528
120.481
121.835
152.659
258.502
336.18
373.837
385.035
398.98
413.312
377.861
449.357
459.955
454.981
427.036
407.334
269.808
212.068
146.837
140.358
134.081
128.075
122.703
121.331
129.03
196.119
962.761
872.592
635.21
652.582
596.204
608.532
1048.51
436.24
512.136
395.041
280.537
243.362
255.394
272.446
145.638
139.164
133.214
127.758
123.246
122.981
142.685
642.56
592.964
330.299
316.18
306.803
142.913
136.523
130.914
126.138
122.575
123.51
141.095
357.983
386.077
319.106
134.027
127.959
122.795
118.702
116.209
117.541
144.779
457.421
789.125
542.501
407.305
267.07
110.948
106.737
103.265
100.676
99.3026
99.6734
106.862
140.103
638.634
819.693
630.782
399.722
351.98
322.174
329.009
625.351
818.85
605.5
312.888
248.023
154.206
141.858
74.6692
75.3847
76.3136
83.3221
97.4578
103.936
104.398
103.24
101.857
100.569
99.5887
99.2486
98.6386
96.3419
93.7185
76.607
75.0745
73.1916
52.7061
53.5242
54.6341
55.5185
55.9034
56.0886
56.0363
55.8315
55.4811
54.9997
54.4728
54.045
53.707
53.2528
52.6193
51.735
50.697
144.728
138.008
131.842
126.142
120.95
116.575
116.004
136.283
838.776
143.892
136.943
130.652
125.02
119.897
116.93
113.441
117.541
188.349
523.859
627.336
734.528
779.07
528.776
749.985
442.494
316.726
349.846
290.578
152.777
144.339
136.693
131.119
123.077
117.44
113.114
114.535
148.449
213.495
383.143
516.725
568.36
797.027
666.549
470.676
416.477
383.474
158.549
154.906
151.304
146.444
138.995
131.824
125.113
122.292
127.715
132.279
169.234
223.752
281.02
337.4
453.661
569.411
636.798
577.241
418.768
307.387
143.999
141.23
140.516
140.76
140.512
139.941
138.069
135.49
134.295
136.528
143.326
193.511
192.354
205.797
225.25
245.959
269.054
284.801
308.595
265.236
239.499
219.639
204.432
144.412
143.214
143.887
141.102
137.76
135.843
134.596
133.371
146.886
147.599
152.172
154.312
155.552
159.161
163.664
169.317
175.566
180.242
199.074
190.131
181.181
172.92
165.59
205.942
204.243
197.336
184.533
168.982
154.748
143.791
135.673
133.113
133.497
134.11
134.055
132.592
131.851
131.363
131.732
130.83
129.949
140.531
140.923
139.809
137.821
135.383
235.454
233.856
223.34
210.56
198.459
185.973
173.506
162.146
151.468
142.152
134.754
128.373
124.505
122.594
120.755
118.332
116.162
113.537
111.103
113.246
113.347
113.061
112.452
111.594
249.552
242.94
238.917
229.991
217.303
203.346
189.38
178.035
168.675
160.291
152.962
145.48
136.761
128.397
121.851
116.798
112.666
109.002
105.419
106.559
104.427
102.546
100.855
99.3143
97.8908
253.97
248.092
244.555
237.458
225.031
209.474
192.706
177.457
164.17
153.087
144.272
137.135
130.677
124.114
118.098
112.968
108.338
103.9
99.5988
96.2225
99.2916
96.6731
94.2209
91.9511
89.862
173.468
175.722
179.454
179.938
175.787
169.2
212.408
199.921
187.778
175.949
165.537
153.762
137.211
124.953
114.811
107.041
100.881
95.5342
90.6049
86.3764
93.0105
90.4331
87.9254
85.5175
83.2307
195.519
194.412
196.326
192.622
184.916
176.379
228.753
213.197
197.782
183.669
171.835
160.545
144.461
131.959
120.639
111.348
103.927
97.3727
91.3595
86.0916
94.4808
91.6169
88.7994
86.0576
83.423
225.681
226.307
219.61
209.437
196.928
230.274
214.866
199.456
185.237
173.185
161.809
145.712
133.188
121.949
112.896
105.592
98.9632
92.8452
87.4544
95.2854
92.4885
89.7134
86.9944
84.3668
172.212
174.951
174.191
168.999
162.444
154.609
204.883
192.623
180.551
169.525
158.278
141.408
128.589
117.757
109.314
102.541
96.4702
90.894
86.0738
95.2685
92.689
90.1383
87.6609
85.2922
218.36
215.387
206.808
195.226
182.056
169.112
156.975
146.164
137.11
130.088
124.113
118.371
113.491
109.387
105.237
101.055
96.8711
93.2316
100.884
98.2189
95.7251
93.4172
91.2967
239.886
233.175
221.291
206.607
191.341
178.607
168
158.759
151.046
144.363
137.04
129.672
123.893
118.976
114.269
109.857
105.603
108.044
105.794
103.82
102.062
100.485
99.0534
238.184
228.12
215.542
204.217
192.878
181.49
171.245
160.798
151.042
142.523
134.442
127.71
123.041
119.517
116.439
113.635
110.657
107.916
113.788
113.815
113.545
113.014
112.277
225.182
213.07
199.419
184.331
169.161
155.784
144.233
135.787
131.089
128.46
134.905
133.436
130.149
126.187
124.055
121.829
119.854
139.927
140.564
139.775
138.123
135.995
178.408
177.473
167.507
154.326
143.727
136.814
132.642
146.647
147.685
152.735
155.113
150.565
146.768
146.268
147.03
147.408
149.507
198.313
190.144
181.781
173.923
166.804
135.099
134.361
134.706
136.445
136.793
136.711
136.05
136.549
138.606
194.839
185.933
181.918
188.197
196.229
196.004
227.459
235.086
267.065
241.272
221.236
205.722
193.52
151.417
147.771
142.051
136.966
132.307
129.965
131.544
139.529
155.096
184.408
219.776
256.4
269.46
290.123
342.776
357.883
382.991
304.549
270.572
245.953
228.048
213.134
144.386
136.81
132.83
125.418
119.234
115.613
121.342
132.07
165.3
306.057
374.398
441.677
611.164
682.073
1084.2
575.878
398.894
353.477
322.107
258.501
232.474
202.854
136.562
130.32
124.746
119.69
116.804
112.567
113.888
166.253
244.641
445.358
589.926
619.727
770.036
557.554
434.685
373.777
279.352
255.159
233.53
186.1
196.709
137.948
131.862
126.239
121.12
116.798
115.203
124.005
269.168
562.448
858.49
1078.91
674.7
551.48
1792.6
387.474
339.779
559.935
513.937
246.588
211.367
279.979
295.268
139.881
133.38
127.465
122.302
118.458
118.78
135.382
475.36
402.573
329.379
138.306
131.821
126.079
121.278
118.305
121.255
160.714
541.938
445.339
319.259
129.518
123.815
118.901
114.99
112.85
115.278
161.42
1560.21
650.818
388.053
235.469
108.14
104.515
101.47
99.1636