/*--------------------------------*- C++ -*----------------------------------*\
  =========                 |
  \\      /  F ield         | OpenFOAM: The Open Source CFD Toolbox
   \\    /   O peration     | Website:  https://openfoam.org
    \\  /    A nd           | Version:  13
     \\/     M anipulation  |
\*---------------------------------------------------------------------------*/
FoamFile
{
    format      ascii;
    class       volScalarField;
    location    "200";
    object      p;
}
// * * * * * * * * * * * * * * * * * * * * * * * * * * * * * * * * * * * * * //

dimensions      [0 2 -2 0 0 0 0];

internalField   nonuniform List<scalar> 
171247
(
-14.7774
-51.0088
-2.75106
-2.61088
-2.19657
-1.48235
-0.498608
0.628339
1.68668
2.23704
3.57201
0.488243
-8.03695
-12.8452
-28.9395
-58.0373
-44.371
-40.3576
-3.8015
-3.94353
-3.91056
-3.72537
-3.47287
-3.32708
-3.67154
-5.24729
-9.03929
-10.8807
-20.237
-30.2881
-37.4834
-39.0909
-37.6666
-39.2982
-39.85
-5.18082
-5.6316
-5.99631
-6.29632
-6.64708
-7.31317
-8.71091
-11.3181
-15.5296
-21.2916
-25.0138
-31.7421
-35.598
-36.4302
-36.044
-36.6352
-38.4784
-40.4431
-6.91967
-7.65118
-8.33597
-9.0159
-9.84279
-11.0625
-12.9526
-15.7485
-19.5489
-24.131
-28.7757
-32.3075
-34.4693
-35.3671
-35.6606
-36.0231
-36.5611
-37.9086
-38.8655
-38.4046
-36.8415
-34.7542
-8.80922
-9.78176
-10.7481
-11.7431
-12.8799
-14.3358
-16.285
-18.8339
-21.9657
-25.464
-28.8693
-31.6504
-33.5148
-34.5536
-35.1192
-35.532
-35.8737
-36.1425
-36.1222
-35.4362
-34.0572
-32.2324
-9.60563
-10.7573
-11.9493
-13.1382
-14.3218
-15.5779
-17.0368
-18.8143
-20.9638
-23.4475
-26.1072
-28.6639
-30.8065
-32.36
-33.3643
-33.9814
-34.3485
-34.4971
-34.3989
-33.9923
-33.1603
-31.8843
-30.2836
-28.5024
-11.2681
-12.5727
-13.9234
-15.2523
-16.524
-17.7836
-19.131
-20.656
-22.4002
-24.3409
-26.3775
-28.3406
-30.0419
-31.3599
-32.2835
-32.8746
-33.1912
-33.2405
-32.9946
-32.4273
-31.5259
-30.3169
-28.8761
-27.2949
-12.7353
-14.13
-15.5673
-16.967
-18.2663
-19.4791
-20.6837
-21.9598
-23.3521
-24.8608
-26.4361
-27.9786
-29.363
-30.4854
-31.3038
-31.8324
-32.0947
-32.086
-31.7776
-31.1568
-30.2484
-29.1037
-27.7863
-26.3599
-13.8898
-15.3341
-16.8208
-18.2603
-19.5656
-20.7258
-21.8035
-22.8746
-23.9892
-25.1709
-26.4078
-27.6462
-28.7975
-29.7662
-30.4922
-30.964
-31.1871
-31.1475
-30.8151
-30.1839
-29.2923
-28.2028
-26.9757
-25.6617
-14.7291
-16.2019
-17.7164
-19.1756
-20.4753
-21.5879
-22.5648
-23.4801
-24.3922
-25.3398
-26.3363
-27.3586
-28.3431
-29.2008
-29.858
-30.2859
-30.4806
-30.4228
-30.0809
-29.4518
-28.58
-27.5326
-26.3691
-25.1333
-15.2709
-16.7612
-18.291
-19.7584
-21.05
-22.1285
-23.0393
-23.8539
-24.6343
-25.4286
-26.2672
-27.1482
-28.0251
-28.8138
-29.4302
-29.8329
-30.0125
-29.9465
-29.6014
-28.9756
-28.1171
-27.0956
-25.9703
-24.782
-15.5361
-17.0343
-18.5701
-20.039
-21.3233
-22.381
-23.2543
-24.0125
-24.7185
-25.4263
-26.1759
-26.9785
-27.7983
-28.5551
-29.159
-29.5601
-29.7429
-29.6809
-29.3381
-28.7148
-27.8622
-26.8521
-25.7439
-24.5775
-15.5343
-17.035
-18.5734
-20.0445
-21.3299
-22.3871
-23.2578
-24.0108
-24.7082
-25.4033
-26.1385
-26.9281
-27.7407
-28.4992
-29.1134
-29.5304
-29.729
-29.677
-29.3364
-28.709
-27.8496
-26.8323
-25.7174
-24.5455
-16.7663
-18.3041
-19.7783
-21.074
-22.1513
-23.0541
-23.8526
-24.6064
-25.3634
-26.159
-27.002
-27.8582
-28.6515
-29.2966
-29.743
-29.9658
-29.9269
-29.5864
-28.9483
-28.0697
-27.0267
-25.8815
-24.6769
-16.2086
-17.7364
-19.2078
-20.5156
-21.6285
-22.5944
-23.4847
-24.3548
-25.2442
-26.1745
-27.1396
-28.0951
-28.9637
-29.6661
-30.1562
-30.4093
-30.3847
-30.0432
-29.3899
-28.4826
-27.3979
-26.2004
-24.9379
-15.3456
-16.8495
-18.3052
-19.6221
-20.7844
-21.8495
-22.8889
-23.9509
-25.0608
-26.2175
-27.3882
-28.5082
-29.4947
-30.2775
-30.8201
-31.1018
-31.0854
-30.7366
-30.0616
-29.1152
-27.9714
-26.6965
-25.3463
-14.1444
-15.6014
-17.0206
-18.3347
-19.5518
-20.7442
-21.9869
-23.3234
-24.7577
-26.2526
-27.731
-29.0924
-30.2432
-31.1268
-31.7251
-32.029
-32.0139
-31.6532
-30.954
-29.9627
-28.7424
-27.3606
-25.887
-13.9667
-15.3151
-16.6022
-17.867
-19.203
-20.6961
-22.3887
-24.2639
-26.2366
-28.1588
-29.8665
-31.239
-32.2358
-32.8785
-33.1935
-33.1792
-32.8179
-32.1145
-31.0893
-29.7783
-28.2529
-26.6095
-11.9949
-13.2018
-14.4012
-15.6647
-17.1161
-18.8684
-20.9777
-23.4165
-26.0471
-28.6043
-30.8091
-32.4756
-33.5707
-34.2045
-34.4887
-34.4693
-34.146
-33.5137
-32.5088
-31.1059
-29.3958
-27.5266
-9.8401
-10.8206
-11.8288
-12.974
-14.4291
-16.3659
-18.8937
-22.0094
-25.5306
-28.9955
-31.9239
-33.9997
-35.1665
-35.6977
-35.8843
-35.8746
-35.707
-35.3399
-34.4593
-32.9556
-30.9983
-28.8267
-7.72958
-8.43728
-9.13798
-9.97851
-11.2065
-13.0995
-15.8956
-19.705
-24.3557
-29.1102
-33.1083
-35.573
-36.6441
-36.8433
-36.7596
-36.707
-37.1124
-37.5827
-37.0115
-35.3823
-33.0756
-30.4772
-5.73493
-6.13285
-6.47974
-6.88508
-7.59824
-9.03101
-11.6621
-15.9056
-21.7949
-28.4713
-33.1979
-36.9336
-38.0915
-37.8191
-37.294
-37.2378
-38.8585
-41.199
-40.901
-39.0426
-36.1868
-32.9286
-4.1405
-4.15266
-4.02173
-3.84278
-3.79093
-4.22026
-5.81634
-9.56802
-16.0186
-24.3753
-32.6103
-39.4917
-41.25
-39.2291
-37.8232
-38.7199
-39.7324
-44.5237
-43.962
-41.8592
-38.3029
-34.221
-2.93388
-2.56617
-1.90895
-0.989967
0.0707177
1.06875
1.64011
-1.69418
-6.2245
-16.1244
-30.1007
-41.1235
-49.3686
-43.1685
-38.4334
-40.166
-41.1661
-43.8229
-44.5729
-42.4094
-38.5971
-34.3349
-2.21815
-1.54833
-0.468052
1.07401
3.09773
5.51909
8.04217
7.73153
7.04886
2.47829
-8.1228
-32.383
-81.3088
-57.4581
-39.7284
-40.43
-41.1696
-42.8863
-42.9751
-39.6683
-36.7891
-33.4633
-1.71267
-0.933839
0.281787
2.01053
4.30762
7.07735
9.19608
11.8241
13.1135
12.6179
11.9898
41.8717
-38.2373
-39.1124
-40.2878
-41.8734
-41.4188
-38.5092
-36.1992
-33.3796
-1.15225
-0.503874
0.507571
1.91725
3.6989
5.65819
7.32587
8.73206
7.04131
-0.15233
-8.61477
-25.8453
-71.5437
-49.5679
-39.5799
-39.6247
-40.5407
-41.7781
-40.8131
-38.7715
-36.4443
-33.4852
-0.626423
-0.230463
0.397119
1.21354
2.08188
2.69614
2.41256
0.217742
-2.54211
-12.2278
-24.9046
-35.392
-43.2721
-41.3747
-39.0356
-39.1975
-40.79
-43.0444
-40.3422
-37.6848
-34.9485
-31.916
0.331832
-0.0881071
-1.53492
-4.7179
-10.1624
-15.3569
-23.644
-29.6613
-32.8541
-33.8429
-34.9504
-36.6387
-37.4677
-39.1936
-37.9409
-35.9236
-33.7661
-31.4171
-2.14139
-3.98514
-7.0571
-11.4547
-16.5893
-21.6049
-25.4505
-27.9551
-29.6381
-31.0901
-32.4212
-33.9224
-34.5811
-33.8987
-32.4252
-30.6747
-28.7938
-3.15478
-2.99564
-2.52145
-1.69172
-0.525565
0.880482
2.2664
4.70739
5.20119
-0.875969
-12.145
-6.22062
-4.04941
-4.19728
-4.13689
-3.88609
-3.51692
-3.22554
-3.54125
-5.46174
-5.71541
-13.6985
-26.8651
-36.4398
-51.0301
-47.8754
-37.8495
-37.7899
-39.7827
-5.26429
-5.75747
-6.13513
-6.40312
-6.70278
-7.37389
-8.9158
-11.9383
-16.8828
-19.9471
-28.5476
-35.3282
-38.743
-38.3061
-36.9568
-37.0278
-38.3422
-40.7081
-6.96627
-7.74281
-8.4425
-9.10976
-9.9318
-11.2129
-13.2769
-16.4099
-20.7091
-25.8591
-30.4839
-33.8936
-35.7574
-36.417
-36.6941
-37.0781
-37.5201
-37.8661
-38.3491
-37.8363
-36.1651
-33.8991
-8.89625
-9.92957
-10.9299
-11.9296
-13.0743
-14.5861
-16.6586
-19.4022
-22.7823
-26.4992
-29.9735
-32.6494
-34.3325
-35.246
-35.798
-36.1926
-36.4261
-36.3687
-35.9829
-35.0953
-33.6139
-31.7009
-9.70841
-10.9432
-12.2197
-13.4551
-14.6405
-15.8919
-17.3705
-19.1986
-21.4262
-24.0024
-26.7417
-29.3157
-31.4019
-32.8716
-33.8222
-34.4329
-34.7978
-34.9006
-34.6452
-34.016
-33.0199
-31.648
-29.9805
-28.1563
-11.4511
-12.8519
-14.3056
-15.6949
-16.9637
-18.1922
-19.5136
-21.0239
-22.7675
-24.7234
-26.7779
-28.7439
-30.4227
-31.702
-32.5958
-33.1799
-33.4958
-33.5213
-33.188
-32.4881
-31.4701
-30.1825
-28.6905
-27.0793
-12.9755
-14.4578
-16.001
-17.4709
-18.7682
-19.9329
-21.0803
-22.2995
-23.6416
-25.1154
-26.676
-28.22
-29.6058
-30.7139
-31.5113
-32.0287
-32.291
-32.2742
-31.9187
-31.2137
-30.2209
-29.0153
-27.6596
-26.2128
-14.1413
-15.6627
-17.2582
-18.7792
-20.091
-21.2017
-22.2113
-23.205
-24.2398
-25.355
-26.553
-27.786
-28.9492
-29.9196
-30.6322
-31.0944
-31.3229
-31.2854
-30.9231
-30.2288
-29.2699
-28.1311
-26.8746
-25.5463
-14.9673
-16.5117
-18.1383
-19.6878
-21
-22.0614
-22.9624
-23.7907
-24.6117
-25.4786
-26.4232
-27.4345
-28.4371
-29.3098
-29.9603
-30.3797
-30.583
-30.5333
-30.1695
-29.4869
-28.5565
-27.4659
-26.2776
-25.0311
-15.4971
-17.0569
-18.7002
-20.262
-21.5694
-22.5981
-23.4334
-24.1591
-24.8422
-25.5451
-26.321
-27.1844
-28.082
-28.8959
-29.5124
-29.9091
-30.1006
-30.047
-29.6835
-29.0076
-28.0937
-27.0316
-25.8834
-24.6856
-15.7562
-17.3247
-18.9755
-20.5408
-21.8423
-22.8521
-23.6503
-24.317
-24.9197
-25.5269
-26.2042
-26.9822
-27.8233
-28.6131
-29.2257
-29.6279
-29.8295
-29.7839
-29.4233
-28.7494
-27.8414
-26.791
-25.6601
-24.4842
-15.7535
-17.325
-18.9789
-20.547
-21.8502
-22.8598
-23.656
-24.319
-24.9124
-25.5035
-26.1608
-26.9199
-27.7498
-28.5408
-29.1678
-29.594
-29.8195
-29.7882
-29.4295
-28.7501
-27.8341
-26.7755
-25.6372
-24.455
-17.0612
-18.714
-20.2846
-21.598
-22.6265
-23.4543
-24.1657
-24.8191
-25.474
-26.1907
-26.9988
-27.864
-28.6821
-29.339
-29.8035
-30.0622
-30.0481
-29.6908
-28.9996
-28.0627
-26.9765
-25.8059
-24.5895
-16.5167
-18.1591
-19.7243
-21.0485
-22.1128
-23.0042
-23.8072
-24.5791
-25.3702
-26.223
-27.1506
-28.1094
-28.9976
-29.7118
-30.2263
-30.5197
-30.5209
-30.1619
-29.4532
-28.4839
-27.3525
-26.1265
-24.8496
-15.6725
-17.2881
-18.8301
-20.1592
-21.2763
-22.2745
-23.2344
-24.2061
-25.2267
-26.3114
-27.4426
-28.5555
-29.5492
-30.3414
-30.9126
-31.236
-31.2443
-30.8757
-30.14
-29.1245
-27.9274
-26.6191
-25.251
-14.4713
-16.0373
-17.532
-18.8507
-20.025
-21.1617
-22.343
-23.6157
-24.9889
-26.4323
-27.8744
-29.2139
-30.3523
-31.2394
-31.8669
-32.2112
-32.2147
-31.8226
-31.0469
-29.9717
-28.687
-27.2633
-25.766
-14.3508
-15.7644
-17.0548
-18.2929
-19.6023
-21.0734
-22.749
-24.6123
-26.568
-28.4588
-30.1188
-31.4495
-32.4382
-33.1109
-33.4682
-33.4655
-33.0419
-32.2204
-31.0795
-29.6841
-28.1025
-26.4258
-12.2657
-13.5216
-14.7266
-15.9864
-17.453
-19.2448
-21.414
-23.9187
-26.6021
-29.1551
-31.2788
-32.8436
-33.8984
-34.5669
-34.9014
-34.8828
-34.4448
-33.6123
-32.4333
-30.9174
-29.1323
-27.2186
-9.98333
-10.9959
-12.0088
-13.1601
-14.6639
-16.7113
-19.4149
-22.7574
-26.4921
-30.0126
-32.8106
-34.6577
-35.6934
-36.2564
-36.502
-36.4647
-36.0689
-35.3444
-34.2069
-32.5628
-30.5061
-28.2791
-7.81814
-8.5349
-9.2179
-10.0486
-11.3307
-13.3878
-16.4986
-20.7881
-26.0466
-30.7767
-34.4693
-36.5768
-37.4005
-37.6552
-37.7267
-37.6882
-37.4737
-37.3182
-36.4847
-34.6781
-32.2141
-29.5646
-5.86159
-6.27417
-6.59357
-6.94905
-7.66435
-9.24703
-12.305
-17.2789
-22.884
-29.3843
-35.2494
-38.3122
-38.9391
-38.5048
-38.018
-37.9567
-38.1916
-39.874
-40.1517
-38.0145
-34.8167
-31.6041
-4.42672
-4.41116
-4.21637
-3.93376
-3.75386
-4.16038
-6.12731
-11.3793
-18.1454
-28.7578
-38.3339
-43.7586
-43.1478
-40.421
-38.2259
-38.4122
-39.9295
-41.6013
-44.7854
-41.9656
-37.6079
-33.4248
-3.3406
-2.91155
-2.13855
-1.03275
0.291856
1.59401
-0.18553
-1.37314
-9.00907
-22.3592
-40.258
-54.0648
-62.7124
-58.8926
-38.3174
-39.3745
-40.883
-44.0847
-45.8741
-43.4606
-39.0187
-34.5883
-2.6743
-1.90555
-0.66495
1.12972
3.55893
6.62759
7.34517
10.2387
6.2482
-10.3987
11.1478
-42.1355
-43.8616
-45.2555
-42.1452
-37.151
-33.9675
-2.10255
-1.24168
0.118023
2.09846
4.8681
8.5407
11.2859
15.6707
16.1469
10.1443
-42.6687
-42.0505
-39.3655
-36.2278
-33.7604
-1.54788
-0.810179
0.348533
1.9761
4.10369
6.59183
9.20528
11.7494
9.80228
-3.33092
4.35107
-40.5404
-42.2568
-41.4642
-38.6109
-36.6539
-33.733
-0.714608
-0.256097
0.478512
1.463
2.57668
3.42461
3.18458
3.56222
-3.01702
-16.6025
-30.4371
-42.1894
-49.9468
-46.0697
-36.3437
-38.3748
-40.6949
-42.2061
-40.3474
-37.5393
-35.0841
-32.191
0.741284
0.423156
-1.11545
-4.72207
-7.90767
-17.5173
-26.0544
-31.51
-32.923
-33.7211
-34.9962
-36.998
-38.6921
-38.3043
-37.5188
-35.3309
-32.9927
-30.6295
-1.94258
-3.8653
-7.23984
-12.1209
-17.6421
-22.5766
-26.0251
-28.1517
-29.81
-31.517
-33.1464
-34.2439
-34.5955
-33.6799
-31.9663
-30.0341
-28.1117
-3.61458
-3.507
-3.03281
-2.12526
-0.746093
1.02814
2.84802
7.17065
4.60531
-6.94369
-0.870886
-4.30484
-4.47896
-4.40621
-4.07925
-3.56195
-3.15372
-3.54846
-2.20617
-7.64229
-22.5645
-39.8962
-58.9393
-51.5633
-41.2566
-36.0079
-36.5233
-39.286
-42.1126
-5.29012
-5.88079
-6.29271
-6.51276
-6.75542
-7.50165
-9.35079
-13.1711
-14.9541
-24.8257
-35.2008
-40.7548
-40.599
-38.6946
-37.9319
-38.7734
-40.0446
-40.8073
-6.00174
-6.94068
-7.83052
-8.5757
-9.21147
-10.028
-11.4652
-13.8674
-17.6675
-22.9601
-28.4266
-33.2811
-36.2652
-37.441
-37.6749
-38.1731
-38.8638
-39.2272
-38.9167
-7.82132
-9.00241
-10.211
-11.3117
-12.301
-13.4468
-15.091
-17.3975
-20.4889
-24.3012
-28.3017
-31.7785
-34.1788
-35.4827
-36.2402
-36.9741
-37.4117
-37.5941
-37.1104
-36.0705
-34.6962
-32.9175
-30.8217
-9.8678
-11.3291
-12.8402
-14.1919
-15.3599
-16.58
-18.072
-19.9575
-22.2656
-24.9529
-27.7739
-30.3238
-32.2892
-33.6135
-34.5186
-35.193
-35.6199
-35.7312
-35.2218
-34.1955
-32.8624
-31.2766
-29.4805
-27.5818
-11.8449
-13.4918
-15.2112
-16.7319
-17.9512
-19.0681
-20.281
-21.6938
-23.3704
-25.2993
-27.3527
-29.3184
-30.9621
-32.1822
-33.0474
-33.664
-34.0137
-34.0445
-33.5732
-32.631
-31.3953
-29.9606
-28.3774
-26.7163
-13.4733
-15.1538
-16.9598
-18.5896
-19.8423
-20.8534
-21.8383
-22.8941
-24.0976
-25.4721
-26.986
-28.5372
-29.9319
-31.0136
-31.7744
-32.2877
-32.5855
-32.5966
-32.1728
-31.3091
-30.1638
-28.8539
-27.435
-25.9557
-14.6124
-16.3005
-18.1704
-19.8917
-21.1984
-22.1456
-22.9754
-23.766
-24.6214
-25.6031
-26.7312
-27.9763
-29.1775
-30.1487
-30.8218
-31.2684
-31.5343
-31.5301
-31.1185
-30.2988
-29.216
-27.9946
-26.6915
-25.3411
-15.3817
-17.0814
-18.9941
-20.7695
-22.0924
-22.9927
-23.705
-24.337
-24.9656
-25.6658
-26.5096
-27.5195
-28.59
-29.5017
-30.1172
-30.5128
-30.7553
-30.7454
-30.3403
-29.5424
-28.4989
-27.3356
-26.1092
-24.8462
-15.8752
-17.5856
-19.5173
-21.3136
-22.6387
-23.5262
-24.1898
-24.7297
-25.2105
-25.7216
-26.3727
-27.2205
-28.2029
-29.0844
-29.6721
-30.0398
-30.274
-30.2637
-29.8584
-29.0665
-28.0388
-26.9048
-25.7208
-24.5084
-16.1133
-17.8354
-19.7779
-21.5797
-22.9023
-23.7837
-24.4182
-24.8979
-25.2866
-25.6822
-26.2116
-26.9568
-27.889
-28.7675
-29.3671
-29.7508
-30.0072
-30.0095
-29.6033
-28.8099
-27.7867
-26.6644
-25.4982
-24.3079
-16.1109
-17.8366
-19.7837
-21.5896
-22.915
-23.7958
-24.4303
-24.9096
-25.2879
-25.6602
-26.1575
-26.8697
-27.7799
-28.657
-29.2795
-29.7061
-30.0065
-30.0325
-29.6269
-28.8237
-27.7896
-26.6573
-25.4818
-24.2834
-17.592
-19.5361
-21.3453
-22.6807
-23.5668
-24.224
-24.7557
-25.201
-25.642
-26.1976
-26.9483
-27.8677
-28.747
-29.3958
-29.8894
-30.248
-30.3041
-29.9041
-29.0887
-28.0326
-26.8707
-25.6601
-24.4249
-17.0873
-19.0209
-20.8199
-22.1633
-23.0716
-23.7788
-24.3881
-24.9528
-25.5387
-26.2293
-27.0907
-28.0804
-29.0161
-29.7021
-30.2746
-30.6915
-30.7757
-30.3824
-29.5516
-28.4629
-27.2534
-25.9834
-24.6841
-16.307
-18.2039
-19.9583
-21.2966
-22.2604
-23.0849
-23.8413
-24.6132
-25.4486
-26.3814
-27.4378
-28.5418
-29.5507
-30.3183
-30.9633
-31.4141
-31.508
-31.1088
-30.2496
-29.1082
-27.8252
-26.465
-25.0692
-15.1644
-17.0014
-18.6708
-19.9626
-20.9979
-21.9783
-22.9909
-24.0988
-25.3127
-26.6174
-27.9691
-29.2577
-30.3728
-31.2764
-31.9885
-32.4567
-32.5342
-32.0958
-31.1758
-29.9543
-28.5641
-27.0728
-25.5386
-15.2589
-16.8195
-18.0785
-19.2186
-20.4223
-21.7833
-23.3592
-25.1299
-26.9964
-28.799
-30.3657
-31.6369
-32.6493
-33.4218
-33.9205
-33.9697
-33.4361
-32.4015
-31.0571
-29.5125
-27.8346
-26.1057
-12.8813
-14.2641
-15.4664
-16.7025
-18.1762
-20.0058
-22.2141
-24.7542
-27.4428
-29.9122
-31.8689
-33.2814
-34.3352
-35.1398
-35.6201
-35.6757
-35.042
-33.8556
-32.3496
-30.6058
-28.6841
-26.7005
-10.2427
-11.3562
-12.3669
-13.5225
-15.1457
-17.3986
-20.3945
-24.0806
-28.0746
-31.5703
-34.0436
-35.4883
-36.3826
-37.1826
-37.5664
-37.5883
-36.8728
-35.5576
-33.9058
-31.9114
-29.6583
-27.3386
-7.88502
-8.63664
-9.28466
-10.1063
-11.5302
-13.8928
-17.5738
-22.5867
-28.5701
-33.4164
-36.4877
-37.8745
-38.2589
-38.7641
-39.2533
-39.2954
-38.6151
-37.3411
-35.8159
-33.5609
-30.8118
-28.0009
-5.98821
-6.43964
-6.70901
-6.99329
-7.77135
-9.64488
-13.5093
-19.334
-26.4317
-33.9414
-38.4026
-39.6902
-39.3947
-39.3046
-39.6397
-39.9024
-39.565
-38.8988
-38.0493
-35.9196
-32.5611
-29.1742
-4.76554
-4.73316
-4.46558
-4.02525
-3.69809
-4.17012
-7.99529
-13.3404
-23.8095
-38.4197
-46.1205
-44.7549
-40.8254
-39.1999
-39.8571
-40.7323
-40.6646
-41.2507
-41.1638
-38.5119
-34.2029
-29.6378
-3.91072
-3.46136
-2.59134
-1.27163
0.427226
2.1661
0.917688
-3.40584
-17.2445
-45.088
-70.7779
-61.7587
-48.5986
-40.6653
-42.0231
-40.3078
-39.4066
-43.0955
-45.4501
-43.7395
-36.6449
-32.8484
-3.39022
-2.49725
-1.04614
1.06599
3.90174
5.56909
10.6132
11.4712
1.99998
-45.4337
-47.5528
-42.2274
-37.2977
-34.1859
-2.50349
-1.47302
0.122117
2.4281
5.58041
8.98266
15.5526
19.9118
24.1271
-43.957
-39.2423
-36.9922
-34.6071
-1.52067
-0.690375
0.651716
2.60136
5.27888
8.78343
13.0124
15.8991
10.594
-42.8187
-41.4757
-38.9936
-36.6913
-33.5979
-0.830691
-0.283473
0.606546
1.86118
3.42912
4.96538
6.85124
5.46879
-6.15102
-27.0371
-45.5796
-45.7864
-37.5969
-34.6673
-42.6761
-44.1179
-42.1431
-43.8998
-41.0206
-36.4366
-33.956
-31.4038
1.06863
0.924956
-0.710111
-2.23783
-10.7072
-22.3319
-30.284
-32.259
-31.7531
-32.4728
-35.4312
-39.6738
-41.9899
-41.2741
-37.3314
-34.6
-32.0251
-29.6962
-2.0377
-4.19191
-8.17221
-13.6392
-19.6609
-24.2132
-26.6162
-28.0187
-29.6087
-31.8019
-34.2161
-35.7722
-35.575
-34.0264
-31.764
-29.5421
-27.5431
-4.02186
-3.927
-3.43937
-2.44994
-0.928782
0.936046
4.41477
6.52661
4.77959
-4.27853
-5.06417
-5.30015
-5.20952
-4.74136
-4.04156
-3.61109
-4.27222
-3.50048
-13.4372
-32.4189
-61.0188
-55.8757
-40.495
-33.5793
-34.01
-36.9476
-43.9634
-41.9481
-5.5105
-6.32489
-6.83384
-7.04909
-7.21639
-8.22324
-10.367
-14.8211
-18.0483
-30.9422
-40.621
-41.9224
-39.1566
-37.7057
-38.7192
-41.2042
-42.9991
-42.0239
-5.60217
-6.77163
-7.93464
-8.86318
-9.46923
-10.2376
-12.1358
-15.1015
-19.6525
-25.8009
-31.6964
-36.1329
-37.9301
-38.8247
-38.8297
-39.8362
-41.147
-41.8462
-39.9774
-7.5731
-8.97216
-10.4923
-11.9089
-12.9071
-14.0407
-16.0636
-18.8481
-22.3511
-26.4967
-30.6798
-33.8243
-35.5796
-36.3041
-37.0807
-38.2683
-39.2912
-39.2049
-38.0833
-36.3174
-34.2371
-31.9753
-29.5951
-9.90067
-11.7859
-13.7624
-15.3656
-16.5969
-17.8919
-19.4701
-21.5525
-23.8406
-26.4821
-29.2319
-31.6183
-33.2829
-34.3115
-35.1711
-36.0603
-36.6787
-36.8857
-35.9888
-34.4705
-32.6664
-30.7351
-28.7441
-26.7684
-12.3194
-14.4746
-16.7818
-18.5614
-19.7103
-20.7162
-21.781
-23.0063
-24.6163
-26.353
-28.2684
-30.1576
-31.6817
-32.7571
-33.5683
-34.305
-34.7543
-34.811
-34.1338
-32.841
-31.2937
-29.633
-27.9158
-26.1976
-14.2225
-16.2952
-18.6746
-20.6017
-21.749
-22.5072
-23.2143
-23.9632
-24.8892
-26.0771
-27.4963
-29.1428
-30.5329
-31.5161
-32.1466
-32.6153
-33.0398
-33.1766
-32.6395
-31.4854
-30.0989
-28.634
-27.1258
-25.6077
-13.8484
-15.3249
-17.3259
-19.7655
-21.8287
-23.232
-23.9153
-24.5161
-24.8224
-25.2357
-25.9149
-26.8995
-28.2884
-29.6162
-30.581
-31.132
-31.5413
-31.9286
-32.0398
-31.5309
-30.4493
-29.1464
-27.7998
-26.4349
-25.0616
-14.529
-15.9537
-17.9426
-20.4451
-22.6196
-24.0482
-24.6939
-25.078
-25.3338
-25.5743
-25.9322
-26.5856
-27.6455
-28.9348
-29.9284
-30.4177
-30.7635
-31.1367
-31.2507
-30.7566
-29.7065
-28.4383
-27.1507
-25.8712
-24.5926
-14.9418
-16.3661
-18.3638
-20.8972
-23.1114
-24.5013
-25.1701
-25.5307
-25.7216
-25.8089
-25.9381
-26.3528
-27.1701
-28.4373
-29.4988
-29.9771
-30.2918
-30.6782
-30.7946
-30.301
-29.26
-28.0017
-26.7389
-25.5021
-24.2752
-16.5803
-18.5974
-21.161
-23.3765
-24.7511
-25.441
-25.7844
-25.9031
-25.8749
-25.852
-26.0978
-26.7742
-28.0251
-29.15
-29.6786
-30.0331
-30.467
-30.5877
-30.0747
-29.0252
-27.7702
-26.5165
-25.295
-24.0879
-16.5725
-18.5947
-21.1655
-23.3869
-24.7687
-25.4576
-25.8189
-25.9478
-25.9042
-25.8429
-26.0334
-26.6483
-27.8507
-28.964
-29.5353
-29.971
-30.4894
-30.6462
-30.1234
-29.054
-27.7847
-26.5201
-25.2884
-24.072
-16.3538
-18.3656
-20.917
-23.1518
-24.5612
-25.2206
-25.6094
-25.8115
-25.8476
-25.8643
-26.1117
-26.7456
-27.8808
-28.9294
-29.5429
-30.1044
-30.7178
-30.9318
-30.4226
-29.3358
-28.0389
-26.7426
-25.4738
-24.2184
-17.9392
-20.4717
-22.6861
-24.1504
-24.8086
-25.2154
-25.4642
-25.6199
-25.794
-26.1723
-26.9547
-28.1077
-29.25
-29.7692
-30.4285
-31.1124
-31.3818
-30.8948
-29.7902
-28.4629
-27.1206
-25.7898
-24.4673
-17.317
-19.7949
-21.9146
-23.378
-24.0978
-24.7105
-25.0035
-25.3145
-25.7602
-26.3885
-27.411
-28.5703
-29.7221
-30.3555
-31.0975
-31.7954
-32.0908
-31.615
-30.4833
-29.1123
-27.6986
-26.2697
-24.8425
-16.2906
-18.7167
-20.7118
-21.9334
-22.7505
-23.4768
-24.1904
-24.9995
-25.9348
-26.969
-28.2179
-29.3815
-30.4225
-31.353
-32.1722
-32.8766
-33.1524
-32.6289
-31.4292
-29.973
-28.4275
-26.8401
-25.2579
-16.8299
-18.681
-19.909
-20.9711
-22.0404
-23.2099
-24.6943
-26.1758
-27.7302
-29.2634
-30.5966
-31.7492
-32.826
-33.7251
-34.6369
-34.7618
-34.0101
-32.6629
-31.0398
-29.2789
-27.4647
-25.6743
-13.8017
-15.459
-16.7595
-18.0932
-19.6515
-21.6649
-23.8122
-26.2174
-28.672
-30.8083
-32.3782
-33.5269
-34.6338
-35.7528
-36.4957
-36.7417
-35.7893
-34.1848
-32.2601
-30.1889
-28.0755
-26.0186
-10.513
-11.9424
-12.9834
-14.1453
-16.1382
-18.8426
-22.1998
-26.1622
-30.1819
-33.2175
-34.9939
-35.874
-36.8318
-37.2256
-38.0172
-39.049
-37.8322
-35.9238
-33.6465
-31.1846
-28.6545
-26.2329
-7.96251
-8.88676
-9.50296
-10.2824
-12.1554
-15.0535
-19.4399
-25.4086
-31.3376
-35.7541
-37.6667
-37.5923
-38.214
-39.212
-40.2072
-40.4889
-39.6299
-37.5931
-35.0428
-32.2647
-29.2257
-26.2666
-6.42488
-6.95255
-7.19424
-7.39198
-8.42027
-10.5577
-14.7294
-21.0861
-30.4953
-37.6206
-40.006
-39.4806
-39.1626
-40.2362
-41.6708
-42.4197
-41.1042
-39.3623
-36.9916
-32.996
-29.8896
-26.5944
-5.58776
-5.53837
-5.11984
-4.47006
-4.10344
-4.96866
-9.31513
-16.1591
-31.8274
-45.7909
-46.188
-39.8376
-37.2965
-38.4199
-41.3896
-43.3256
-41.9462
-40.5032
-38.6142
-35.4142
-29.4355
-25.0027
-4.40808
-3.91502
-2.93875
-1.44631
0.371592
-0.0191229
0.199422
-9.22846
-34.6074
-79.7444
-71.8366
-42.5192
-33.8633
-34.5652
-38.2735
-47.3686
-43.1902
-39.741
-39.2389
-37.9091
-35.3771
-31.1211
-3.57128
-2.73424
-1.25135
1.11501
4.63096
6.98732
12.2549
6.78136
-41.2873
-40.4384
-39.0866
-35.2541
-2.91992
-1.87808
-0.119759
2.6665
7.01133
11.5592
21.98
29.8088
-41.8831
-40.6308
-39.8236
-36.1993
-1.39544
-0.492448
1.02474
3.38256
6.89538
11.0038
20.0182
28.1411
-42.7318
-38.8184
-35.6309
-32.7382
-0.368327
0.18974
1.1642
2.63088
4.6186
7.04971
10.8268
8.32953
-6.47185
-66.3153
-63.5003
-36.0112
-25.3097
-24.8033
-31.708
-62.1214
-73.6562
-57.195
-43.4332
-37.7027
-32.6112
-30.1837
1.52579
1.59858
0.147365
-2.01483
-14.2681
-28.713
-33.7415
-31.1071
-28.7652
-29.5082
-33.1848
-40.6387
-48.1309
-47.4287
-41.275
-34.1368
-31.0823
-28.6373
-2.1
-4.41789
-9.00828
-15.3908
-21.8161
-25.4788
-26.6387
-27.4152
-28.9293
-31.4564
-34.7874
-37.5544
-37.6142
-34.9703
-31.7838
-29.0172
-26.7898
-4.29363
-4.3577
-3.90511
-2.81668
-1.05184
1.15662
4.91948
7.04
0.938683
-4.43345
-4.94357
-5.06009
-4.73985
-4.0448
-3.50262
-4.53775
-5.57324
-18.8326
-48.1703
-57.7067
-44.2914
-34.8575
-33.8418
-31.2721
-45.6753
-44.315
-45.184
-5.01757
-5.97089
-6.55313
-6.93252
-6.69188
-6.1949
-8.04224
-13.2119
-22.4043
-34.9456
-41.9141
-40.2666
-36.7681
-36.594
-41.1326
-45.3655
-47.2033
-43.5803
-5.02667
-6.38979
-8.03459
-9.30433
-9.79628
-8.05943
-9.99251
-13.292
-18.8719
-26.8539
-34.6475
-39.1965
-39.6872
-38.5271
-39.6564
-42.3732
-44.0049
-45.5874
-42.4682
-37.7009
-7.34142
-7.77196
-9.45186
-12.9014
-14.06
-13.0292
-15.0242
-18.4328
-22.7489
-27.6749
-32.8567
-35.4401
-36.796
-37.6736
-38.468
-40.2393
-41.2862
-42.2115
-39.925
-36.2023
-33.6502
-31.0441
-28.4616
-8.85511
-11.3833
-13.6109
-15.001
-16.2798
-18.073
-19.5897
-23.6467
-25.6698
-28.0321
-30.3582
-32.5826
-33.9852
-34.7473
-35.4598
-37.1915
-38.3486
-39.1115
-36.3685
-34.5815
-32.4929
-30.2714
-28.0945
-26.066
-11.8072
-14.4682
-17.5941
-19.5929
-20.4553
-21.4448
-22.349
-22.9949
-25.804
-27.2973
-29.0724
-30.8482
-32.2387
-33.0815
-33.8397
-34.2271
-35.486
-36.2886
-34.504
-32.9257
-31.1823
-29.3237
-27.4813
-25.7284
-14.0603
-16.4621
-19.7062
-22.1634
-22.9324
-23.5889
-24.1079
-24.5478
-24.8464
-25.8571
-27.2245
-29.4193
-30.8823
-31.7771
-32.1778
-32.3916
-33.1649
-33.7538
-33.0342
-31.5452
-29.9466
-28.3325
-26.7417
-25.2073
-13.9313
-15.0269
-17.3133
-20.7244
-23.5074
-25.5002
-25.9008
-25.4774
-25.7092
-25.6943
-25.9609
-26.6699
-28.3128
-29.9029
-30.8015
-31.0835
-31.4227
-32.0922
-32.5345
-31.9625
-30.5386
-28.9857
-27.4954
-26.0613
-24.6757
-14.6798
-15.519
-17.7246
-21.2249
-24.1898
-26.2249
-26.7055
-26.7483
-26.5619
-26.2094
-25.936
-26.2236
-27.4381
-29.2996
-30.2823
-30.385
-30.6771
-31.3949
-31.8407
-31.2002
-29.8604
-28.3109
-26.855
-25.5004
-24.207
-15.0482
-15.8209
-18.0038
-21.5313
-24.5849
-26.6463
-27.3553
-27.4344
-27.1657
-26.6279
-26.0746
-26.1952
-26.8655
-28.8121
-29.9784
-30.001
-30.2684
-31.0717
-31.4716
-30.7954
-29.4282
-27.8769
-26.4335
-25.1154
-23.8726
-16.0554
-18.2258
-21.7748
-24.8345
-26.901
-27.6697
-27.7595
-27.4039
-26.7018
-25.9157
-25.7506
-26.2134
-28.2306
-29.5852
-29.6913
-30.067
-30.9949
-31.3435
-30.6031
-29.1962
-27.6491
-26.2104
-24.9008
-23.673
-16.1183
-18.3071
-21.8882
-24.9656
-26.9053
-27.6499
-27.8202
-27.5128
-26.793
-25.9478
-25.6904
-26.0493
-27.9571
-29.2526
-29.445
-30.0091
-31.1132
-31.4909
-30.6988
-29.2501
-27.681
-26.228
-24.9048
-23.6644
-15.9495
-18.1401
-21.6967
-24.7878
-26.7458
-27.2236
-27.5688
-27.3845
-26.7925
-26.0678
-25.8883
-26.2139
-27.8378
-28.8343
-29.2834
-30.0902
-31.3144
-31.8108
-31.0471
-29.5935
-27.9848
-26.4937
-25.1303
-23.8474
-17.8588
-21.4067
-24.4509
-26.3811
-26.8391
-26.9889
-26.8483
-26.4069
-25.8452
-25.6195
-26.2922
-27.8159
-28.9215
-29.4476
-30.3655
-31.5817
-32.2229
-31.5229
-30.0809
-28.4389
-26.9032
-25.4772
-24.1244
-17.5385
-21.0304
-23.9256
-25.7335
-26.1908
-26.412
-26.5192
-26.3012
-26.0735
-25.9862
-26.808
-28.0332
-28.8461
-29.9594
-30.9241
-32.038
-32.7555
-32.2087
-30.6976
-29.0556
-27.4841
-25.972
-24.5193
-16.9008
-20.3094
-23.09
-24.1647
-24.8255
-25.1092
-25.5613
-25.668
-25.9617
-26.3472
-27.8738
-28.8794
-29.772
-30.965
-31.9158
-32.91
-33.7432
-33.0963
-31.5677
-29.9111
-28.2216
-26.5485
-24.9428
-18.9055
-21.2358
-22.1546
-23.0959
-23.8771
-24.3449
-26.1281
-27.2473
-28.371
-29.4103
-30.3746
-31.3698
-32.7284
-33.4282
-34.2688
-35.1333
-34.4063
-32.8187
-31.0329
-29.0909
-27.1565
-25.3289
-15.842
-17.8218
-19.0362
-20.3755
-21.5256
-23.9507
-25.7915
-27.783
-29.533
-31.223
-32.3666
-33.3485
-34.5329
-35.289
-36.3886
-37.3565
-36.1531
-34.3554
-32.2213
-29.8994
-27.6157
-25.5058
-11.8048
-12.9488
-14.2105
-16.2648
-18.0887
-20.9787
-23.9563
-27.2737
-32.1591
-34.4314
-35.6945
-35.4475
-36.4641
-38.2409
-39.4517
-40.1306
-38.3321
-35.9386
-33.3077
-30.5506
-27.8343
-25.3827
-7.9725
-9.33879
-9.87737
-11.2002
-12.964
-16.3506
-21.2702
-27.2966
-33.0918
-36.617
-37.7723
-37.6314
-39.0494
-41.3693
-42.4942
-43.5691
-40.5954
-37.4764
-34.1568
-30.988
-27.6876
-24.7572
-6.02778
-6.65523
-7.04333
-6.84412
-8.59223
-11.074
-15.8745
-24.9098
-34.6557
-40.2273
-40.2117
-38.1766
-39.1199
-42.5828
-43.8345
-46.3112
-42.8431
-39.5182
-36.0695
-31.4893
-27.6239
-24.1773
-5.18082
-5.29175
-4.95858
-4.24743
-3.63073
-6.07374
-9.93303
-19.74
-36.4093
-45.8803
-42.0654
-36.0873
-36.1253
-40.2976
-45.836
-47.103
-44.2922
-42.2332
-39.18
-33.7457
-26.8379
-23.8387
-4.61796
-4.16575
-3.08808
-1.32843
0.905887
0.3141
-0.93343
-15.2021
-65.4435
-75.7804
-49.6746
-35.2797
-34.7839
-33.4446
-41.5337
-43.6122
-44.1256
-42.4158
-40.737
-36.7399
-32.3514
-27.9065
-3.57973
-2.6711
-0.967572
1.86962
6.29809
9.48158
15.9517
3.53747
-41.4393
-44.0803
-41.368
-34.1325
-2.15366
-1.12715
0.768497
4.05357
9.71334
17.0604
30.0054
-47.6871
-43.4204
-33.897
-0.730796
0.103974
1.69237
4.43102
9.01332
16.4826
31.0902
50.2859
-61.0513
-39.9513
-36.9761
-29.684
-0.0350148
0.476012
1.4796
3.12194
5.52414
9.5772
15.5137
15.8144
-31.42
-82.0073
-58.8634
-25.1828
-24.1404
-24.2141
-22.4502
-35.4536
-108.761
-111.8
-52.5586
-38.4453
-31.0565
-28.1197
1.64845
1.72219
3.07772
-2.81275
-19.0126
-34.1663
-34.332
-28.3946
-27.1016
-27.9077
-30.8743
-38.6244
-52.2529
-56.0005
-45.9972
-34.2879
-30.1383
-27.2607
-2.49244
-5.16093
-10.0262
-17.2325
-23.6447
-26.1817
-26.3965
-26.933
-28.4657
-31.1321
-34.919
-38.8469
-39.6788
-36.3161
-31.9808
-28.4537
-25.8827
-4.76213
-4.75922
-4.20089
-2.92954
-0.927482
1.67179
6.81432
8.3735
-13.1057
-4.98729
-5.45258
-5.35408
-4.5691
-3.51381
-2.02237
-1.21039
-3.23456
-14.7628
-40.6586
-60.5107
-47.1664
-35.5945
-36.1432
-33.1924
-51.9701
-51.8595
-46.701
-43.1271
-5.02309
-6.18792
-6.39797
-6.2741
-5.66074
-5.37293
-6.07295
-10.2119
-22.6475
-38.1705
-50.0344
-46.3164
-38.6554
-37.7453
-46.7313
-51.3931
-43.6854
-40.1564
-3.30956
-5.31671
-7.85266
-7.17602
-7.5286
-8.60275
-9.96942
-14.2453
-24.0068
-33.586
-44.8881
-46.733
-43.6499
-39.8627
-42.0657
-51.6525
-45.181
-51.5368
-44.0233
-37.969
-4.95147
-7.05737
-9.97072
-11.6501
-12.3661
-14.3747
-18.3685
-23.7375
-29.3947
-34.2531
-36.9926
-37.088
-37.4236
-37.688
-39.2747
-42.0236
-40.812
-45.9354
-40.972
-35.6168
-32.6393
-30.0679
-27.5862
-11.6543
-16.3605
-18.5741
-19.7871
-21.9851
-23.9426
-25.1738
-27.3322
-30.0125
-31.7005
-33.4263
-34.2089
-35.031
-35.767
-37.0925
-38.139
-41.9915
-38.2789
-33.5151
-31.4997
-29.4136
-27.361
-25.4928
-17.0813
-22.9402
-24.1389
-24.1778
-25.2842
-26.0249
-26.3916
-26.7795
-27.6895
-29.4224
-31.4082
-33.1083
-33.3384
-34.0812
-34.6799
-35.5585
-38.4363
-35.7368
-32.4174
-30.6783
-28.8224
-27.0123
-25.3402
-15.6737
-18.2495
-23.947
-26.9463
-26.4024
-26.6472
-26.9079
-26.8643
-26.5658
-26.753
-27.9823
-29.9499
-31.437
-32.1062
-32.1765
-32.6613
-33.4942
-35.4435
-33.9526
-31.2953
-29.7361