/*--------------------------------*- C++ -*----------------------------------*\
  =========                 |
  \\      /  F ield         | OpenFOAM: The Open Source CFD Toolbox
   \\    /   O peration     | Website:  https://openfoam.org
    \\  /    A nd           | Version:  13
     \\/     M anipulation  |
\*---------------------------------------------------------------------------*/
FoamFile
{
    format      ascii;
    class       volScalarField;
    location    "800";
    object      k;
}
// * * * * * * * * * * * * * * * * * * * * * * * * * * * * * * * * * * * * * //

dimensions      [0 2 -2 0 0 0 0];

internalField   nonuniform List<scalar> 
169916
(
0.364692
0.367541
0.3711
0.375314
0.379964
0.384666
0.389004
0.392651
0.395431
0.397305
0.398324
0.398417
0.397609
0.396246
0.368468
0.372619
0.377957
0.38447
0.391717
0.398887
0.405464
0.411008
0.415211
0.417998
0.419504
0.419905
0.419292
0.418341
0.372423
0.378266
0.386073
0.395847
0.406716
0.417523
0.427706
0.436529
0.443134
0.447321
0.449478
0.450161
0.450397
0.450975
0.452015
0.45344
0.455183
0.457143
0.4592
0.461194
0.462951
0.464283
0.370743
0.376312
0.38429
0.395337
0.409204
0.424802
0.430013
0.446282
0.46417
0.478654
0.487667
0.491923
0.504307
0.502944
0.504845
0.507596
0.510113
0.512237
0.513295
0.513043
0.510906
0.506485
0.499978
0.372716
0.379681
0.39022
0.405119
0.423858
0.432673
0.461596
0.498306
0.532358
0.556581
0.566302
0.5645
0.561914
0.563357
0.56657
0.567916
0.566417
0.55807
0.544493
0.52729
0.508078
0.488234
0.468792
0.373565
0.381743
0.394916
0.414419
0.425037
0.460939
0.507514
0.575751
0.614702
0.680369
0.702939
0.705614
0.69303
0.720637
0.802904
0.726387
0.659456
0.605259
0.562799
0.528019
0.499955
0.477502
0.45967
0.445562
0.372791
0.381441
0.395882
0.405895
0.440148
0.502169
0.551661
0.680795
0.803874
0.993632
1.10109
1.36199
1.31752
1.00251
0.883366
0.782581
0.698833
0.640122
0.597023
0.564343
0.5395
0.520618
0.506528
0.495891
0.486437
0.370214
0.378233
0.392693
0.403224
0.445076
0.531119
0.624283
0.859289
1.06879
1.32042
1.35194
1.16607
0.908736
0.791953
0.672511
0.634053
0.602335
0.577663
0.560474
0.549144
0.542098
0.538159
0.536424
0.536179
0.366152
0.372422
0.384356
0.390558
0.42144
0.482741
0.537341
0.665973
0.720702
0.755129
0.749261
0.710828
0.668822
0.63654
0.61756
0.621394
0.611202
0.604955
0.602089
0.60161
0.602687
0.604833
0.607726
0.611143
0.614979
0.619259
0.361411
0.365435
0.373068
0.38492
0.390854
0.412376
0.442268
0.473824
0.498829
0.524215
0.545429
0.558523
0.566494
0.570422
0.557051
0.559534
0.561251
0.563149
0.565616
0.568722
0.57241
0.576588
0.581213
0.586245
0.591671
0.597529
0.356771
0.359021
0.36322
0.369746
0.379028
0.388843
0.393757
0.408951
0.425481
0.442678
0.459214
0.473264
0.477005
0.481593
0.484194
0.484984
0.485042
0.48511
0.485611
0.486788
0.488756
0.491538
0.495113
0.49945
0.504542
0.510428
0.352772
0.353953
0.356436
0.360405
0.366004
0.372984
0.381084
0.389988
0.399025
0.407257
0.414112
0.419432
0.423616
0.426123
0.427209
0.427454
0.42734
0.427193
0.427228
0.427591
0.428371
0.429621
0.431386
0.433709
0.436636
0.440225
0.349799
0.35043
0.3521
0.354916
0.358903
0.363994
0.370029
0.376541
0.382859
0.388232
0.392353
0.395217
0.396981
0.397853
0.398145
0.398129
0.398003
0.397912
0.397976
0.398278
0.398873
0.399795
0.401068
0.402711
0.404742
0.407179
0.348184
0.348557
0.349842
0.352069
0.355209
0.35915
0.363695
0.368503
0.37304
0.376774
0.379453
0.381089
0.381958
0.382318
0.38236
0.382221
0.382013
0.381919
0.381998
0.382315
0.382893
0.38374
0.384853
0.386226
0.387847
0.389692
0.347678
0.348022
0.349195
0.351184
0.353891
0.357161
0.360755
0.364361
0.367626
0.370258
0.372099
0.373132
0.373543
0.37342
0.373002
0.372542
0.372218
0.372165
0.372457
0.37295
0.37364
0.374513
0.375551
0.37673
0.378021
0.348085
0.348582
0.34985
0.351834
0.354382
0.357274
0.360266
0.3631
0.365573
0.367562
0.368967
0.369742
0.369934
0.369616
0.36918
0.368842
0.36872
0.368877
0.369287
0.369834
0.370503
0.371274
0.372121
0.373012
0.373909
0.349232
0.350016
0.351537
0.353689
0.356264
0.359001
0.361641
0.363991
0.365957
0.367518
0.368637
0.369277
0.369364
0.369058
0.368693
0.36844
0.368361
0.368464
0.368725
0.369094
0.369515
0.369954
0.370392
0.370793
0.371108
0.351931
0.35381
0.356255
0.358986
0.361703
0.364165
0.366247
0.367937
0.369272
0.370254
0.370868
0.371021
0.370796
0.370459
0.370142
0.369878
0.369652
0.369427
0.369164
0.368848
0.368492
0.368097
0.367669
0.367221
0.356095
0.358906
0.361883
0.364675
0.36707
0.369017
0.370569
0.371794
0.372721
0.373344
0.373556
0.373324
0.372844
0.372244
0.37157
0.370828
0.370005
0.369095
0.36812
0.367122
0.366138
0.365182
0.364276
0.357975
0.361111
0.364338
0.367246
0.369641
0.371528
0.373011
0.374179
0.375077
0.375699
0.3759
0.375556
0.374829
0.37388
0.3728
0.371624
0.370366
0.369034
0.367662
0.366305
0.365004
0.363775
0.36264
0.362334
0.365717
0.368707
0.371118
0.372986
0.374437
0.375579
0.376466
0.377095
0.377294
0.376892
0.376036
0.374913
0.373638
0.372263
0.370806
0.369284
0.367739
0.366223
0.364781
0.363429
0.362192
0.362324
0.3657
0.368683
0.371087
0.372949
0.374396
0.375532
0.376413
0.377034
0.377218
0.376801
0.375934
0.374799
0.373515
0.37213
0.370666
0.36914
0.367591
0.366074
0.36463
0.363279
0.362041
0.361092
0.364306
0.367198
0.369576
0.371448
0.372914
0.374064
0.374939
0.375534
0.375676
0.375278
0.374503
0.373509
0.372389
0.371179
0.369891
0.368537
0.367149
0.36578
0.364471
0.363239
0.362102
0.361093
0.358884
0.361849
0.364624
0.367
0.368927
0.370458
0.371657
0.372553
0.373136
0.373259
0.372942
0.37238
0.3717
0.370951
0.37014
0.369259
0.368303
0.36729
0.366265
0.365262
0.364295
0.363382
0.362554
0.356234
0.358956
0.361658
0.364101
0.36616
0.367823
0.369124
0.370069
0.370641
0.370699
0.370384
0.369955
0.369544
0.369186
0.36887
0.368563
0.368228
0.367854
0.36745
0.36702
0.366566
0.366101
0.365648
0.353669
0.356237
0.358963
0.361585
0.363909
0.36584
0.367356
0.368425
0.369013
0.368999
0.368601
0.368147
0.367803
0.367631
0.367642
0.367819
0.368115
0.368488
0.368891
0.369299
0.369666
0.369954
0.370148
0.354357
0.357242
0.360217
0.363024
0.365459
0.3674
0.368753
0.369477
0.369575
0.369175
0.368659
0.368239
0.368031
0.368099
0.36846
0.36896
0.369582
0.370308
0.371111
0.371963
0.372823
0.373679
0.374497
0.35386
0.35712
0.360696
0.364276
0.367512
0.370107
0.371917
0.372929
0.373327
0.373187
0.372748
0.372261
0.371903
0.371804
0.372049
0.372504
0.373156
0.373993
0.374995
0.376141
0.377403
0.378732
0.380166
0.355163
0.359087
0.363603
0.368399
0.372923
0.376651
0.37935
0.381036
0.381967
0.382396
0.382498
0.382418
0.382282
0.382209
0.382299
0.382618
0.383191
0.38403
0.385133
0.386498
0.388117
0.389974
0.39197
0.358835
0.363901
0.369876
0.376507
0.382911
0.388351
0.39256
0.395556
0.397479
0.398517
0.398963
0.399085
0.399084
0.39911
0.399281
0.399685
0.400379
0.401402
0.402781
0.404545
0.40672
0.409332
0.412416
0.398886
0.407135
0.414082
0.419603
0.424066
0.426898
0.428334
0.428926
0.429142
0.429308
0.429652
0.43033
0.431438
0.433039
0.435183
0.43792
0.441305
0.445402
0.450292
0.413433
0.425971
0.437083
0.445955
0.475853
0.480407
0.483183
0.484325
0.484809
0.485309
0.486214
0.487752
0.490037
0.493096
0.49691
0.501456
0.506725
0.512749
0.519625
0.482489
0.500912
0.514652
0.521701
0.523786
0.552454
0.554246
0.555622
0.557369
0.559556
0.562168
0.565234
0.568792
0.572866
0.577329
0.58215
0.587373
0.593105
0.583587
0.614391
0.607505
0.604079
0.598195
0.617622
0.60737
0.600797
0.597287
0.59589
0.595802
0.596556
0.597882
0.599601
0.601636
0.604024
0.606933
0.769619
0.830293
0.73913
0.670371
0.677157
0.638981
0.608287
0.583232
0.564698
0.551863
0.54331
0.537845
0.534583
0.532868
0.53221
0.532332
1.50474
1.1874
1.01339
0.800332
0.710185
0.648279
0.603383
0.569957
0.54438
0.524717
0.509686
0.498455
0.490192
0.482496
0.475767
0.799495
0.723234
0.655443
0.600745
0.558232
0.523998
0.496457
0.474465
0.456992
0.443188
0.43235
0.423653
0.416576
0.36503
0.368039
0.371811
0.376229
0.380946
0.385549
0.389657
0.393016
0.395533
0.397237
0.398217
0.398588
0.398294
0.397603
0.369127
0.373671
0.379571
0.386565
0.393851
0.400907
0.407207
0.412302
0.416
0.41838
0.419682
0.420256
0.420528
0.420499
0.373656
0.380389
0.389483
0.40022
0.411373
0.422777
0.433048
0.440988
0.446193
0.44904
0.450349
0.451212
0.451882
0.452466
0.45303
0.453589
0.454169
0.454848
0.455675
0.45649
0.457244
0.457898
0.371938
0.378494
0.388319
0.401886
0.418303
0.423863
0.443005
0.463726
0.479923
0.489003
0.491588
0.489833
0.487719
0.490134
0.49038
0.490803
0.490952
0.491156
0.491162
0.490586
0.489368
0.48756
0.485303
0.374541
0.38329
0.397001
0.41683
0.426579
0.462568
0.507865
0.546871
0.564369
0.557391
0.539866
0.522819
0.510906
0.503703
0.512306
0.510839
0.509353
0.50832
0.506045
0.501025
0.494693
0.487433
0.479659
0.376068
0.386995
0.404655
0.415489
0.459565
0.531533
0.596938
0.711263
0.772359
0.766454
0.758599
0.680012
0.630349
0.678666
0.655287
0.720874
0.678491
0.641731
0.610504
0.583623
0.56124
0.543777
0.530788
0.52154
0.375847
0.387341
0.395247
0.427351
0.498656
0.577722
0.853928
1.14868
1.25217
1.07333
0.942726
0.799391
0.753889
0.725528
0.709565
0.701541
0.698888
0.699671
0.70245
0.706026
0.373391
0.384507
0.392621
0.428848
0.487513
0.663568
1.052
0.864148
0.790952
0.861338
0.860942
0.868563
0.878577
0.889284
0.899434
0.908259
0.91534
0.919683
0.368812
0.378196
0.395336
0.408252
0.470485
0.575204
0.774959
1.11562
0.957604
0.837185
0.880245
0.882182
0.894469
0.908667
0.919699
0.925897
0.92893
0.929786
0.929165
0.927733
0.926115
0.363371
0.369136
0.379658
0.386888
0.412601
0.455838
0.498328
0.547153
0.56724
0.56297
0.568514
0.593688
0.598648
0.617393
0.637056
0.679168
0.697228
0.716405
0.735477
0.753241
0.769075
0.782823
0.7946
0.804694
0.813573
0.821778
0.358119
0.36118
0.366851
0.375326
0.380643
0.395345
0.413101
0.430858
0.449268
0.467915
0.485684
0.502366
0.516287
0.525203
0.525324
0.527787
0.531274
0.537265
0.545871
0.556925
0.569367
0.582733
0.596601
0.610665
0.624835
0.639247
0.353676
0.355198
0.358198
0.362901
0.369214
0.376723
0.385587
0.396435
0.408851
0.420263
0.429332
0.435838
0.439445
0.440498
0.440173
0.439133
0.438114
0.437483
0.437679
0.438829
0.441055
0.444472
0.449184
0.455176
0.462497
0.4712
0.350464
0.35123
0.353092
0.356169
0.360442
0.365921
0.372517
0.380206
0.388003
0.394485
0.399136
0.402047
0.403621
0.404013
0.403536
0.402563
0.401623
0.400982
0.400837
0.401117
0.401896
0.403218
0.40513
0.407685
0.410934
0.414935
0.348779
0.349239
0.350635
0.353007
0.356348
0.360615
0.365659
0.371096
0.376223
0.380369
0.383113
0.384697
0.385419
0.385401
0.384826
0.384083
0.383442
0.383089
0.383167
0.383689
0.384538
0.385727
0.387264
0.389153
0.3914
0.393961
0.348453
0.348914
0.350228
0.352389
0.355316
0.358889
0.362835
0.366824
0.370474
0.373466
0.375481
0.37652
0.376734
0.376253
0.375551
0.374908
0.374513
0.374493
0.374918
0.375707
0.376734
0.377986
0.379443
0.381078
0.382876
0.349215
0.34991
0.351413
0.353667
0.356517
0.359737
0.363071
0.366212
0.368972
0.371212
0.372783
0.373602
0.373599
0.373144
0.372686
0.372445
0.372538
0.373004
0.373761
0.374698
0.375801
0.377045
0.378394
0.379801
0.38123
0.35082
0.351898
0.353779
0.35634
0.359342
0.362486
0.365473
0.368076
0.370242
0.372022
0.373367
0.374155
0.374207
0.373897
0.373633
0.373591
0.373824
0.374309
0.374984
0.375729
0.37653
0.377372
0.378215
0.379011
0.379736
0.354243
0.356658
0.359705
0.363037
0.366272
0.369132
0.37149
0.373397
0.374957
0.376186
0.37701
0.377241
0.377091
0.376881
0.376748
0.376707
0.376715
0.376703
0.376607
0.376424
0.376178
0.375874
0.375509
0.375126
0.359598
0.363224
0.366997
0.370439
0.373298
0.375559
0.37736
0.378822
0.379996
0.380828
0.381104
0.380857
0.380333
0.379682
0.378944
0.378117
0.377179
0.376111
0.374957
0.373788
0.372646
0.371535
0.370494
0.361884
0.366055
0.370282
0.373988
0.376926
0.379159
0.380897
0.382288
0.383393
0.384178
0.384352
0.383824
0.382815
0.381557
0.380161
0.378668
0.377084
0.375411
0.373706
0.372045
0.370464
0.368967
0.367586
0.367657
0.37217
0.376061
0.379079
0.381322
0.383026
0.384363
0.385433
0.386209
0.386351
0.385701
0.38447
0.382937
0.381252
0.379473
0.377613
0.375684
0.373744
0.371867
0.370085
0.368401
0.366847
0.367642
0.372145
0.376025
0.379033
0.381269
0.382969
0.3843
0.385365
0.386132
0.386261
0.385601
0.384359
0.382815
0.381121
0.379333
0.377466
0.37553
0.373587
0.371707
0.369922
0.368237
0.366681
0.366031
0.370239
0.373919
0.376831
0.379043
0.38076
0.382124
0.383197
0.383941
0.384047
0.383458
0.382395
0.381085
0.379642
0.378109
0.376493
0.374797
0.373074
0.371399
0.369809
0.368307
0.366925
0.365709
0.3632
0.366956
0.370375
0.37321
0.37545
0.377226
0.378658
0.379791
0.380564
0.380729
0.380378
0.379752
0.378999
0.378164
0.37725
0.376239
0.375114
0.373916
0.372714
0.37155
0.370427
0.36938
0.368464
0.359686
0.363007
0.366227
0.369068
0.371404
0.373279
0.3748
0.375987
0.376756
0.37688
0.376625
0.376305
0.376053
0.375888
0.375777
0.375659
0.375471
0.375213
0.374912
0.374566
0.374174
0.373772
0.373411
0.356325
0.359321
0.362453
0.365425
0.368
0.370123
0.371846
0.373126
0.373849
0.373788
0.373379
0.373016
0.372865
0.37298
0.373357
0.373941
0.374632
0.375382
0.376176
0.37698
0.37774
0.378433
0.379011
0.356503
0.35972
0.363042
0.366157
0.368872
0.371053
0.372562
0.373317
0.373201
0.372642
0.372076
0.371723
0.371693
0.37204
0.372735
0.373608
0.374647
0.37583
0.377119
0.378472
0.379854
0.381217
0.38249
0.355295
0.358861
0.36279
0.366764
0.370386
0.373341
0.375323
0.376343
0.376537
0.376028
0.375279
0.374571
0.374092
0.373976
0.374297
0.375017
0.375974
0.377154
0.378539
0.380104
0.381836
0.383726
0.385769
0.356306
0.360551
0.365577
0.371081
0.376263
0.380434
0.383219
0.384859
0.385644
0.385745
0.385237
0.38453
0.383894
0.383527
0.383564
0.384022
0.384809
0.385941
0.387431
0.389293
0.391539
0.394134
0.397064
0.360378
0.365821
0.372505
0.380173
0.388151
0.394678
0.399396
0.402385
0.404105
0.404675
0.404463
0.403825
0.403188
0.402849
0.402839
0.40328
0.404246
0.405797
0.407995
0.410909
0.414611
0.419169
0.424611
0.408487
0.419955
0.429256
0.436302
0.440556
0.442167
0.44243
0.441968
0.441576
0.441649
0.442612
0.444616
0.447773
0.452152
0.45781
0.46481
0.473204
0.483058
0.49449
0.426286
0.442544
0.456926
0.468977
0.478141
0.482958
0.520377
0.523223
0.527255
0.533564
0.542285
0.553309
0.565989
0.579608
0.593764
0.60812
0.622562
0.637196
0.652354
0.500868
0.515311
0.529738
0.545341
0.558896
0.565971
0.666432
0.684353
0.702233
0.719291
0.734797
0.748471
0.76038
0.770749
0.779862
0.788091
0.795891
0.803829
0.966404
1.0427
0.868597
0.750515
0.783265
0.762076
0.902803
0.894286
0.897462
0.903988
0.909568
0.912174
0.912454
0.911257
0.9092
0.906804
0.90457
0.903039
1.11322
0.980141
0.863465
0.823275
0.89624
0.884814
0.882309
0.883816
0.887655
0.892233
0.896639
0.900461
0.903558
0.905309
0.906485
1.17985
1.04173
0.891223
0.832355
0.781617
0.746436
0.725918
0.714995
0.710214
0.70916
0.710479
0.713195
0.716518
0.720071
0.841386
0.703537
0.666944
0.63467
0.605822
0.579476
0.557812
0.541127
0.528859
0.520215
0.514428
0.510844
0.509011
0.363119
0.365581
0.368841
0.37288
0.377407
0.382015
0.386294
0.389931
0.392786
0.394891
0.396358
0.39731
0.397864
0.398285
0.398471
0.366461
0.370228
0.375393
0.3819
0.389013
0.3962
0.402841
0.408408
0.412591
0.415451
0.417272
0.41844
0.41955
0.420454
0.421112
0.370129
0.37576
0.383819
0.393943
0.405082
0.417188
0.428265
0.436953
0.442644
0.445604
0.446853
0.447767
0.448769
0.449944
0.451301
0.452331
0.453104
0.453708
0.45419
0.454587
0.454925
0.455227
0.455512
0.373991
0.382241
0.394325
0.410159
0.416629
0.438141
0.460675
0.477712
0.486862
0.487944
0.483579
0.479157
0.476691
0.476535
0.480564
0.481732
0.482338
0.482507
0.482132
0.48146
0.480591
0.479574
0.478444
0.377673
0.38921
0.40649
0.416315
0.456703
0.510692
0.548421
0.566606
0.561164
0.543599
0.522878
0.504953
0.491597
0.487905
0.488486
0.510018
0.509662
0.507637
0.504158
0.499704
0.494736
0.489533
0.484287
0.380369
0.39491
0.404136
0.444395
0.531186
0.625881
0.737194
0.909554
1.02379
1.15456
1.19758
1.07915
0.843839
0.700137
0.712583
0.667968
0.669991
0.636972
0.608992
0.584648
0.564349
0.547351
0.533223
0.521566
0.381088
0.397457
0.410847
0.470603
0.567841
1.00569
1.05006
0.938374
0.819497
0.773322
0.740459
0.716025
0.698028
0.68474
0.674654
0.666525
0.658727
0.378739
0.394403
0.409071
0.476044
0.631914
0.872676
1.17131
1.3454
1.147
1.05402
0.997267
0.957698
0.92646
0.900117
0.876321
0.853595
0.373222
0.385681
0.396241
0.451264
0.561043
0.979688
1.29573
1.38127
1.34914
1.31319
1.27464
1.23532
1.19853
1.16394
1.13137
1.10093
1.07333
1.04872
0.366475
0.375424
0.390716
0.403824
0.455243
0.540225
0.574843
0.64652
0.694201
0.848456
0.808574
0.77419
0.775139
0.871663
0.978407
0.985045
1.02918
1.07196
1.10004
1.11142
1.1106
1.10141
1.08768
1.07208
1.05765
1.04502
0.36034
0.364654
0.372632
0.384131
0.39299
0.413404
0.430555
0.448229
0.476107
0.505728
0.528598
0.564677
0.612416
0.658083
0.695231
0.708241
0.728412
0.753091
0.779319
0.804766
0.82757
0.845889
0.860091
0.870827
0.879286
0.886914
0.355262
0.357339
0.361168
0.366955
0.37407
0.382093
0.391494
0.398474
0.420155
0.445434
0.463429
0.472875
0.469942
0.464748
0.461054
0.458197
0.456745
0.45945
0.465907
0.474992
0.486636
0.500693
0.51661
0.533823
0.552333
0.572063
0.351744
0.352766
0.354971
0.358509
0.363222
0.369239
0.376471
0.381129
0.393802
0.407312
0.416936
0.421853
0.421484
0.4193
0.416703
0.414722
0.413096
0.411557
0.411511
0.413036
0.416078
0.420212
0.425453
0.431852
0.439464
0.350034
0.350698
0.35235
0.355042
0.358799
0.363628
0.369671
0.376784
0.383925
0.390036
0.393925
0.395687
0.396112
0.395348
0.394115
0.392978
0.392282
0.392016
0.392415
0.393722
0.395702
0.39827
0.401451
0.405227
0.40954
0.350139
0.350884
0.352542
0.355118
0.358559
0.362689
0.36747
0.37239
0.376874
0.380778
0.383532
0.384856
0.38494
0.384395
0.383718
0.383259
0.383247
0.383786
0.384911
0.386536
0.38854
0.390902
0.393586
0.396484
0.399598
0.351653
0.352784
0.354823
0.357708
0.361264
0.365205
0.369263
0.372901
0.37603
0.378856
0.380957
0.382016
0.381997
0.381697
0.381634
0.382052
0.383048
0.384519
0.386319
0.388364
0.390629
0.393079
0.395658
0.398296
0.400958
0.353918
0.35568
0.358406
0.361942
0.365947
0.369974
0.373633
0.376623
0.379095
0.381273
0.383062
0.384124
0.384174
0.384081
0.384334
0.385018
0.386111
0.387483
0.389035
0.390727
0.392579
0.394561
0.39656
0.398424
0.400112
0.359013
0.36266
0.36712
0.371844
0.376181
0.379769
0.382524
0.384727
0.386615
0.388228
0.389321
0.389524
0.389431
0.389456
0.389685
0.390088
0.39057
0.391004
0.391291
0.391493
0.391648
0.391726
0.391669
0.391588
0.366855
0.372483
0.378188
0.383136
0.386947
0.389662
0.391629
0.393187
0.394484
0.395236
0.395162
0.394497
0.393627
0.392698
0.391713
0.390647
0.389437
0.38803
0.386553
0.385126
0.383738
0.382349
0.381066
0.370219
0.376949
0.383639
0.389174
0.393148
0.39569
0.397371
0.39858
0.39944
0.399794
0.399298
0.397856
0.395944
0.393878
0.391749
0.38957
0.387305
0.384937
0.382603
0.380395
0.378287
0.376248
0.374359
0.379465
0.386817
0.392795
0.39695
0.399461
0.401018
0.401991
0.402767
0.403059
0.402425
0.400678
0.398328
0.395786
0.393224
0.390657
0.38804
0.385365
0.382775
0.380346
0.378006
0.375717
0.373557
0.379442
0.386772
0.392727
0.396866
0.399375
0.400931
0.401903
0.402671
0.402951
0.402309
0.400554
0.398194
0.395638
0.393062
0.390482
0.387853
0.385169
0.382574
0.380143
0.377801
0.37551
0.37335
0.376917
0.383564
0.38904
0.392959
0.395464
0.397114
0.398269
0.39906
0.399334
0.39877
0.39727
0.395296
0.393168
0.390981
0.388752
0.386444
0.384045
0.381684
0.379453
0.377327
0.375276
0.373379
0.371709
0.37246
0.378134
0.383036
0.386802
0.389485
0.391421
0.392939
0.394166
0.394771
0.39456
0.39376
0.392748
0.391669
0.390537
0.389339
0.388016
0.386518
0.384967
0.383477
0.38204
0.380618
0.379309
0.378206
0.367111
0.371822
0.376141
0.379706
0.382444
0.384617
0.386497
0.388075
0.389047
0.389126
0.388898
0.388762
0.388803
0.389002
0.389287
0.389539
0.389661
0.389723
0.389757
0.389737
0.389607
0.38947
0.389375
0.361942
0.365938
0.369953
0.373597
0.376555
0.378973
0.381071
0.382773
0.383757
0.383697
0.383508
0.383647
0.38419
0.385121
0.3864
0.38786
0.389456
0.391217
0.393118
0.395047
0.396848
0.398477
0.399853
0.361272
0.365219
0.369272
0.37289
0.375963
0.378699
0.380702
0.381675
0.381549
0.381131
0.380926
0.381181
0.381961
0.383316
0.385008
0.386938
0.389088
0.39143
0.393912
0.396471
0.399071
0.401564
0.403685
0.358559
0.362686
0.367458
0.372403
0.376884
0.380723
0.383403
0.384685
0.384736
0.384096
0.383264
0.38261
0.382364
0.382666
0.383555
0.385033
0.386888
0.38909
0.391621
0.394389
0.397403
0.400657
0.404059
0.358769
0.363566
0.369681
0.376871
0.38413
0.390267
0.394193
0.395989
0.396457
0.395654
0.394295
0.392969
0.392059
0.391671
0.392014
0.393316
0.39524
0.397784
0.400987
0.404882
0.409427
0.414442
0.420201
0.363183
0.369164
0.377176
0.387394
0.390171
0.397379
0.403377
0.420993
0.42113
0.419275
0.416999
0.415412
0.414088
0.41327
0.414091
0.416577
0.420343
0.425349
0.431611
0.439205
0.448237
0.458586
0.469988
0.409925
0.426878
0.438869
0.474487
0.473596
0.469774
0.466615
0.463902
0.465226
0.470641
0.478819
0.489676
0.503267
0.518294
0.534684
0.552457
0.571435
0.591735
0.613668
0.448786
0.477605
0.499821
0.523053
0.542341
0.552038
0.66179
0.674272
0.69439
0.719412
0.746492
0.772966
0.797321
0.818427
0.835647
0.848802
0.859244
0.868484
0.878053
0.520446
0.558265
0.567975
0.651587
0.716977
0.761152
1.03657
1.05588
1.07697
1.08905
1.09016
1.08293
1.07082
1.0564
1.0414
1.02741
1.01561
1.00665
1.16891
1.17821
1.09142
1.10028
1.33706
1.31459
1.44677
1.37901
1.31982
1.26572
1.21845
1.17718
1.14035
1.10792
1.07922
1.05392
1.03206
1.35459
1.92923
1.54651
1.29963
1.17722
1.09842
1.04038
0.994316
0.956257
0.923512
0.894251
0.867292
0.841863
0.895638
0.979047
0.875766
0.825761
0.789919
0.762239
0.741172
0.725105
0.712456
0.700787
0.689721
0.6793
0.669724
0.863503
0.778189
0.656628
0.626722
0.601372
0.579039
0.560399
0.54477
0.531796
0.521115
0.512433
0.505541
0.500344
0.363555
0.366215
0.369718
0.373887
0.378385
0.382761
0.386628
0.389734
0.392061
0.39375
0.394975
0.395903
0.396745
0.3976
0.398298
0.367263
0.3715
0.377188
0.38385
0.391071
0.398083
0.404217
0.408928
0.412074
0.413961
0.415071
0.415999
0.417252
0.4186
0.41983
0.37154
0.378148
0.386947
0.397452
0.410218
0.422626
0.432685
0.439953
0.442933
0.442627
0.441547
0.442169
0.443549
0.445325
0.447138
0.448792
0.450002
0.4509
0.451591
0.452136
0.45258
0.452962
0.453318
0.376332
0.38621
0.399449
0.405781
0.428197
0.454096
0.474082
0.503409
0.496703
0.4865
0.475268
0.470443
0.464966
0.464471
0.46596
0.474217
0.47722
0.478967
0.479886
0.480207
0.480113
0.479818
0.479452
0.381207
0.39512
0.402865
0.435589
0.493359
0.541981
0.572429
0.578271
0.566183
0.545522
0.523147
0.505228
0.491068
0.488385
0.489588
0.493852
0.528733
0.528318
0.525473
0.521293
0.516613
0.511875
0.507301
0.385178
0.403658
0.418575
0.481878
0.591511
0.740979
1.01919
1.0981
1.08932
1.0716
1.04966
1.06082
1.05626
0.844786
0.76982
0.709493
0.694102
0.654912
0.624055
0.598352
0.576984
0.559326
0.544764
0.532805
0.385379
0.39409
0.43401
0.500762
0.704963
0.926337
0.839208
0.788766
0.726989
0.692652
0.663387
0.63892
0.618888
0.602518
0.589174
0.578317
0.382901
0.391906
0.43443
0.520903
0.52062
1.14292
1.232
1.04024
0.935177
0.867294
0.818435
0.781417
0.752336
0.728873
0.709689
0.377004
0.38415
0.417154
0.520696
0.670458
0.634638
1.18562
1.3764
1.24982
1.11519
1.0555
1.02481
0.986296
0.945419
0.904421
0.866454
0.831637
0.370391
0.381217
0.390724
0.431998
0.505669
0.603563
0.675336
0.711733
0.757279
0.763833
0.934219
1.26788
1.29394
1.27408
1.09387
1.07308
1.1986
1.22825
1.2176
1.17813
1.13237
1.0884
1.04902
1.01507
0.986262
0.963468
0.362874
0.368826
0.37862
0.387164
0.411215
0.43293
0.446574
0.472124
0.534712
0.606861
0.810593
1.02939
1.09769
1.09698
1.06022
0.957266
0.980977
1.00476
1.02294
1.03281
1.03323
1.02826
1.0182
1.00321
0.987156
0.973184
0.357292
0.360037
0.364871
0.371472
0.378935
0.386672
0.392919
0.414905
0.463313
0.525784
0.561252
0.578912
0.636621
0.621821
0.60994
0.606093
0.607907
0.613604
0.622588
0.634292
0.647909
0.663053
0.679477
0.69754
0.716609
0.734694
0.353618
0.355012
0.357688
0.361689
0.366742
0.372627
0.377189
0.392521
0.417531
0.442954
0.452758
0.450481
0.455942
0.450807
0.446997
0.446361
0.448953
0.45464
0.463185
0.474384
0.48439
0.492706
0.500163
0.507504
0.515256
0.352183
0.353212
0.355309
0.35849
0.362735
0.367776
0.371116
0.381462
0.394517
0.406518
0.415329
0.4177
0.417108
0.417102
0.417188
0.41709
0.418137
0.420383
0.42378
0.428241
0.433674
0.439992
0.447117
0.453979
0.459814
0.353078
0.354326
0.35661
0.359924
0.364165
0.368798
0.370925
0.377918
0.385283
0.392161
0.398747
0.40207
0.406058
0.405908
0.405776
0.405746
0.406556
0.408412
0.411381
0.415185
0.420014
0.425585
0.431471
0.436944
0.442257
0.35551
0.357436
0.360472
0.364533
0.369249
0.374475
0.380038
0.384855
0.388227
0.389093
0.392457
0.395153
0.400452
0.401912
0.403186
0.405446
0.408692
0.412737
0.417519
0.422386
0.427418
0.432661
0.438149
0.443855
0.449653
0.358752
0.361713
0.366004
0.371368
0.377056
0.382697
0.387592
0.391086
0.393858
0.396732
0.399637
0.401435
0.401713
0.403002
0.405127
0.407891
0.410998
0.41462
0.418923
0.424031
0.429918
0.436162
0.44217
0.44742
0.451927
0.366461
0.372473
0.379579
0.386723
0.393129
0.397927
0.400998
0.403272
0.405422
0.407541
0.408992
0.409058
0.409129
0.409958
0.411647
0.413966
0.416608
0.419249
0.421566
0.423672
0.425684
0.42743
0.428707
0.3791
0.38866
0.397967
0.405509
0.41048
0.412771
0.413867
0.414475
0.415241
0.415497
0.414612
0.413089
0.411745
0.41062
0.409544
0.408418
0.407106
0.405544
0.404088
0.402868
0.401677
0.400396
0.384522
0.396506
0.407943
0.416299
0.42081
0.421699
0.421705
0.421315
0.421081
0.420611
0.419026
0.415899
0.412455
0.409168
0.40601
0.402909
0.399738
0.396504
0.393528
0.390809
0.388082
0.385353
0.40101
0.413964
0.423065
0.427574
0.427991
0.427486
0.427391
0.427951
0.428158
0.426625
0.423208
0.419311
0.415717
0.41242
0.409296
0.406123
0.402885
0.399966
0.397383
0.394716
0.391884
0.389175
0.400966
0.413873
0.422931
0.427422
0.427844
0.427325
0.427188
0.427692
0.427877
0.426331
0.422908
0.418995
0.415388
0.412089
0.408976
0.405823
0.402606
0.399712
0.397162
0.39453
0.391726
0.389039
0.396458
0.407777
0.415984
0.420369
0.421188
0.421156
0.420727
0.420433
0.419892
0.418259
0.415087
0.411575
0.408226
0.405016
0.401861
0.398626
0.395336
0.392306
0.389532
0.38675
0.383964
0.381415
0.388639
0.397862
0.405287
0.410123
0.412359
0.413436
0.413982
0.414621
0.414693
0.413626
0.411906
0.410326
0.408946
0.407624
0.40628
0.40478
0.403029
0.401382
0.399965
0.398581
0.397125
0.395879
0.395313
0.379585
0.386708
0.393083
0.397841
0.40091
0.403247
0.40534
0.407577
0.408874
0.408741
0.408577
0.409076
0.410331
0.412155
0.414261
0.416333
0.418099
0.419695
0.421277
0.422678
0.423722
0.424669
0.425548
0.371375
0.377036
0.38266
0.387547
0.391011
0.393726
0.396469
0.399217
0.400939
0.401175
0.40243
0.40441
0.407013
0.40992
0.413341
0.417456
0.422373
0.428105
0.434226
0.440156
0.445383
0.449863
0.45334
0.36928
0.374521
0.38011
0.384941
0.388255
0.388629
0.391109
0.393559
0.400097
0.401374
0.402533
0.404604
0.407435
0.41115
0.415583
0.420178
0.425061
0.430271
0.435821
0.441696
0.447712
0.453071
0.456342
0.364195
0.368848
0.371021
0.376812
0.382365
0.38759
0.392836
0.39626
0.405888
0.405506
0.405068
0.40468
0.404923
0.406223
0.408598
0.411958
0.416422
0.421546
0.427459
0.433166
0.438821
0.444319
0.449532
0.362729
0.367775
0.370499
0.378706
0.388204
0.396952
0.40404
0.407106
0.417305
0.416884
0.416643
0.415883
0.416277
0.418047
0.421218
0.42581
0.431509
0.438256
0.446086
0.454697
0.462609
0.469531
0.478541
0.366712
0.372666
0.375929
0.387347
0.404967
0.421894
0.431903
0.432893
0.455581
0.45066
0.447364
0.447192
0.450656
0.457746
0.468275
0.482051
0.494006
0.504165
0.513397
0.522509
0.532002
0.543155
0.556903
0.439452
0.464393
0.487362
0.487242
0.641961
0.625876
0.613669
0.607983
0.608262
0.613056
0.621778
0.633608
0.647553
0.663047
0.679754
0.698151
0.715189
0.733786
0.754257
0.497694
0.555262
0.713247
0.873196
0.88598
0.834283
0.776926
0.826466
0.870897
0.913087
0.945677
0.96364
0.974014
0.975865
0.969775
0.959562
0.948675
0.939306
0.932522
0.651465
1.00549
1.07447
1.17961
1.11568
1.03666
0.965774
1.17352
1.18657
1.17465
1.14206
1.10207
1.06161
1.02458
0.992749
0.966593
0.942194
0.911048
0.925141
0.93859
1.0041
1.23211
1.1239
1.4584
1.29222
1.30239
1.21001
1.09226
1.03549
1.00915
0.982433
0.94923
0.913545
0.878031
0.844395
0.812834
0.817502
1.4371
1.70004
1.18624
1.04301
0.951977
0.887015
0.838256
0.80025
0.769736
0.744763
0.724174
0.707239
0.697356
0.833272
0.860614
0.749366
0.714102
0.683887
0.658544
0.637779
0.620855
0.607002
0.595717
0.586661
0.579676
0.921951
0.801716
0.66794
0.633499
0.606236
0.583279
0.564051
0.548103
0.534945
0.524165
0.515462
0.508636
0.503593
0.363977
0.36677
0.370447
0.37475
0.379242
0.383427
0.386898
0.389507
0.391386
0.392754
0.393791
0.394688
0.395715
0.39688
0.397977
0.367989
0.372559
0.378724
0.385789
0.393123
0.399863
0.405295
0.408955
0.411106
0.412266
0.412898
0.413667
0.414968
0.416646
0.418346
0.372781
0.380111
0.390028
0.401672
0.414872
0.426468
0.435876
0.440354
0.440809
0.439085
0.436885
0.437006
0.438645
0.440983
0.443343
0.445704
0.447507
0.448947
0.450149
0.451199
0.452162
0.453091
0.454024
0.378407
0.389574
0.40544
0.413103
0.438992
0.464112
0.501772
0.49648
0.487592
0.477177
0.466287
0.456367
0.453534
0.453788
0.456254
0.465402
0.469271
0.473465
0.477287
0.479922
0.481927
0.483617
0.485182
0.384425
0.400102
0.410373
0.455967
0.519431
0.559099
0.575854
0.575248
0.558778
0.537999
0.517535
0.498707
0.487078
0.482565
0.484846
0.487869
0.523743
0.525742
0.525748
0.524421
0.522603
0.5208
0.51925
0.388885
0.397552
0.436118
0.533092
0.685976
0.838157
1.03698
1.02294
0.99769
0.972928
0.941384
0.903721
0.974242
0.895121
0.691875
0.683975
0.646964
0.638581
0.618697
0.601773
0.58733
0.575211
0.56514
0.55684
0.391013
0.402933
0.455965
0.58145
0.85198
0.761949
0.695315
0.66538
0.64243
0.622974
0.606517
0.59258
0.580729