/*--------------------------------*- C++ -*----------------------------------*\
  =========                 |
  \\      /  F ield         | OpenFOAM: The Open Source CFD Toolbox
   \\    /   O peration     | Website:  https://openfoam.org
    \\  /    A nd           | Version:  13
     \\/     M anipulation  |
\*---------------------------------------------------------------------------*/
FoamFile
{
    format      ascii;
    class       volScalarField;
    location    "800";
    object      nut;
}
// * * * * * * * * * * * * * * * * * * * * * * * * * * * * * * * * * * * * * //

dimensions      [0 2 -1 0 0 0 0];

internalField   nonuniform List<scalar> 
169916
(
0.0121449
0.0108835
0.00991664
0.00926663
0.00897269
0.00907046
0.00960743
0.0106173
0.0120846
0.0140129
0.0165007
0.0181816
0.0181729
0.0181631
0.0101913
0.00891388
0.00792469
0.00724757
0.00700104
0.00730453
0.0078715
0.00878295
0.0100929
0.0118513
0.0140807
0.0164845
0.016479
0.016472
0.00853521
0.00725591
0.00625865
0.00559869
0.00545635
0.0051199
0.00568515
0.00654006
0.00777601
0.009398
0.011307
0.0134641
0.013604
0.0133085
0.0127872
0.0124451
0.0121581
0.0118743
0.0115825
0.0112849
0.0109737
0.0105721
0.00876284
0.00716436
0.00589279
0.00493897
0.00445706
0.00401068
0.00498698
0.00407884
0.00431501
0.00521402
0.00671982
0.0085053
0.00794718
0.00793761
0.00740367
0.00699815
0.00705362
0.00677029
0.0063847
0.00601685
0.00567793
0.00537158
0.0050987
0.00774122
0.0060866
0.00478911
0.00401331
0.00356096
0.00365514
0.00258839
0.00260025
0.00304794
0.00396233
0.00552014
0.00532739
0.00523054
0.00513353
0.00343676
0.00331202
0.00319839
0.00309186
0.00299721
0.00291683
0.00285168
0.00280181
0.00276677
0.0071362
0.0053439
0.00395363
0.003077
0.00301373
0.00228834
0.00221711
0.00191879
0.00190245
0.00228949
0.00264613
0.00219777
0.00217467
0.00220605
0.00209632
0.00210248
0.00211708
0.00214638
0.00219137
0.00224709
0.00231312
0.00238868
0.00247296
0.00256503
0.00705011
0.00507698
0.00364324
0.00293973
0.00195801
0.00166219
0.00201609
0.00136008
0.00173744
0.00146748
0.00150036
0.00137994
0.00198545
0.0019587
0.00204917
0.0022641
0.00234811
0.00244617
0.0025555
0.00267349
0.00279962
0.0029332
0.00307396
0.0032201
0.00336592
0.00759953
0.00533998
0.00363075
0.00288542
0.00164473
0.00112982
0.000872133
0.00076637
0.00037377
0.000344617
0.00100205
0.00157447
0.0021198
0.0023928
0.00264341
0.002832
0.00301664
0.00320252
0.00339219
0.00358681
0.00378561
0.0039871
0.00418938
0.00439024
0.00895965
0.00630582
0.00424259
0.00448926
0.00200833
0.00142829
0.00205486
0.000792173
0.00154339
0.00196243
0.00220732
0.00160853
0.00305897
0.00360295
0.00403527
0.00385685
0.0040874
0.00431887
0.00455062
0.0047814
0.00500922
0.00523245
0.00544968
0.00565972
0.00586166
0.006055
0.0113254
0.00821366
0.00569273
0.00430639
0.00428815
0.00294503
0.00287481
0.00278579
0.00255738
0.00206414
0.00204763
0.00239623
0.00271895
0.00312407
0.00414635
0.00482694
0.00522886
0.00552503
0.00573433
0.00589464
0.00603744
0.00618148
0.00631302
0.00643568
0.00654942
0.00664802
0.0147357
0.01098
0.00815068
0.00633816
0.00506752
0.00520062
0.00585961
0.003778
0.00319764
0.00288353
0.00284742
0.00301494
0.00413974
0.00498143
0.00586866
0.00680553
0.00745725
0.007811
0.00795883
0.00797171
0.00790948
0.00782035
0.00773112
0.00764915
0.00756999
0.00748324
0.0188186
0.0140147
0.0105856
0.00839925
0.00700279
0.00617769
0.00540252
0.00496726
0.0048029
0.00506764
0.00551732
0.00613229
0.00663389
0.00786072
0.00943914
0.0108158
0.0116802
0.0120278
0.0119725
0.0116554
0.0112189
0.0107572
0.0103083
0.00988199
0.00948268
0.00911167
0.0192319
0.0165793
0.0124572
0.00985889
0.00820694
0.00710037
0.00633704
0.0059665
0.00598123
0.00650091
0.00747324
0.00878442
0.0103913
0.0123025
0.0140416
0.0152003
0.0157332
0.0157454
0.0153429
0.01468
0.0139135
0.0131506
0.0124361
0.0117856
0.0112075
0.0107075
0.0191929
0.0182344
0.0136769
0.0108794
0.00913759
0.00801999
0.00733897
0.0070519
0.0072446
0.00800305
0.0094853
0.0116441
0.0139762
0.0160604
0.0176262
0.0184987
0.0185383
0.018436
0.0175796
0.0165304
0.0154885
0.0145501
0.0137441
0.0130711
0.0125231
0.0120875
0.0191813
0.0186157
0.0141576
0.0114458
0.0097895
0.00880044
0.00831317
0.00827725
0.00873036
0.00972849
0.0115254
0.0143
0.0175967
0.0188756
0.0189017
0.0189265
0.0189535
0.0189846
0.0190204
0.0176944
0.0165605
0.0156462
0.0149371
0.0144139
0.0140477
0.0191922
0.0177709
0.0138975
0.0115362
0.0101491
0.00942594
0.00921843
0.00947639
0.0101658
0.0112876
0.0131274
0.016033
0.0190939
0.0191168
0.0191367
0.0191583
0.0191838
0.0192141
0.0189357
0.0179278
0.0171433
0.0165695
0.0162015
0.0160379
0.0160851
0.0192211
0.0162168
0.0130875
0.0112106
0.0102001
0.00982432
0.00996436
0.0105528
0.0115036
0.0127648
0.0145685
0.0172797
0.0192239
0.0192428
0.0192597
0.0192784
0.0193
0.0193246
0.0193515
0.0193792
0.0192931
0.0191665
0.0192291
0.019471
0.0194845
0.0145273
0.0120308
0.0106117
0.00999221
0.00998977
0.0104888
0.0113751
0.012506
0.0138057
0.0154473
0.0177086
0.0192614
0.0192781
0.0192911
0.0193035
0.0193161
0.0193284
0.0193396
0.0193491
0.0193565
0.0193621
0.0193659
0.0193682
0.0193696
0.0110352
0.0099346
0.00962905
0.00996176
0.010781
0.0119087
0.0131507
0.0144469
0.0159159
0.0177946
0.019225
0.0192363
0.0192409
0.0192416
0.0192396
0.019235
0.0192278
0.019218
0.0192062
0.0191935
0.019181
0.0191695
0.0191601
0.0103139
0.00940086
0.00926707
0.0098269
0.0108825
0.0121949
0.0135239
0.0148081
0.016158
0.0178288
0.0191543
0.019158
0.0191525
0.0191411
0.019126
0.0191078
0.019087
0.0190641
0.0190399
0.019016
0.0189935
0.0189733
0.0189563
0.00911664
0.00906056
0.0097288
0.010908
0.0123253
0.0137161
0.0149971
0.0162723
0.0178176
0.019097
0.019095
0.0190824
0.0190633
0.01904
0.0190137
0.0189848
0.0189542
0.0189229
0.0188922
0.0188633
0.0188372
0.0188148
0.00912184
0.00906899
0.0097406
0.0109222
0.0123407
0.0137336
0.0150201
0.016305
0.0178649
0.0190992
0.019097
0.0190842
0.019065
0.0190416
0.0190151
0.0189862
0.0189555
0.0189241
0.0188933
0.0188642
0.0188379
0.0188153
0.009413
0.00928746
0.00985713
0.010922
0.0122432
0.0135862
0.014896
0.0162871
0.0180198
0.0191581
0.0191606
0.0191539
0.0191416
0.0191255
0.0191065
0.019085
0.0190615
0.019037
0.0190128
0.01899
0.0189696
0.0189525
0.0189397
0.00994945
0.00965273
0.00999616
0.0108269
0.0119679
0.013232
0.0145659
0.0160944
0.0180751
0.0192289
0.0192382
0.0192408
0.0192397
0.019236
0.0192298
0.0192212
0.0192103
0.0191977
0.0191845
0.0191716
0.0191599
0.0191502
0.0191437
0.0106241
0.0100128
0.0100199
0.0105319
0.0114381
0.0126014
0.0139487
0.0156477
0.0180163
0.0192657
0.0192801
0.0192909
0.0193011
0.0193113
0.0193214
0.0193306
0.0193383
0.0193443
0.0193489
0.0193521
0.0193541
0.0193555
0.0193572
0.0112177
0.0102148
0.00984771
0.0100012
0.0106137
0.0116035
0.0129206
0.0148014
0.0176338
0.0192301
0.019247
0.0192619
0.0192784
0.0192979
0.0193205
0.0193456
0.0193719
0.0193981
0.0193148
0.019329
0.0194642
0.0194784
0.0194875
0.0101544
0.00943861
0.00924284
0.00952023
0.0102418
0.0114121
0.0133154
0.0163138
0.0191014
0.0191225
0.0191408
0.0191608
0.0191847
0.0192135
0.0192401
0.0181714
0.0173419
0.0167345
0.0163408
0.0161514
0.016173
0.016441
0.0170009
0.00979011
0.00880954
0.00833268
0.00830632
0.00877194
0.00978959
0.0115986
0.0143699
0.0176418
0.018884
0.0189099
0.0189345
0.018961
0.0189916
0.0190271
0.0177583
0.0166128
0.0156896
0.0149724
0.0144434
0.0140667
0.0138713
0.0138955
0.0091385
0.00803253
0.00736323
0.00706263
0.00726184
0.00801315
0.00944253
0.0114914
0.0136744
0.0156073
0.0170731
0.0179847
0.0182803
0.0179719
0.0172193
0.0162658
0.0152979
0.0144122
0.013641
0.0129885
0.0124515
0.0120184
0.0117038
0.00820709
0.0071178
0.006385
0.00587846
0.00591507
0.00643807
0.00735426
0.00854149
0.00996608
0.0116495
0.0132006
0.0142713
0.0148085
0.0148793
0.014567
0.0140066
0.0133419
0.0126656
0.0120186
0.0114169
0.0108713
0.0103905
0.00995943
0.00479167
0.00504547
0.0054544
0.00599083
0.00640701
0.00748148
0.00883154
0.00999501
0.0107464
0.0110769
0.0110591
0.0108021
0.0104297
0.0100252
0.00962457
0.00923976
0.00887737
0.00853995
0.00822512
0.00388901
0.00373012
0.00380021
0.0039979
0.00414531
0.00496341
0.00575874
0.00658328
0.00715269
0.00746845
0.00760737
0.00762818
0.00758284
0.00751274
0.00744139
0.00737603
0.00731372
0.00724618
0.00716125
0.00246457
0.00236111
0.002535
0.00312696
0.00368795
0.00429291
0.00498856
0.00539312
0.00567366
0.0059323
0.00616068
0.006339
0.00646394
0.00654356
0.00664934
0.00675882
0.00685177
0.00691594
0.00209708
0.00230301
0.003097
0.00348195
0.00398578
0.00390009
0.00415335
0.00440359
0.0046501
0.00489197
0.00512759
0.00535549
0.00557455
0.00578389
0.00598293
0.00617145
0.0063496
0.00129649
0.00213417
0.00251174
0.002891
0.00261406
0.00281547
0.00301523
0.00321332
0.00341339
0.00361681
0.00382305
0.00403052
0.00423736
0.00444171
0.00464172
0.00483605
0.00138817
0.00205607
0.00220577
0.00227811
0.00235548
0.0024511
0.00256037
0.00268065
0.00280935
0.00294548
0.00308831
0.00323736
0.00339144
0.00354359
0.00369508
0.00207039
0.00207906
0.00209383
0.00212335
0.00216913
0.00222689
0.00229521
0.00237318
0.00245984
0.00255433
0.00265581
0.00276259
0.0028737
0.0119553
0.0106969
0.00975344
0.00917429
0.00902719
0.00930673
0.0100245
0.0111592
0.0126083
0.0142497
0.0160313
0.0179746
0.018062
0.0180673
0.00990039
0.00861542
0.00764412
0.00713507
0.00724661
0.00763883
0.00831583
0.00932928
0.0106384
0.0120876
0.013486
0.014676
0.0156934
0.0160557
0.00812501
0.00682394
0.00587965
0.00562114
0.00515411
0.00543926
0.00613097
0.00718066
0.00848651
0.00974088
0.0106783
0.0110478
0.0107454
0.010744
0.0108617
0.0110837
0.0113183
0.01151
0.0116658
0.0117693
0.011807
0.0117721
0.00824665
0.00661218
0.00530041
0.00458311
0.00408513
0.00513389
0.0037142
0.00393562
0.0047108
0.00607227
0.00782638
0.00784368
0.00789725
0.0063611
0.00646429
0.00661022
0.00668831
0.00670014
0.0066262
0.00650147
0.00634632
0.00617686
0.00600472
0.0070853
0.00536673
0.00413897
0.00337715
0.00356292
0.00242117
0.00255056
0.0029224
0.0036132
0.00331357
0.00323647
0.00327158
0.00337344
0.0035294
0.00294899
0.00305006
0.00310743
0.00312954
0.00313362
0.00312487
0.00311434
0.00310646
0.00310394
0.00634216
0.00445597
0.00321043
0.0030357
0.00195096
0.0017041
0.00169589
0.00156245
0.00147613
0.00150777
0.00152603
0.00158708
0.00172964
0.00188022
0.00199337
0.00209329
0.00214459
0.00220259
0.00226926
0.00234358
0.002427
0.00252184
0.00262827
0.00274531
0.00605918
0.00431814
0.00355952
0.00201379
0.00144135
0.00144325
0.000357271
0.000945576
0.00187362
0.00210665
0.00218925
0.0022279
0.00238133
0.00255275
0.00274247
0.00294678
0.00316243
0.00338557
0.00361214
0.00383747
0.00636015
0.00441916
0.00362601
0.00185536
0.00145239
0.000778841
0.00153592
0.00171011
0.00191701
0.00251217
0.00281389
0.00312954
0.00345205
0.0037792
0.00410301
0.00441705
0.00470598
0.00488034
0.00757569
0.00490285
0.00338585
0.00283196
0.00157131
0.00113452
0.000448454
0.000928038
0.00167009
0.00202816
0.00275173
0.00313125
0.00352719
0.00391905
0.00425202
0.00448071
0.00472052
0.00496321
0.0051996
0.0054189
0.00561122
0.0097882
0.00675527
0.00477145
0.00389012
0.00259814
0.0023312
0.00300449
0.00237652
0.00185329
0.00180259
0.00180913
0.00141619
0.00173487
0.002338
0.00294318
0.00356725
0.00352712
0.00365789
0.00385585
0.00408447
0.00431758
0.00454453
0.00476225
0.00496779
0.0051575
0.00532494
0.0131527
0.00956586
0.00693886
0.0055642
0.00539602
0.00470289
0.004274
0.00397579
0.00328639
0.00305028
0.00297741
0.00291894
0.0032231
0.00391622
0.0057865
0.00650551
0.00632576
0.00583843
0.00550469
0.00526866
0.00528254
0.00531479
0.00536078
0.00541409
0.00546625
0.00550806
0.0174882
0.0129308
0.00975964
0.00788068
0.0066777
0.00608438
0.00544847
0.00454997
0.00418051
0.00443936
0.00509275
0.00614376
0.00728838
0.00898821
0.0106434
0.0117922
0.0117441
0.0114058
0.0105723
0.00983899
0.00917026
0.00853626
0.00794227
0.00749425
0.00710507
0.00676848
0.0192491
0.0159868
0.0120433
0.00960784
0.00811455
0.00702196
0.00622856
0.00547514
0.0054831
0.00618439
0.00747297
0.00967833
0.0116833
0.0143629
0.0166686
0.0165989
0.016514
0.0164038
0.0162602
0.0150228
0.0137938
0.0126728
0.0116586
0.0107492
0.00995172
0.00925991
0.0192088
0.0179119
0.0134643
0.0107267
0.00901003
0.00783027
0.00708801
0.00682146
0.0071587
0.00814595
0.0101016
0.012793
0.0158957
0.0181404
0.0181268
0.0181026
0.0180663
0.018014
0.017941
0.0173586
0.0159266
0.0146957
0.0136456
0.012748
0.0119763
0.011328
0.0192017
0.0181933
0.0139017
0.0112629
0.00961968
0.00858671
0.00812484
0.008114
0.00857464
0.00956751
0.0116549
0.015133
0.0187428
0.0187492
0.0187473
0.0187399
0.0187273
0.0187075
0.0186766
0.0179459
0.0166024
0.0155353
0.0146942
0.0140366
0.0134602
0.0192214
0.0170549
0.0134486
0.01123
0.00991833
0.00923061
0.00904304
0.0093662
0.0100602
0.011221
0.0132716
0.0168314
0.019035
0.0190402
0.0190406
0.0190384
0.0190331
0.019022
0.018457
0.0173865
0.0164871
0.015811
0.0153557
0.0151081
0.0149925
0.0192604
0.0152616
0.0124346
0.010752
0.00987874
0.00961758
0.00986706
0.0106169
0.0116775
0.0128647
0.0145748
0.0176208
0.0191427
0.0191414
0.0191363
0.0191297
0.0191212
0.0191088
0.0190503
0.0185049
0.0181155
0.0178998
0.0179187
0.0181872
0.0185476
0.0134469
0.0112354
0.0100206
0.00958128
0.00976809
0.0104698
0.0115869
0.0128644
0.0140942
0.0155655
0.0178584
0.0190748
0.0190589
0.0190374
0.0190128
0.0189846
0.0189516
0.0189127
0.0188676
0.0188169
0.0187611
0.0187006
0.0186384
0.0185774
0.0101646
0.0092523
0.00914482
0.00973178
0.0108506
0.0122814
0.0136651
0.0148954
0.0161442
0.0178642
0.0188228
0.0187783
0.0187266
0.0186706
0.0186107
0.0185473
0.0184811
0.0184134
0.0183457
0.018279
0.0182156
0.018158
0.0181087
0.00940127
0.00864957
0.00872739
0.00956551
0.0109894
0.0126874
0.0141936
0.0154175
0.0165233
0.0179481
0.0185108
0.0184375
0.018359
0.0182782
0.018196
0.018113
0.0180303
0.0179495
0.0178721
0.0177993
0.0177324
0.0176737
0.0176255
0.00834525
0.00849202
0.00943665
0.0110092
0.0128599
0.0145051
0.0157386
0.016724
0.01793
0.0182565
0.0181565
0.0180545
0.017953
0.0178521
0.0177527
0.0176555
0.0175624
0.0174753
0.017394
0.0173197
0.0172548
0.017202
0.00835082
0.0085015
0.0094504
0.0110246
0.0128728
0.0145173
0.0157559
0.0167505
0.0179686
0.0182627
0.0181629
0.018061
0.0179595
0.0178588
0.0177594
0.0176622
0.0175691
0.0174814
0.0173994
0.0173244
0.0172587
0.0172051
0.00866153
0.00875021
0.00960164
0.0110357
0.0127385
0.0142581
0.0155114
0.0166645
0.0181574
0.0185159
0.0184416
0.018362
0.0182803
0.0181973
0.0181137
0.0180304
0.0179492
0.0178717
0.0177988
0.0177317
0.0176729
0.0176246
0.0175884
0.00926562
0.00916906
0.00976832
0.0108979
0.0123367
0.0137409
0.0150146
0.016338
0.0181798
0.0188263
0.0187799
0.0187265
0.0186687
0.0186074
0.018543
0.0184761
0.0184081
0.0183405
0.0182743
0.0182116
0.0181549
0.0181066
0.0180686
0.0100307
0.00959987
0.00979523
0.0105093
0.0116462
0.012966
0.0142537
0.0157838
0.0181971
0.019076
0.019057
0.0190326
0.0190048
0.0189737
0.0189385
0.018898
0.0188523
0.0188019
0.018748
0.0186901
0.0186313
0.0185741
0.018521
0.0107569
0.00989175
0.00963639
0.00989799
0.0106754
0.011789
0.0130521
0.0148519
0.0180465
0.0191504
0.0191473
0.0191405
0.0191323
0.0191224
0.0191093
0.0190904
0.0187717
0.0183188
0.0180461
0.0180118
0.0182324
0.0185606
0.0186462
0.00991845
0.00923555
0.00905828
0.00940393
0.0101406
0.0113525
0.0134762
0.01718
0.0190431
0.0190474
0.0190474
0.0190457
0.0190419
0.019034
0.0188737
0.0177355
0.0167743
0.0160487
0.0155553
0.0152728
0.0151242
0.0151848
0.0155274
0.00961549
0.00859149
0.00814038
0.00813164
0.008614
0.00963389
0.0117273
0.01519
0.0187504
0.0187577
0.0187568
0.0187508
0.0187402
0.0187237
0.0186978
0.0182037
0.0168131
0.0157139
0.0148463
0.0141724
0.01357
0.0131303
0.0128908
0.00900872
0.00784724
0.00710669
0.00675881
0.00710335
0.00810666
0.0100062
0.0125468
0.0154344
0.0181295
0.018119
0.018097
0.0180626
0.0180125
0.0179425
0.0172641
0.0158909
0.0146892
0.0136472
0.012743
0.0119558
0.0112855
0.0107192
0.00810911
0.00704982
0.00618182
0.00568204
0.00535928
0.00607815
0.00731541
0.0094346
0.0112027
0.0135127
0.0159314
0.0165358
0.0164423
0.0162603
0.0151804
0.0140479
0.0129681
0.0119645
0.0110382
0.0101926
0.00944024
0.00878025
0.00819949
0.00418477
0.00439886
0.00499104
0.00587604
0.00681777
0.0082971
0.00940785
0.0101491
0.0100951
0.00981289
0.00916616
0.00856947
0.00804918
0.0075848
0.00717071
0.00680554
0.00649004
0.00621811
0.00597905
0.0036664
0.00358324
0.003788
0.00384098
0.00410421
0.00494155
0.00557023
0.00627274
0.00604109
0.00565254
0.0053726
0.00515811
0.00508067
0.00510908
0.00515233
0.00520466
0.00525853
0.00530555
0.00533646
0.00278607
0.00268353
0.00259272
0.0024458
0.00294622
0.00385514
0.0038841
0.00368423
0.00381634
0.00400903
0.00422216
0.00443227
0.00463225
0.00482214
0.0050008
0.00516526
0.00531065
0.00542778
0.00174647
0.00183599
0.00187915
0.00157753
0.00224724
0.00256169
0.00284293
0.00322189
0.00361133
0.00399205
0.00435006
0.00459865
0.00481601
0.00503324
0.00524368
0.00543825
0.00560759
0.00574111
0.000704728
0.00146625
0.00172972
0.00209353
0.00259196
0.00288891
0.00319553
0.00350582
0.0038205
0.00413132
0.0044323
0.00471937
0.0049771
0.00512558
0.00524897
0.00144937
0.00191258
0.00199567
0.00229141
0.00244597
0.00261253
0.00279882
0.00300116
0.00321505
0.0034358
0.00365991
0.0038841
0.00410488
0.00432012
0.00186026
0.00206655
0.00212519
0.00219084
0.00226288
0.00233957
0.00242628
0.00252495
0.00263535
0.00275619
0.00288582
0.00302252
0.00316503
0.0132357
0.0116701
0.010433
0.00957394
0.0092121
0.00931458
0.00986622
0.0108616
0.0121807
0.013546
0.0146901
0.0155232
0.0160981
0.0166939
0.0174511
0.0110628
0.0094582
0.00818448
0.00738588
0.00733414
0.00761288
0.00817575
0.00908441
0.0103643
0.0117142
0.0126621
0.0128708
0.0126411
0.0125784
0.0128377
0.00914339
0.00751002
0.00625174
0.00579181
0.00521075
0.00533661
0.00599019
0.00705971
0.00854122
0.0100732
0.0108426
0.0105338
0.00981365
0.00912403
0.00869092
0.0091048
0.009563
0.0099805
0.0103601
0.0107074
0.0110149
0.0112708
0.0114686
0.00749521
0.00583404
0.00479717
0.00411742
0.00476251
0.00360496
0.00385392
0.00472818
0.00633404
0.00710437
0.00691196
0.00692401
0.00705743
0.00660516
0.00528661
0.00576913
0.00622644
0.00667634
0.00679985
0.00689108
0.00695481
0.00699426
0.00701265
0.00618944
0.00452443
0.00349747
0.00349356
0.00225089
0.00241229
0.0027945
0.0031986
0.00282449
0.00269367
0.00269306
0.00275151
0.00289589
0.00313592
0.00339149
0.00318528
0.00334297
0.00347038
0.00356972
0.00364634
0.00370629
0.0037546
0.00379529
0.00531169
0.00377509
0.00331544
0.00186782
0.00140234
0.00132181
0.00142873
0.000691618
0.00154363
0.00153815
0.0016797
0.00194226
0.00191082
0.00197865
0.00217138
0.00229855
0.00231063
0.00239873
0.00247949
0.00255537
0.00263166
0.00270964
0.0027904
0.00287451
0.00483966
0.00338742
0.0025521
0.0014682
0.00107877
0.000386249
0.0016338
0.00196488
0.0021955
0.00237269
0.0025417
0.00270623
0.00286953
0.00303246
0.00319404
0.00335228
0.00350291
0.00495646
0.0034925
0.00242413
0.00139867
0.000735568
0.00133058
0.00251649
0.00416754
0.00427589
0.00449159
0.00472693
0.00494511
0.00514051
0.00531472
0.0054685
0.00560266
0.00596791
0.00409605
0.00309159
0.00153673
0.000992036
0.000561944
0.00231382
0.00330183
0.00445449
0.00489504
0.00525091
0.00553683
0.00577435
0.0059746
0.00614611
0.00629646
0.00643412
0.00656508
0.00813405
0.00509527
0.00367737
0.00277134
0.0021446
0.00198645
0.00161838
0.000975786
0.000858158
0.00180786
0.00121647
0.00163111
0.00162982
0.00165978
0.00271573
0.00334788
0.0038097
0.00428971
0.0047346
0.00512125
0.0054505
0.0057279
0.00596398
0.00616909
0.00635648
0.00653243
0.0112939
0.00802427
0.00568191
0.00480887
0.00437998
0.00512434
0.00587236
0.00377916
0.00269167
0.00325116
0.00352297
0.00324889
0.00313546
0.0035233
0.00376034
0.00397505
0.00422275
0.00448816
0.00475805
0.00502232
0.00527411
0.00541164
0.0055471
0.00567805
0.00580108
0.00591047
0.0156698
0.0114966
0.00869157
0.00731188
0.00660463
0.00626151
0.00554102
0.0046936
0.00308832
0.00331744
0.00425812
0.00687348
0.00704489
0.00681581
0.00669631
0.00661522
0.00652533
0.00643163
0.00618638
0.00550596
0.00502508
0.00467941
0.00454404
0.00457527
0.00462454
0.00468393
0.0192834
0.0149557
0.0113342
0.00915458
0.00796101
0.00687699
0.00606632
0.00551132
0.00417822
0.00442247
0.00603025
0.00940178
0.0131442
0.0127593
0.0124668
0.0121908
0.0118775
0.0115012
0.011079
0.0106246
0.0100752
0.00894583
0.00795832
0.00710524
0.0063922
0.0192434
0.0170982
0.0129285
0.0103429
0.00868099
0.00748614
0.00639408
0.00575676
0.00593642
0.00671905
0.00872718
0.0126421
0.0167465
0.0164439
0.016136
0.0158029
0.0154284
0.0149979
0.0145116
0.0139769
0.0127707
0.0115846
0.0105597
0.00964679
0.00884663
0.0192471
0.0171099
0.0132092
0.0107586
0.00916081
0.0082223
0.00738203
0.00739212
0.00799811
0.00878983
0.0106778
0.0150703
0.0181897
0.0180267
0.0178339
0.0176032
0.0173221
0.0169785
0.0165657
0.0156535
0.0143299
0.0132761
0.0124022
0.0117484
0.0110817
0.0192837
0.0155136
0.0124133
0.0104792
0.0093237
0.00876701
0.00866999
0.00938178
0.0102827
0.0106662
0.0124442
0.016943
0.0187226
0.0186105
0.0184585
0.0182579
0.0179968
0.0172636
0.0158531
0.0150387
0.0142896
0.0137231
0.0133154
0.0130317
0.0126892
0.0169572
0.013414
0.0110931
0.00974057
0.00912182
0.00916561
0.00973847
0.0109562
0.0121899
0.0131094
0.0145892
0.0182837
0.0187157
0.0186194
0.01849
0.0183284
0.0181318
0.0175541
0.0168359
0.016477
0.0160812
0.0158121
0.0157516
0.0156883
0.0152814
0.0115199
0.00971689
0.00882663
0.00868113
0.00932441
0.0105697
0.0123245
0.0138813
0.0148906
0.0158993
0.0183423
0.0182502
0.0181175
0.0179716
0.0178092
0.0176254
0.0174169
0.0171855
0.0169401
0.0166875
0.0164255
0.016157
0.0159005
0.0156576
0.00857676
0.00793373
0.00812877
0.00914015
0.0108988
0.0131748
0.0151059
0.0161618
0.0168099
0.0174166
0.0172225
0.0170238
0.0168262
0.0166289
0.0164308
0.0162318
0.0160342
0.0158459
0.0156686
0.0154996
0.015341
0.015201
0.0150835
0.00782302
0.00729392
0.00765973
0.00893821
0.0111369
0.0138919
0.0160907
0.0169554
0.0166985
0.0164346
0.0161746
0.0159315
0.0157133
0.0155112
0.0153201
0.0151384
0.0149671
0.0148129
0.0146768
0.0145518
0.014439
0.0143449
0.0142723
0.00698409
0.00738969
0.00876263
0.0111612
0.0141461
0.0164624
0.0163117
0.0159571
0.0155937
0.0152514
0.0149516
0.0147005
0.0144783
0.0142754
0.0140878
0.0139158
0.0137662
0.0136369
0.0135199
0.0134156
0.0133313
0.0132698
0.00699001
0.0074009
0.00877943
0.0111762
0.0141447
0.0164469
0.0163245
0.0159706
0.0156075
0.0152652
0.0149653
0.0147137
0.0144911
0.0142876
0.0140991
0.0139261
0.0137744
0.0136425
0.0135231
0.0134165
0.0133299
0.0132664
0.00730549
0.0076889
0.00898765
0.0112049
0.013953
0.0161583
0.0169567
0.0166972
0.0164306
0.0161683
0.0159232
0.0157037
0.0155004
0.0153083
0.0151256
0.0149539
0.0148003
0.0146645
0.0145401
0.0144279
0.0143348
0.0142633
0.0142106
0.00794491
0.00815602
0.00918414
0.0109556
0.0132178
0.0151652
0.0162635
0.0170477
0.0174125
0.0172163
0.0170162
0.016818
0.0166205
0.0164232
0.016226
0.0160312
0.0158469
0.0156742
0.0155101
0.0153566
0.015222
0.0151101
0.0150177
0.00883263
0.00869604
0.00934765
0.0106048
0.0123718
0.0139901
0.0148942
0.0160368
0.0183462
0.0182225
0.0180839
0.0179334
0.0177684
0.0175853
0.0173816
0.0171594
0.0169271
0.0166909
0.0164483
0.0162026
0.0159669
0.015742
0.0155319
0.00974417
0.00913341
0.00917752
0.00975975
0.0110054
0.012318
0.0133424
0.0148967
0.0187397
0.0187352
0.0186402
0.0185128
0.0183543
0.018163
0.0179343
0.0171245
0.016722
0.0162749
0.0159657
0.0158718
0.0157856
0.0153857
0.0150097
0.00931769
0.00875953
0.0086702
0.00940343
0.0103683
0.0108539
0.0127133
0.0173721
0.0187478
0.0186507
0.0185185
0.0183427
0.0181129
0.0178198
0.0163272
0.0154727
0.0146765
0.014087
0.0136626
0.0133712
0.013019
0.0128922
0.013059
0.0091519
0.00822265
0.00739246
0.00735777
0.00800001
0.0088692
0.0107975
0.0151416
0.0182172
0.0180715
0.0178983
0.0176906
0.0174368
0.0171242
0.0167442
0.0162959
0.0148592
0.0137253
0.0127953
0.0121097
0.0113967
0.0108885
0.0105256
0.00867664
0.00751727
0.00634673
0.00586131
0.00584893
0.00666472
0.00866694
0.012449
0.0167395
0.0164441
0.0161435
0.0158186
0.0154541
0.0150365
0.0145643
0.0140451
0.0126999
0.0115135
0.0104898
0.00959446
0.00882948
0.00818857
0.0076585
0.00792664
0.00691201
0.00553405
0.00473992
0.00642295
0.00648313
0.00772095
0.00887668
0.013139
0.0127099
0.0123744
0.0120631
0.0117224
0.0113352
0.0109128
0.0101727
0.00902325
0.00806389
0.00722463
0.00649073
0.00585869
0.00546005
0.00520259
0.00361142
0.0038995
0.00534871
0.00636193
0.00667012
0.00637958
0.00622404
0.00612152
0.0060484
0.00567464
0.00502101
0.00461997
0.00431073
0.00432356
0.00436556
0.00442557
0.00449824
0.0045774
0.00465277
0.00281732
0.00316826
0.00358229
0.00405173
0.00455582
0.00470427
0.00361882
0.00379969
0.00401965
0.00426362
0.00451862
0.00477371
0.00502251
0.00525978
0.00546086
0.00558632
0.00570597
0.00581442
0.00590354
0.00302973
0.00277212
0.00277526
0.00250139
0.00292915
0.00314584
0.00359932
0.00398373
0.00438309
0.00475688
0.00508731
0.00537341
0.00562178
0.00584001
0.00603534
0.00621586
0.00638902
0.00656076
0.000559015
0.00117027
0.00152358
0.00136524
0.00269335
0.00334147
0.00469958
0.00507507
0.00538348
0.00563297
0.00584338
0.00602583
0.00618603
0.00633167
0.0064672
0.006597
0.00672614
0.00223313
0.00441281
0.00478184
0.00479624
0.00494193
0.00511667
0.00527832
0.00542513
0.00555924
0.00568153
0.00579243
0.00589252
0.00598245
0.00136822
0.00200394
0.00234473
0.00253738
0.00272413
0.00290513
0.00308344
0.00325987
0.00343314
0.0035977
0.00375269
0.00389862
0.00403693
0.00165231
0.00188894
0.00225129
0.00234469
0.00243015
0.00250968
0.0025891
0.00266982
0.00275308
0.00283949
0.00292934
0.00302279
0.00312005
0.0129538
0.0113801
0.0101944
0.00954982
0.00941362
0.00978128
0.0106337
0.0119819
0.0134969
0.0146829
0.015239
0.0151363
0.0146461
0.0143387
0.0145103
0.0106316
0.00899859
0.0078412
0.00749194
0.00758573
0.00801671
0.00876529
0.0101722
0.0119516
0.0133207
0.0137706
0.0130552
0.0118301
0.0110623
0.0109959
0.00857071
0.00690708
0.00610128
0.00530433
0.00514733
0.00561218
0.00659108
0.00892736
0.0112359
0.0108984
0.0108897
0.0102905
0.00857113
0.00779007
0.00762403
0.0078059
0.00839595
0.00894195
0.00941829
0.00983741
0.0102
0.0105015
0.0107421
0.00681375
0.00528693
0.00437211
0.00476575
0.00344716
0.00355742
0.00446753
0.00580497
0.00554475
0.00544608
0.00543047
0.00549814
0.00573571
0.00560185
0.0052604
0.00507522
0.00606013
0.00658103
0.00704055
0.00732711
0.00748686
0.00762814
0.00775371
0.00544835
0.00412245
0.0038974
0.00231619
0.00217888
0.00238292
0.00304453
0.00296783
0.00281549
0.00275526
0.0027688
0.00285479
0.00301664
0.00321792
0.00336016
0.0039949
0.00393048
0.00412832
0.00429856
0.00444668
0.00457823
0.00469733
0.00480686
0.00442784
0.00308204
0.00244246
0.00150206
0.00109778
0.00151825
0.0018503
0.00207317
0.00141304
0.00139039
0.00123009
0.00167869
0.00192943
0.00213191
0.00199576
0.00252235
0.00255328
0.00270525
0.00284191
0.00296594
0.00308284
0.00319639
0.00330876
0.00342131
0.00445587
0.0033531
0.00169539
0.001199
0.00019323
0.000985176
0.00167167
0.00204874
0.00234216
0.00251109
0.00266129
0.00280086
0.00293505
0.0030663
0.00319614
0.00332544
0.0046507
0.00330146
0.00163113
0.00102631
0.000272971
0.00253118
0.00328528
0.00360152
0.00360202
0.00363999
0.00369723
0.00376703
0.00384591
0.00393206
0.00402494
0.00548097
0.00390626
0.00198595
0.00116513
0.000498591
0.0018568
0.00425111
0.00531124
0.00537064
0.00525467
0.00527273
0.0053443
0.00537088
0.00536897
0.00534669
0.00532106
0.00529736
0.00652797
0.00455737
0.00324546
0.00206222
0.00174059
0.00170903
0.000669111
0.00138245
0.00121361
0.00124631
0.00104138
0.00135226
0.00174615
0.00178453
0.00283548
0.00330742
0.00437084
0.00484404
0.00516342
0.00535672
0.00549155
0.00560104
0.00570213
0.00580435
0.00591003
0.0060251
0.00976103
0.0066453
0.00510827
0.00401936
0.00389919
0.00656784
0.00544522
0.00259996
0.00168664
0.00243196
0.00198157
0.00231473
0.00258152
0.00283738
0.00306811
0.00339948
0.00373818
0.00408204
0.00440911
0.00470651
0.00496683
0.00519851
0.0054003
0.00557094
0.00572334
0.00587133
0.013973
0.0101619
0.0077985
0.00679071
0.00678578
0.00700748
0.00554243
0.00277264
0.00174258
0.00200683
0.00265324
0.00257223
0.00255847
0.00267408
0.00281614
0.00298372
0.00316186
0.00334067
0.00351703
0.00369132
0.00386492
0.0040399
0.0042179
0.00440346
0.00459702
0.00479204
0.0186337
0.0136718
0.0104709
0.00877
0.0078872
0.00727902
0.00573177
0.00328328
0.00264302
0.0033453
0.00792458
0.00710279
0.00497126
0.00488045
0.00485081
0.00484816
0.00484916
0.0048462
0.00483972
0.00483354
0.00481134
0.00477553
0.00473494
0.00469634
0.00466539
0.0193057
0.0156935
0.0120162
0.00976506
0.00832191
0.00749203
0.0062079
0.00431882
0.00434432
0.00480343
0.00634473
0.0123502
0.00967692
0.00900935
0.00850897
0.00809625
0.00772932
0.00738863
0.00707095
0.00677633
0.00650647
0.00626578
0.00601237
0.00586351
0.00568741
0.0193276
0.0152875
0.0120008
0.00990487
0.0085227
0.00795735
0.0077624
0.00575404
0.00631761
0.00645709
0.00695117
0.0115183
0.0142179
0.0133654
0.0125916
0.0118553
0.0111343
0.0104306
0.00975771
0.00913439
0.00856525
0.00806368
0.00760615
0.00698953
0.00635388
0.0169186
0.0133196
0.0108531
0.00931441
0.00853541
0.00774564
0.00743925
0.00845052
0.0109929
0.0112324
0.0090882
0.0123009
0.01656
0.0156046
0.0146344
0.0136643
0.0126978
0.0117646
0.0108881
0.00993253
0.00905106
0.00851045
0.00815021
0.0077835
0.00742806
0.0138487
0.0111176
0.00931229
0.00835452
0.00825731
0.00802412
0.0088996
0.0112736
0.0142671
0.0132289
0.0128624
0.0167124
0.0170755
0.0163677
0.0155689
0.0143998
0.0130781
0.0124318
0.0120853
0.0117983
0.0112606
0.0105892
0.00997181
0.00944349
0.00900102
0.00927202
0.00785951
0.00743019
0.0078007
0.00808888
0.00996801
0.0133753
0.0170144
0.016156
0.0152811
0.0162094
0.0158596
0.0154793
0.0150538
0.014568
0.0140102
0.0133934
0.012757
0.0121577
0.0116149
0.0111132
0.0106517
0.0102706
0.00672474
0.00651246
0.00723323
0.00878071
0.0118285
0.0156195
0.0151851
0.0147888
0.0143884