/*--------------------------------*- C++ -*----------------------------------*\
  =========                 |
  \\      /  F ield         | OpenFOAM: The Open Source CFD Toolbox
   \\    /   O peration     | Website:  https://openfoam.org
    \\  /    A nd           | Version:  13
     \\/     M anipulation  |
\*---------------------------------------------------------------------------*/
FoamFile
{
    format      ascii;
    class       volScalarField;
    location    "800";
    object      omega;
}
// * * * * * * * * * * * * * * * * * * * * * * * * * * * * * * * * * * * * * //

dimensions      [0 0 -1 0 0 0 0];

internalField   nonuniform List<scalar> 
169916
(
18.8087
18.9972
19.2707
19.6367
20.0783
20.548
20.9901
21.3599
21.6342
21.8094
21.896
21.9131
21.8792
21.816
19.0697
19.4174
19.9428
20.6813
21.5937
22.5478
23.4603
24.2501
24.8476
25.2293
25.4203
25.4727
25.4441
25.397
19.4089
20.0125
20.9844
22.4213
24.237
26.1373
28.1221
30.0165
31.4937
32.4108
32.8381
33.0284
33.1076
33.2501
33.5948
34.1918
35.0787
36.2773
37.7899
39.5948
41.6528
43.9158
19.2638
19.8246
20.8258
22.5446
25.1658
28.6579
29.6401
33.6664
38.8655
43.4566
46.5102
48.1029
63.4573
63.3622
65.0133
67.7362
71.3444
75.6596
80.3945
85.2676
89.9809
94.2899
98.0598
19.4647
20.2739
21.8539
24.7051
29.2944
31.3894
40.8685
57.6752
77.1977
93.5384
102.588
105.962
107.429
109.497
164.856
171.471
177.094
180.496
181.667
180.775
178.168
174.257
169.436
19.5806
20.6362
22.9173
27.4742
30.0884
43.0122
67.099
131.606
162.971
229.758
265.648
321.059
318.683
326.664
383.007
345.49
311.494
281.99
256.825
234.98
216.139
199.903
185.878
173.706
19.5354
20.6958
23.3517
25.5761
36.6726
68.8419
105.496
272.425
462.677
677.099
733.888
827.288
663.587
511.827
431.085
345.647
297.615
261.684
233.623
211.089
192.705
177.491
164.781
153.999
144.518
19.3095
20.3381
22.9714
25.3179
40.5458
94.0279
186.052
782.477
1041.65
960.089
760.959
633.735
428.689
330.974
254.411
223.888
199.671
180.378
165.225
153.101
143.2
134.975
128.044
122.13
18.9774
19.672
21.5694
22.5228
31.4379
59.7799
93.9477
241.889
332.187
347.084
339.444
266.886
218.643
176.672
153.041
161.114
149.533
140.072
132.309
125.823
120.316
115.593
111.516
107.981
104.915
102.272
18.6594
19.0057
19.9276
21.7582
22.6971
27.5309
36.607
48.9362
58.9333
70.4881
80.2952
83.5917
84.2838
82.813
84.6945
84.1583
83.1466
82.0808
81.0793
80.1656
79.3447
78.6187
77.9974
77.4884
77.0999
76.8465
18.4263
18.5629
18.9227
19.631
20.8681
22.2466
22.9751
25.7524
29.1821
33.0817
36.9298
40.0035
40.6104
41.2534
41.8223
41.9766
41.9974
42.047
42.1999
42.4891
42.9225
43.4916
44.1826
44.9845
45.8932
46.9155
18.2775
18.3164
18.4722
18.7977
19.3532
20.1379
21.1552
22.3751
23.6742
24.8322
25.7427
26.4005
26.8881
27.1219
27.1725
27.1377
27.0832
27.0494
27.0609
27.1351
27.2844
27.5183
27.8458
28.277
28.8219
29.491
18.1885
18.1853
18.263
18.4542
18.7862
19.276
19.9246
20.6712
21.4007
21.9767
22.362
22.5798
22.6713
22.675
22.6307
22.5666
22.5013
22.4472
22.4148
22.4118
22.4448
22.5199
22.6428
22.8195
23.0564
23.3597
18.1413
18.121
18.1663
18.2983
18.5309
18.8669
19.2916
19.761
20.1949
20.5173
20.7068
20.7849
20.7944
20.7659
20.7179
20.662
20.6068
20.56
20.5281
20.5165
20.5287
20.5676
20.6355
20.7345
20.866
21.0292
18.1259
18.1033
18.1391
18.2474
18.4319
18.6845
18.9803
19.2796
19.5365
19.718
19.8158
19.8419
19.8236
19.7832
19.7338
19.6836
19.6385
19.6035
19.582
19.5758
19.586
19.6133
19.6578
19.7187
19.7944
18.1367
18.123
18.1653
18.2715
18.4368
18.6427
18.8617
19.0631
19.2244
19.335
19.3918
19.3993
19.3744
19.3347
19.2917
19.2523
19.2204
19.1982
19.1867
19.1857
19.1951
19.2143
19.2423
19.2771
19.3165
18.1692
18.1741
18.2364
18.3575
18.5234
18.7085
18.884
19.0291
19.1358
19.2052
19.2383
19.2379
19.2138
19.179
19.1432
19.1116
19.0861
19.0671
19.0541
19.0459
19.0416
19.0404
19.0414
19.0434
19.0463
18.2491
18.3432
18.4933
18.675
18.8559
19.0099
19.1261
19.2063
19.2567
19.2808
19.2809
19.2624
19.2341
19.2036
19.1748
19.1487
19.1249
19.1021
19.0791
19.0555
19.0316
19.0075
18.9832
18.9586
18.468
18.6568
18.8648
19.0528
19.1991
19.3023
19.3714
19.4151
19.438
19.4425
19.4307
19.4073
19.3777
19.3458
19.3128
19.2788
19.2432
19.2058
19.1667
19.1274
19.0886
19.0501
19.0123
18.5792
18.8051
19.0423
19.2433
19.3905
19.4898
19.5554
19.5978
19.6227
19.6318
19.6249
19.6031
19.5708
19.5328
19.4918
19.4488
19.4041
19.3575
19.31
19.263
19.2173
19.173
19.1302
18.8953
19.151
19.3616
19.5111
19.6101
19.6751
19.7182
19.7457
19.7591
19.7567
19.7378
19.7059
19.6668
19.6238
19.5787
19.5317
19.483
19.4335
19.3849
19.3381
19.2932
19.2504
18.8944
19.1494
19.3591
19.508
19.6063
19.6709
19.7135
19.7405
19.7534
19.7505
19.731
19.6987
19.6591
19.6157
19.5702
19.5229
19.474
19.4245
19.3759
19.3292
19.2845
19.2419
18.8035
19.0392
19.2385
19.3839
19.4817
19.546
19.5871
19.6104
19.6179
19.6093
19.5859
19.5523
19.513
19.4708
19.4268
19.3812
19.334
19.286
19.2387
19.1928
19.1485
19.1058
19.0654
18.6552
18.8618
19.0479
19.1922
19.2937
19.361
19.4027
19.4235
19.4257
19.4114
19.3855
19.3536
19.3194
19.2842
19.2483
19.2111
19.1722
19.132
19.0918
19.0523
19.0134
18.9753
18.9385
18.4923
18.6728
18.8521
19.0041
19.118
19.1957
19.2434
19.2649
19.2625
19.2414
19.2106
19.1776
19.1463
19.1176
19.0913
19.0663
19.0414
19.0161
18.9907
18.9654
18.94
18.9145
18.8895
18.3569
18.522
18.7057
18.8792
19.0214
19.1246
19.19
19.2193
19.2156
19.1886
19.1511
19.1127
19.0785
19.0502
19.0286
19.013
19.0025
18.9961
18.9928
18.992
18.9921
18.993
18.9942
18.436
18.641
18.8581
19.0565
19.2136
19.3196
19.3719
19.3759
19.3481
19.3058
19.2603
19.2183
19.1836
19.1583
19.1437
19.1395
19.1453
19.1607
19.1846
19.2153
19.2501
19.2894
19.331
18.4313
18.6829
18.9764
19.2725
19.5257
19.7031
19.798
19.8225
19.8032
19.7621
19.7118
19.6604
19.6141
19.5773
19.5536
19.545
19.5526
19.5769
19.6179
19.6749
19.7468
19.8293
19.9283
18.5298
18.8639
19.2845
19.7524
20.1846
20.5063
20.6985
20.7815
20.7959
20.7718
20.7272
20.6738
20.6205
20.5751
20.5439
20.5326
20.5447
20.5832
20.6504
20.7484
20.8792
21.0428
21.2297
18.7843
19.2707
19.9092
20.6783
21.4244
22.0125
22.4116
22.6463
22.7543
22.7713
22.737
22.6807
22.622
22.5748
22.5495
22.5548
22.5978
22.685
22.8225
23.0172
23.2767
23.6087
24.0215
23.6648
24.8283
25.761
26.4649
27.0115
27.303
27.4044
27.4138
27.4011
27.4106
27.4706
27.6016
27.8181
28.1312
28.5513
29.089
29.7556
30.563
31.5256
26.1548
28.4616
30.5021
32.0118
40.2178
40.8333
41.4598
41.7209
41.8688
42.0521
42.3389
42.7588
43.3184
44.0083
44.8136
45.7226
46.7307
47.8436
49.0798
45.7891
51.7002
55.571
56.5523
55.7947
81.3852
80.4776
79.34
78.2905
77.3476
76.4997
75.7528
75.1204
74.6142
74.2201
73.9375
73.7773
73.7601
106.368
157.946
137.096
123.137
113.763
158.361
146.236
136.433
128.446
121.81
116.195
111.391
107.252
103.667
100.559
97.874
95.586
352.205
384.566
294.27
231.882
259.044
226.954
201.738
181.504
165.436
152.583
142.114
133.443
126.159
119.969
114.658
110.076
840.487
577.512
459.428
351.315
301.503
264.485
235.662
212.619
193.774
178.143
165.037
153.97
144.538
136.16
128.757
386.158
347.866
313.036
282.924
257.353
235.305
216.302
199.928
185.781
173.505
162.794
153.353
144.961
18.8331
19.0404
19.3447
19.7489
20.2185
20.7044
21.155
21.5297
21.8075
21.985
22.0709
22.0837
22.0514
22.0068
19.129
19.5338
20.1621
21.027
22.0212
23.0924
24.1417
25.0422
25.7034
26.0985
26.2576
26.2617
26.2406
26.19
19.5444
20.3082
21.5841
23.4089
25.524
28.1861
31.05
33.5532
35.2921
36.1553
36.3214
36.3245
36.2816
36.1983
36.1212
36.0768
36.0838
36.2109
36.5879
37.1634
37.9146
38.8204
19.3864
20.1143
21.5225
24.0274
27.9799
29.2001
35.2852
44.2206
53.1492
59.402
62.2929
62.4494
61.7581
77.0517
75.4801
74.2491
73.4046
73.3054
74.1243
75.4577
77.1105
78.9332
80.8202
19.677
20.8386
23.2751
28.1261
30.6323
45.6533
78.379
124.849
156.197
168.215
166.807
159.806
151.45
142.717
173.723
167.485
163.915
162.427
161.489
160.334
158.844
156.909
154.533
19.897
21.5626
25.3453
27.9597
45.392
100.948
193.486
455.222
523.232
508.335
497.105
428.467
364.439
360.951
328.733
344.374
316.373
291.353
269.032
249.03
231.248
215.627
201.954
189.975
19.9317
21.7411
23.227
32.9506
71.7737
172.544
1013.8
962.743
668.316
509.494
430.615
358.81
316.583
284.214
258.732
238.071
220.997
206.663
194.469
183.982
19.6963
21.4051
22.8991
34.4915
64.1274
363.662
659.719
505.316
412.598
342.867
305.962
277.537
254.508
235.31
219.213
205.626
194.095
184.279
19.2425
20.5424
23.9086
27.1352
54.6294
160.597
1014.4
895.933
573.386
412.781
319.888
281.735
253.592
231.859
214.488
200.313
188.573
178.721
170.364
163.23
157.126
18.8044
19.4061
20.9162
22.1434
28.5548
45.8137
87.1642
230.233
306.073
312.312
302.008
283.847
220.905
204.439
192.703
177.581
171.417
165.614
160.191
155.112
150.392
146.063
142.137
138.616
135.499
132.794
18.4957
18.7188
19.2885
20.3458
21.0595
23.5892
27.8436
33.7156
40.614
47.4317
54.4313
61.2326
66.6969
69.9096
75.1799
76.1146
76.7547
77.6118
78.7989
80.304
81.9102
83.5415
85.1459
86.7003
88.2178
89.7423
18.31
18.3765
18.5859
19.0026
19.6568
20.5212
21.6865
23.3905
25.663
27.8736
29.6766
31.6573
33.0172
33.7741
34.2563
34.597
34.9526
35.426
36.096
36.9984
38.1605
39.5966
41.3195
43.3199
45.5857
48.1006
18.2068
18.2122
18.3053
18.5206
18.8807
19.4135
20.1355
21.0904
22.1025
22.9023
23.4142
23.7873
24.0271
24.1497
24.2093
24.2524
24.3201
24.4445
24.6514
24.9584
25.3864
25.9504
26.6694
27.5639
28.6529
29.9541
18.1573
18.141
18.1931
18.3356
18.5854
18.9555
19.4411
19.9952
20.5131
20.901
21.1166
21.2133
21.2469
21.2454
21.2296
21.217
21.2242
21.2661
21.357
21.5079
21.7267
22.0239
22.4089
22.8899
23.4739
24.1533
18.147
18.1297
18.1735
18.2934
18.4955
18.7764
19.1075
19.4468
19.7447
19.9648
20.0813
20.1136
20.1002
20.0677
20.0323
20.0059
19.9982
20.0184
20.0742
20.1714
20.314
20.5071
20.7539
21.0544
21.4052
18.168
18.1646
18.2216
18.3473
18.5363
18.7696
19.0181
19.245
19.43
19.5613
19.6316
19.6457
19.6269
19.5977
19.5732
19.5628
19.5732
19.6091
19.6736
19.7696
19.8999
20.0661
20.2674
20.4985
20.7541
18.2146
18.2382
18.327
18.4813
18.6837
18.9032
19.107
19.2712
19.3933
19.4819
19.537
19.5557
19.5483
19.5334
19.5249
19.5294
19.5503
19.5883
19.6435
19.7148
19.8026
19.9069
20.0257
20.1551
20.2917
18.3424
18.4802
18.6845
18.9221
19.1509
19.3412
19.4835
19.5875
19.6665
19.7247
19.7605
19.777
19.7856
19.7968
19.8155
19.8428
19.8777
19.918
19.9605
20.0045
20.0509
20.0995
20.147
20.1926
18.6591
18.9309
19.2237
19.4829
19.685
19.8352
19.9517
20.0483
20.1308
20.1979
20.2469
20.2818
20.3097
20.3359
20.3617
20.3866
20.4089
20.426
20.4384
20.4491
20.4575
20.4612
20.4594
18.8223
19.1629
19.5179
19.8195
20.0475
20.2175
20.3555
20.4765
20.587
20.6853
20.7637
20.8175
20.8517
20.875
20.8926
20.9058
20.9139
20.9149
20.91
20.9022
20.8919
20.8766
20.8554
19.3033
19.7007
20.0351
20.287
20.4774
20.6358
20.7795
20.9181
21.0501
21.1623
21.2431
21.295
21.33
21.3561
21.3755
21.3879
21.3913
21.387
21.379
21.3678
21.3506
21.3258
19.3019
19.6978
20.0307
20.2812
20.4705
20.628
20.7708
20.9083
21.0392
21.1503
21.2301
21.2812
21.3154
21.3408
21.3596
21.3714
21.3745
21.3706
21.3632
21.3527
21.3363
21.3124
19.1607
19.5133
19.8119
20.0372
20.2054
20.3418
20.4611
20.5694
20.6654
20.7414
20.7932
20.8253
20.8467
20.8626
20.8743
20.881
20.8809
20.8751
20.8666
20.8558
20.8402
20.8189
20.7926
18.9291
19.2199
19.4767
19.6764
19.8247
19.9395
20.034
20.1141
20.1779
20.2232
20.2545
20.2789
20.3013
20.3233
20.3446
20.3635
20.3776
20.3874
20.3955
20.4018
20.4036
20.4003
20.3926
18.6836
18.92
19.1471
19.3354
19.4757
19.5772
19.6534
19.7092
19.7427
19.7567
19.763
19.7717
19.7873
19.8109
19.842
19.8782
19.9165
19.9561
19.9975
20.0409
20.0831
20.1233
20.1615
18.4811
18.6826
18.9008
19.1028
19.264
19.3819
19.4653
19.5153
19.5297
19.5186
19.5004
19.4883
19.4888
19.5049
19.538
19.5879
19.6537
19.7353
19.8331
19.9452
20.0674
20.1961
20.3264
18.5364
18.7692
19.0164
19.2404
19.4207
19.5462
19.6112
19.6209
19.5978
19.564
19.5342
19.5174
19.5197
19.5461
19.5996
19.6823
19.7968
19.9447
20.1255
20.3348
20.5677
20.8184
21.0718
18.4956
18.7759
19.1049
19.4424
19.7371
19.9529
20.0661
20.0966
20.0815
20.0466
20.0077
19.9763
19.962
19.9734
20.0182
20.1026
20.2297
20.4043
20.6295
20.9059
21.2309
21.6055
22.0321
18.5847
18.9522
19.4354
20.0006
20.5274
20.9187
21.1386
21.2401
21.2771
21.2773
21.2616
21.2483
21.2535
21.2922
21.3774
21.5206
21.7298
22.0156
22.3878
22.8554
23.4268
24.0953
24.8561
18.8794
19.4072
20.1465
21.0894
22.1419
22.9507
23.4729
23.8577
24.1173
24.263
24.3482
24.4212
24.5214
24.6815
24.9231
25.2695
25.7403
26.3566
27.1399
28.1137
29.3015
30.7229
32.3756
25.6094
27.8391
29.7304
31.9935
33.6578
34.6739
35.3748
35.9141
36.474
37.1625
38.0688
39.2429
40.7088
42.4704
44.5195
46.8469
49.4377
52.2763
55.3572
29.7233
33.7192
37.5147
41.0468
44.0278
45.8859
73.9822
75.6151
76.9105
78.3057
79.9168
81.7512
83.6817
85.5714
87.3757
89.0801
90.7053
92.2994
93.9353
85.458
95.7866
103.125
107.972
109.982
109.528
166.221
161.147
156.428
152.013
147.856
143.975
140.399
137.143
134.209
131.6
129.325
127.411
553.347
567.921
462.228
351.398
348.546
297.49
317.56
277.565
248.513
226.447
209.093
195.13
183.699
174.195
166.196
159.406
153.622
148.711
1190.72
668.468
499.195
393.248
345.777
306.279
276.107
252.1
232.34
215.968
202.297
190.801
181.085
172.853
165.878
671.536
544.673
446.577
363.249
319.553
285.713
259.366
238.239
220.903
206.403
194.125
183.619
174.553
166.679
452.295
340.44
313.828
289.693
267.722
247.685
229.904
214.312
200.679
188.744
178.261
169.013
160.824
18.7247
18.8728
19.1113
19.4565
19.8883
20.3682
20.8452
21.2706
21.6141
21.8654
22.025
22.1007
22.1076
22.1047
22.0828
18.934
19.2325
19.7344
20.4864
21.4201
22.5218
23.6832
24.7541
25.614
26.2119
26.5396
26.6376
26.6914
26.697
26.663
19.2238
19.7937
20.8212
22.4121
24.4696
27.4263
30.757
33.8111
36.1397
37.565
38.0866
38.1656
38.125
37.9716
37.8437
37.6723
37.4954
37.3367
37.2038
37.1066
37.0515
37.0419
37.08
19.6128
20.6633
22.6599
26.1184
27.5787
35.0173
45.8737
56.3083
64.171
68.6823
69.9626
69.2023
67.5446
65.728
78.2726
75.9558
73.9386
72.2515
70.9033
69.8671
69.102
68.5668
68.2258
20.0805
21.8818
25.5612
27.9273
44.3854
87.9165
132.822
177.142
198.678
201.806
194.157
183.518
169.757
155.586
144.033
160.117
152.458
146.277
141.232
137.043
133.486
130.382
127.602
20.5192
23.1439
25.1016
39.2025
101.323
269.713
515.977
1315.11
663.233
750.617
712.972
555.617
441.611
343.659
328.17
290.604
289.96
265.546
245.611
228.792
214.446
202.002
191.092
181.446
20.7352
23.9309
27.4173
53.354
152.414
893.821
642.709
477.573
373.262
325.927
291.324
264.584
243.255
225.803
211.223
198.827
188.051
20.4776
23.4372
27.3717
57.5375
319.748
655.863
465.453
322.828
268.249
234.665
210.976
193.666
180.227
169.363
160.249
152.355
19.7651
21.7943
24.05
45.7755
129.443
782.429
559.656
418.334
302.871
268.269
242.746
223.11
207.561
194.815
184.078
174.849
166.818
159.742
19.0636
20.2525
22.9943
26.1942
47.0552
141.589
355.197
662.563
808.944
469.315
664.687
474.64
425.121
408.801
360.275
294.229
270.148
249.891
232.341
217.021
203.76
192.289
182.374
173.783
166.389
159.975
18.6168
18.9959
19.9571
21.6813
23.3842
29.065
38.3267
50.0055
68.1766
92.2652
116.089
143.57
166.954
180.234
184.885
178.172
172.497
167.795
163.79
160.238
156.912
153.723
150.642
147.682
144.91
142.401
18.3669
18.4831
18.7879
19.358
20.1418
21.1422
22.5618
23.8829
29.4718
38.6483
47.198
62.7349
66.7068
68.1868
68.8518
69.264
69.9956
71.436
73.5868
76.3399
79.568
83.1515
86.8964
90.597
94.19
97.6283
18.2408
18.2635
18.3863
18.6485
19.0559
19.6558
20.4838
21.0755
23.1393
25.7511
27.7532
30.7214
32.066
32.8624
33.4249
34.0192
34.7798
35.7838
37.1432
38.8753
40.9776
43.4248
46.2174
49.3592
52.8407
18.1898
18.1841
18.2532
18.4218
18.7115
19.1437
19.7755
20.626
21.5475
22.3936
22.9181
23.1965
23.6535
24.0422
24.4246
24.8675
25.426
26.1381
27.0414
28.1694
29.5342
31.136
32.9727
35.0389
37.3233
18.1918
18.1892
18.2552
18.4072
18.6561
18.9921
19.4278
19.893
20.3116
20.6755
20.9144
21.0212
21.1626
21.3236
21.5163
21.7721
22.1247
22.6043
23.2355
24.033
25.0106
26.1655
27.4859
28.9383
30.489
18.2357
18.2594
18.3562
18.5355
18.79
19.0943
19.4183
19.6978
19.9293
20.132
20.2682
20.3276
20.403
20.5098
20.6752
20.9253
21.2842
21.7668
22.384
23.1433
24.0247
25.0347
26.1538
27.3356
28.5655
18.3153
18.3877
18.5482
18.796
19.1009
19.4122
19.6861
19.8932
20.0634
20.22
20.3578
20.4554
20.5268
20.6281
20.7861
21.0066
21.2947
21.6546
22.09
22.6013
23.1936
23.8717
24.6171
25.3962
26.1829
18.5655
18.8262
19.1878
19.5913
19.9578
20.2494
20.4672
20.6583
20.8447
21.0298
21.197
21.3435
21.4947
21.6707
21.8811
22.1322
22.4248
22.7519
23.0984
23.4602
23.8439
24.2449
24.6324
25.0095
19.1616
19.6927
20.2638
20.7745
21.1908
21.5312
21.8317
22.1207
22.4128
22.693
22.9445
23.1732
23.3936
23.6154
23.8401
24.0668
24.2878
24.4877
24.6706
24.8474
25.014
25.1529
25.2638
19.4747
20.1916
20.9657
21.6528
22.2136
22.6771
23.0989
23.5075
23.9206
24.3263
24.6867
24.973
25.198
25.3932
25.5709
25.734
25.8771
25.9866
26.0686
26.1407
26.1989
26.2287
26.2297
20.5001
21.4264
22.2622
22.9557
23.5379
24.0856
24.6443
25.2406
25.8476
26.3862
26.7983
27.0963
27.3366
27.5455
27.7302
27.8848
27.9936
28.0692
28.1324
28.1766
28.1831
28.151
20.4968
21.4188
22.2494
22.9384
23.5178
24.0633
24.6196
25.2133
25.8178
26.3547
26.7656
27.0627
27.3022
27.5106
27.6956
27.8508
27.9627
28.0428
28.1106
28.1595
28.1706
28.1425
20.1876
20.9564
21.6376
22.1945
22.657
23.079
23.4874
23.8998
24.3042
24.6637
24.9491
25.1722
25.365
25.5404
25.7017
25.8423
25.9485
26.0277
26.0969
26.1526
26.1795
26.1775
26.1572
19.6907
20.2583
20.7649
21.1781
21.5177
21.8182
22.1066
22.3963
22.6718
22.9178
23.1403
23.3529
23.5655
23.7796
23.9948
24.2037
24.3908
24.5606
24.7243
24.8779
25.0045
25.103
25.1839
19.1877
19.5899
19.9548
20.2447
20.462
20.6519
20.8433
21.0348
21.2058
21.3541
21.5052
21.6781
21.8817
22.1209
22.3965
22.7012
23.02
23.3494
23.6958
24.0539
24.401
24.7408
25.0694
18.7967
19.1003
19.4101
19.6821
19.8856
20.0494
20.1969
20.3252
20.4152
20.48
20.5743
20.7233
20.9319
21.2036
21.5453
21.96
22.4474
23.0139
23.6662
24.3865
25.1399
25.8991
26.6397
18.7917
19.0966
19.4203
19.6977
19.9233
20.1161
20.2421
20.2929
20.3517
20.4352
20.57
20.7811
21.0878
21.5107
22.0616
22.7465
23.5452
24.4671
25.4962
26.5945
27.748
28.9123
29.9881
18.6577
18.9935
19.4281
19.8981
20.3169
20.6707
20.8977
20.9955
21.1193
21.2543
21.4134
21.6278
21.9286
22.3465
22.9068
23.6277
24.5199
25.5816
26.8053
28.1611
29.6184
31.1977
32.8415
18.7117
19.1396
19.7854
20.6443
21.5845
22.4263
22.9548
23.2338
23.6839
24.0606
24.4244
24.8423
25.3693
26.048
26.9162
28.0037
29.3171
30.8666
32.6539
34.6789
36.9351
39.3238
41.9122
19.058
19.6529
20.6306
22.1523
22.4915
23.5478
24.4873
30.5995
32.0519
32.9881
33.6987
34.4366
35.3244
36.4592
37.9456
39.8133
42.0549
44.6707
47.6588
51.025
54.7689
58.8177
62.952
26.0936
30.6231
34.6329
65.4783
71.0027
73.6372
74.9698
75.7821
76.9173
78.6637
81.074
84.0749
87.554
91.1071
94.6322
98.0703
101.358
104.484
107.483
41.3023
56.9317
73.8719
93.4292
109.261
117.348
182.875
177.454
172.749
168.733
165.204
161.921
158.749
155.601
152.474
149.429
146.547
143.909
141.585
151.837
201.385
204.657
236.866
244.772
241.955
287.99
265.047
245.71
228.941
214.29
201.534
190.478
180.889
172.55
165.289
158.962
153.435
1843.46
1006.78
597.566
541.516
496.429
393.416
307.851
271.722
245.162
224.699
208.519
195.356
184.344
174.981
166.876
159.757
153.441
606.588
437.188
323.414
270.967
238.211
214.675
197.105
183.28
172.012
162.546
154.383
147.185
140.722
654.601
488.562
373.504
325.438
289.971
262.376
240.371
222.434
207.523
194.788
183.794
174.241
165.899
522.605
411.971
291.668
267.294
247.463
230.723
216.445
204.048
193.164
183.524
174.931
167.243
160.364
18.7443
18.9138
19.1835
19.5507
19.9947
20.468
20.9157
21.3026
21.6096
21.833
21.9734
22.0404
22.0692
22.095
22.1026
18.9897
19.3516
19.9398
20.7365
21.7757
22.9576
24.1127
25.1993
26.0397
26.5869
26.8368
26.8954
26.9589
26.9904
26.9854
19.3548
20.0905
21.291
23.017
25.8664
29.3357
32.6489
36.8803
39.4212
40.6139
40.5471
40.6265
40.5634
40.3402
40.0012
39.6108
39.2136
38.8346
38.4906
38.1842
37.9145
37.6804
37.4807
19.8857
21.2898
23.6842
24.9157
31.6962
43.134
54.6239
86.7204
89.5807
89.3303
87.5187
85.564
81.0651
75.7181
70.852
73.5172
71.1484
69.0272
67.1622
65.5384
64.1274
62.901
61.8352
20.5806
23.05
24.5768
35.0201
72.1394
122.967
173.805
194.847
201.096
197.993
188.944
176.975
162.786
147.52
133.711
123.621
134.521
127.974
122.244
117.232
112.841
108.971
105.537
21.3072
25.34
29.6378
59.5799
179.462
488.047
550.822
514.314
433.274
416.331
446.204
548.878
547.445
396.259
340.748
281.282
271.847
242.09
219.59
201.741
187.16
174.987
164.643
155.731
21.3674
23.0789
36.7359
71.2337
715.298
940.276
502.018
385.001
310.392
275.838
249.273
228.115
210.861
196.497
184.339
173.907
21.0379
22.8003
37.5713
88.1515
1002.86
451.534
375.005
288.833
259.626
238.268
221.364
207.436
195.62
185.367
176.323
20.2031
21.3932
31.0567
87.508
739.518
341.791
278.895
259.148
232.713
212.228
200.181
191.757
183.638
176.089
169.155
162.835
156.991
19.4664
21.0556
22.9443
36.2149
88.6156
353.162
1009.3
441.776
490.414
612.876
667.029
733.66
553.838
524.065
385.779
324.446
274.227
253.558
235.813
219.935
206.203
194.322
183.97
174.88
166.879
159.909
18.7712
19.3916
20.7077
22.2256
28.1766
39.5766
53.7168
70.4346
112.195
249.536
409.066
444.714
425.209
386.618
345.56
281.592
262.421
246.141
232.006
219.443
208.025
197.799
188.544
180.078
172.479
165.752
18.4398
18.6232
19.0574
19.7482
20.6183
21.7098
22.8769
28.464
51.96
130.059
211.535
225.063
248.829
232.537
216.587
203.134
192.262
183.677
177.021
171.833
167.639
164.126
161.094
158.407
155.886
153.316
18.2892
18.3392
18.5066
18.8188
19.2644
19.8424
20.3899
23.1358
30.222
46.1316
57.1334
63.4231
91.7155
92.37
92.1489
92.0683
92.5837
93.8136
95.7049
98.1442
100.677
103.173
105.632
108.064
110.442
18.2424
18.2583
18.3612
18.5744
18.9136
19.3656
19.7301
21.2638
23.899
27.5916
31.0995
32.8256
43.1034
46.2965
49.0292
51.5164
54.0975
56.896
59.9325
63.1966
66.6527
70.2214
73.8468
77.4245
80.8476
18.2681
18.2974
18.412
18.6314
18.9617
19.3545
19.5563
20.4159
21.4406
22.6601
24.1527
25.0895
28.5597
30.3702
32.2259
34.2247
36.5139
39.1553
42.1596
45.4529
49.037
52.778
56.5713
60.1969
63.6756
18.3542
18.4362
18.6212
18.9203
19.3019
19.7643
20.3018
20.7827
21.1835
21.2654
21.6698
22.0571
24.182
25.756
27.5505
29.672
32.186
35.0829
38.3464
41.668
45.0311
48.4712
51.9233
55.2803
58.604
18.4969
18.6757
19.0028
19.4719
19.9964
20.5284
20.9788
21.2908
21.7321
22.1911
22.6945
23.1194
23.5256
24.6217
26.0216
27.4764
29.081
30.9127
33.0307
35.4437
38.1788
41.1895
44.3419
47.3787
50.2084
19.0156
19.5782
20.3241
21.1298
21.8603
22.4179
22.8344
23.4393
24.0288
24.6386
25.2318
25.7924
26.4308
27.2329
28.2569
29.5475
31.1055
32.8643
34.6747
36.4766
38.3043
40.1277
41.7411
20.3266
21.5634
22.955
24.2911
25.4556
26.4267
27.2548
28.0263
28.8594
29.7192
30.5195
31.2985
32.0999
32.9443
33.8245
34.7517
35.6843
36.4896
37.2296
37.9835
38.6987
39.2694
21.058
22.8784
25.0309
27.0478
28.7517
30.1644
31.3837
32.4827
33.6228
34.8007
35.8531
36.6397
37.2316
37.744
38.2055
38.634
39.0048
39.2268
39.3844
39.5547
39.6907
39.7308
23.6991
26.472
29.1312
31.3812
33.2852
35.1605
37.1394
39.3017
41.3267
42.9028
43.9279
44.5682
45.0655
45.4797
45.8435
46.127
46.2527
46.3022
46.3684
46.3887
46.2882
46.0958
23.6899
26.4476
29.0881
31.323
33.22
35.0906
37.0634
39.2214
41.2465
42.8279
43.8605
44.507
45.0122
45.4398
45.8267
46.1365
46.2852
46.3578
46.4485
46.4921
46.409
46.2318
22.8711
25.0187
27.0371
28.7453
30.1738
31.4114
32.5271
33.6831
34.8771
35.9415
36.7339
37.3232
37.8336
38.2926
38.7161
39.0765
39.2852
39.4286
39.5825
39.7012
39.7214
39.679
21.5627
22.9504
24.2848
25.4488
26.4298
27.2709
28.0511
28.8912
29.7507
30.5398
31.2983
32.0679
32.873
33.7047
34.5727
35.4452
36.1906
36.8654
37.5466
38.1913
38.697
39.1131
39.5487
20.3263
21.1313
21.8608
22.4186
22.8415
23.4599
24.1425
24.8373
25.463
26.0252
26.6475
27.4117
28.371
29.5564
30.9646
32.5319
34.1241
35.7112
37.3339
38.9507
40.4045
41.7874
43.132
19.4719
19.9916
20.5203
20.9687
21.2756
21.6962
22.127
22.5945
22.9971
23.3855
24.4578
25.8264
27.2384
28.7823
30.5477
32.6049
34.9534
37.6281
40.596
43.7108
46.7256
49.5322
52.1052
19.3051
19.7692
20.3114
20.7962
21.1855
21.2018
21.4353
21.7393
23.8539
25.1846
26.7421
28.6387
30.8836
33.5414
36.598
39.7228
42.9165
46.2201
49.5792
52.9043
56.2365
59.3873
61.9516
18.9657
19.3615
19.5558
20.1641
20.7772
21.4294
22.2031
22.7411
28.1189
29.6764
31.2898
33.055
35.0898
37.4914
40.2655
43.3684
46.7901
50.3948
54.1082
57.6723
61.1214
64.5088
67.6628
18.9156
19.369
19.6498
20.7437
22.3107
24.2738
26.3802
27.6317
42.9645
45.8704
48.4144
50.7573
53.225
55.9414
58.9245
62.1546
65.5863
69.1509
72.7987
76.5001
80.0854
83.3278
86.8832
19.2667
19.8585
20.2378
22.1018
26.6878
33.7459
39.9228
42.9933
90.7444
91.9168
92.2175
92.5788
93.4804
95.0557
97.2658
100.016
102.757
105.405
107.977
110.501
112.958
115.353
117.406
38.5311
57.7149
100.954
117.322
258.285
241.504
225.033
210.748
199.035
189.688
182.374
176.572
171.803
167.747
164.218
161.096
157.971
155.088
152.454
73.3112
171.63
335.031
381.891
371.555
335.363
298.256
278.222
259.9
244.229
230.384
217.643
206.341
196.113
186.743
178.312
170.836
164.232
158.346
318.367
535.566
511.03
467.422
410.272
358.631
311.266
274.115
252.047
233.818
218.093
204.502
192.668
182.343
173.312
165.36
158.082
150.828
824.502
764.724
1123.25
1363.57
708.957
478.339
323.801
275.958
227.549
207.347
194.8
186.212
178.702
171.546
164.893
158.803
153.222
148.028
445.577
282.346
272.951
285.612
256.872
235.832
219.13
205.354
193.675
183.551
174.63
166.677
159.528
1059.54
485.944
396.983
311.578
277.187
250.627
229.42
212.112
197.712
185.528
175.085
166.045
158.169
873.586
425.642
277.523
247.203
224.304
206.145
191.311
178.925
168.398
159.326
151.431
144.524
138.475
18.7452
18.9295
19.2242
19.6199
20.0842
20.5568
20.9872
21.3425
21.6182
21.8164
21.938
21.9949
22.0372
22.0844
22.1188
19.0208
19.4302
20.1093
21.022
22.176
23.3981
24.6274
25.6364
26.3593
26.7993
26.9655
27.014
27.0706
27.1195
27.1412
19.4516
20.3208
21.8129
23.9696
27.3422
30.9335
35.7281
38.9463
40.7233
41.4061
41.2716
41.1587
41.0855
40.881
40.5315
40.125
39.648
39.1776
38.7508
38.3641
38.0186
37.7129
37.4449
20.1179
21.8329
25.1332
26.9796
36.689
49.3496
82.8285
86.841
87.8035
87.0917
85.2658
82.6355
80.2772
75.2604
70.04
71.0987
68.564
66.2247
64.1311
62.2759
60.6356
59.1831
57.894
21.042
24.0992
26.5652
45.3552
96.6919
152.349
182.889
195.2
193.446
186.889
178.356
165.877
154.237
140.345
126.568
113.848
125.845
117.928
111.128
105.259
100.165
95.7158
91.8063
21.8694
23.6015
36.5162
102.515
370.269
984.084
467.664
378.18
384.646
382.381
369.482
387.28
540.927
465.845
305.154
273.474
224.138
216.124
194.363
177.129
163.069
151.365
141.461
132.97
22.3917
25.2258
46.0806
142.363
559.011
394.549
301.567
261.751
233.137
211.043
193.281
178.609
166.238
155.65
21.998
25.0246
49.8272
243.443
560.474
393.206
302
265.555
239.138
218.467
201.678
187.699
175.788
165.409
20.8634
22.9228
40.7344
123.427
356.836
353.585
287.033
257.79
235.398
217.08
201.814
188.825
177.594
167.761
159.024
19.8613
22.0761
25.2486
47.8467
236.798
619.427
219.194
261.211
478.707
574.793
641.642
696.354
581.834
441.861
321.944
280.458
254.751
240.756
226.382
212.81
200.416
189.193
179.069
169.933
161.614
18.9179
19.7724
21.5933
23.9319
33.216
51.4274
64.3577
81.1149
125.359
875.807
559.446
433.918
362.556
319.921
300.364
280.187
260.238
242.533
227.403
214.863
203.913
191.7
180.401
171.01
162.814
18.513
18.7708
19.3472
20.1955
21.1733
22.4544
23.9976
32.5749
142.132
990.17
551.027
422.585
365.973
322.423
289.571
264.23
244.555
229.402
217.049
206.695
197.996
190.448
183.435
176.643
169.677
18.3463
18.4362
18.6703
19.0502
19.489
19.8705
21.2859
28.2321
114.68
266.134
352.72
452.518
386.739
334.655
295.232
264.964
241.278
222.38
207.036
194.375
183.855
175.138
167.972
162.133
157.246
18.3148
18.3704
18.5355
18.8258
19.1877
19.4684
20.6833
26.478
62.5763
86.4919
125.188
178.149
179.338
256.704
236.653
219.147
204.265
191.761
181.294
172.44
164.893
158.319
152.486
148.035
143.927
18.3823
18.4744
18.6858
19.0381
19.4513
19.6998
20.8232
24.4132
32.5829
49.379
61.2029
73.8662
75.3545
128.784
126.474
125.18
124.912
125.55
126.881
127.797
129.755
130.874
131.245
128.883
125.374
18.5422
18.7421
19.1161
19.6663
20.2406
20.4635
21.3997
23.1232
25.0362
28.4761
34.5212
39.5228
43.3619
79.1784
84.5342
90.1397
96.3407
102.862
109.655
108.161
107.272
108.433
111.025
114.691
118.826
18.8014
19.2076
19.9176
20.8926
21.8792
22.0241
22.8403
23.7678
28.1813
28.2897
29.9682
32.348
34.0613
51.1342
58.1803
58.2563
60.5269
65.141
71.8067
80.5756
90.6199
100.846
110.383
118.176
123.889
19.9018
21.1624
22.8263
24.7377
24.8638
25.6812
26.5454
32.9448
32.7237
33.1214
34.2506
35.5025
37.4537
40.5993
45.2873
51.4273
58.8458
67.3095
75.8396
83.6034
90.4665
96.4606
101.344
22.9541
26.1011
30.3287
34.5942
38.2186
40.952
40.6375
40.796
41.8569
43.9725
46.2529
48.842
52.2554
56.4879
61.2057
66.2106
71.3063
75.7615
79.207
82.5458
85.6531
88.09
37.0087
43.6386
48.8547
52.7696
52.2762
52.3611
53.5106
55.7514
58.3042
60.3733
61.8108
62.9653
63.9361
64.8496
65.7843
66.4333
66.594
66.9762
67.4735
67.8673
41.7595
50.9239
58.0177
63.5498
69.1758
74.9032
81.0614
80.1285
80.1194
80.6508
80.6695
80.5827
80.5189
80.5729
80.7621
80.6811
80.1816
79.8543
79.6613
79.3057
78.5846
41.6831
50.7857
57.8175
63.332
68.9489
74.6702
80.8463
80.385
81.3387
82.818
83.6992
84.4154
85.1373
85.9911
86.9626
87.5528
87.6961
87.9832
88.4174
88.5576
88.224
37.1087
43.8534
49.1268
53.1505
53.0826
54.0455
56.1363
59.5527
63.2836
66.0479
67.5774
68.6136
69.3931
70.0764
70.7322
71.005
70.7693
70.6887
70.686
70.4916
69.9438
26.1201
30.3862
34.6959
38.3297
41.1226
41.2851
42.2455
43.9984
46.6712
49.4005
51.8464
54.1587
56.4257
58.6418
60.9218
63.3923
65.527
67.0343
68.7089
70.4396
71.9297
72.8283
73.8747
22.8381
24.7547
25.3864
26.8881
28.3476
33.1713
35.2691
35.5066
37.0236
38.9562
41.4132
44.7919
49.401
55.2439
62.0134
69.1953