/*--------------------------------*- C++ -*----------------------------------*\
  =========                 |
  \\      /  F ield         | OpenFOAM: The Open Source CFD Toolbox
   \\    /   O peration     | Website:  https://openfoam.org
    \\  /    A nd           | Version:  13
     \\/     M anipulation  |
\*---------------------------------------------------------------------------*/
FoamFile
{
    format      ascii;
    class       volScalarField;
    location    "700";
    object      nut;
}
// * * * * * * * * * * * * * * * * * * * * * * * * * * * * * * * * * * * * * //

dimensions      [0 2 -1 0 0 0 0];

internalField   nonuniform List<scalar> 
171745
(
0.0187244
0.0187109
0.0186976
0.0186845
0.0186714
0.0186585
0.0186456
0.0186328
0.01862
0.0186072
0.0185944
0.0185816
0.0185687
0.0185557
0.0185426
0.0185295
0.0185163
0.018503
0.0184897
0.0184764
0.0184631
0.01845
0.0184369
0.018424
0.0187255
0.018712
0.0186987
0.0186856
0.0186725
0.0186596
0.0186468
0.018634
0.0186212
0.0186085
0.0185957
0.0185829
0.0185701
0.0185571
0.0185441
0.018531
0.0185179
0.0185047
0.0184914
0.0184782
0.018465
0.0184519
0.018439
0.0184261
0.0187276
0.0187142
0.0187009
0.0186877
0.0186747
0.0186618
0.018649
0.0186363
0.0186236
0.018611
0.0185983
0.0185856
0.0185728
0.01856
0.0185472
0.0185342
0.0185212
0.0185081
0.018495
0.0184819
0.0184688
0.0184559
0.018443
0.0184304
0.018731
0.0187176
0.0187043
0.0186912
0.0186782
0.0186654
0.0186527
0.0186401
0.0186275
0.018615
0.0186024
0.0185899
0.0185773
0.0185647
0.018552
0.0185392
0.0185264
0.0185135
0.0185006
0.0184877
0.0184749
0.0184621
0.0184495
0.018437
0.018736
0.0187226
0.0187093
0.0186963
0.0186834
0.0186706
0.018658
0.0186455
0.0186331
0.0186208
0.0186085
0.0185962
0.0185838
0.0185714
0.018559
0.0185465
0.0185339
0.0185213
0.0185087
0.0184961
0.0184835
0.0184711
0.0184587
0.0184466
0.0187431
0.0187297
0.0187165
0.0187035
0.0186907
0.018678
0.0186656
0.0186533
0.0186411
0.018629
0.018617
0.0186049
0.0185929
0.0185809
0.0185688
0.0185566
0.0185444
0.0185322
0.01852
0.0185077
0.0184956
0.0184835
0.0184715
0.0184598
0.0187529
0.0187395
0.0187264
0.0187135
0.0187008
0.0186884
0.0186761
0.0186641
0.0186522
0.0186404
0.0186287
0.0186171
0.0186055
0.0185938
0.0185822
0.0185705
0.0185588
0.018547
0.0185353
0.0185235
0.0185119
0.0185003
0.0184888
0.0184776
0.0187665
0.0187532
0.0187402
0.0187274
0.018715
0.0187028
0.0186908
0.0186791
0.0186676
0.0186563
0.018645
0.0186339
0.0186228
0.0186117
0.0186007
0.0185896
0.0185785
0.0185673
0.0185562
0.018545
0.018534
0.018523
0.0185122
0.0185015
0.0187856
0.0187724
0.0187595
0.018747
0.0187349
0.018723
0.0187115
0.0187002
0.0186892
0.0186784
0.0186678
0.0186573
0.0186469
0.0186365
0.0186262
0.0186159
0.0186056
0.0185952
0.0185848
0.0185745
0.0185642
0.018554
0.0185439
0.0185339
0.0188124
0.0187995
0.018787
0.0187748
0.0187631
0.0187517
0.0187407
0.01873
0.0187197
0.0187097
0.0186998
0.0186902
0.0186807
0.0186713
0.018662
0.0186526
0.0186433
0.0186339
0.0186245
0.0186151
0.0186057
0.0185964
0.0185872
0.0185781
0.0188507
0.0188382
0.0188261
0.0188145
0.0188034
0.0187926
0.0187824
0.0187725
0.0187631
0.018754
0.0187453
0.0187368
0.0187285
0.0187203
0.0187122
0.0187042
0.0186961
0.0186879
0.0186797
0.0186715
0.0186632
0.018655
0.0186468
0.0186387
0.0189053
0.0188934
0.018882
0.0188711
0.0188607
0.0188509
0.0188416
0.0188328
0.0188246
0.0188168
0.0188094
0.0188024
0.0187957
0.0187891
0.0187827
0.0187762
0.0187698
0.0187632
0.0187564
0.0187495
0.0187426
0.0187357
0.0187286
0.0187216
0.0189824
0.0189712
0.0189606
0.0189506
0.0189411
0.0189323
0.0189242
0.0189167
0.0189099
0.0189036
0.018898
0.0188928
0.0188881
0.0188836
0.0188792
0.0188748
0.0188703
0.0188656
0.0188607
0.0188555
0.0188501
0.0188445
0.0188387
0.0188326
0.0190873
0.0190766
0.0190666
0.0190573
0.0190487
0.0190408
0.0190337
0.0190274
0.019022
0.0190174
0.0190136
0.0190105
0.019008
0.0190058
0.0190039
0.019002
0.019
0.0189977
0.0189949
0.0189917
0.0189881
0.018984
0.0189794
0.0189743
0.019217
0.0192061
0.019196
0.0191866
0.0191779
0.0191702
0.0191633
0.0191575
0.0191529
0.0191493
0.019147
0.0191457
0.0191453
0.0191456
0.0191462
0.0191471
0.0191479
0.0191484
0.0191485
0.0191478
0.0191464
0.0191442
0.0191411
0.019137
0.0193457
0.0193331
0.0193211
0.0193098
0.0192994
0.0192899
0.0192815
0.0192743
0.0192687
0.0192646
0.0192622
0.0192614
0.0192619
0.0192634
0.0192655
0.0192679
0.0192704
0.0192729
0.0192754
0.0192778
0.0192791
0.0192791
0.0192776
0.0192746
0.0194071
0.0193906
0.0193745
0.019359
0.0193441
0.01933
0.0193169
0.0193051
0.0192947
0.0192857
0.0192781
0.0192713
0.019265
0.0192584
0.0192511
0.0192433
0.0192356
0.0192291
0.0192248
0.0192239
0.0192258
0.0192261
0.0192246
0.0192213
0.0192932
0.0192704
0.0192471
0.0192233
0.0191989
0.0191737
0.0191475
0.0191198
0.0190897
0.0190561
0.0190168
0.0189697
0.0189126
0.018845
0.0187687
0.0186874
0.0186064
0.0185317
0.0184694
0.0184252
0.0184041
0.0183987
0.0183942
0.0183905
0.0188559
0.0188183
0.0187765
0.018729
0.0186744
0.0186102
0.0185334
0.0184396
0.0183231
0.0181772
0.0179942
0.0168967
0.0160167
0.0155688
0.0154636
0.0155722
0.0157893
0.0159918
0.0157719
0.0156036
0.0154946
0.0154573
0.0154682
0.0154894
0.0155201
0.017816
0.0177191
0.0176003
0.0174552
0.0172783
0.0170626
0.0168002
0.016482
0.0157661
0.0141417
0.0128816
0.0119853
0.0114319
0.0111756
0.0111419
0.011207
0.0112857
0.0112879
0.0109762
0.0107308
0.0105532
0.0104451
0.0104188
0.0104734
0.0105471
0.0153814
0.01505
0.0146729
0.014252
0.0137888
0.0132839
0.0124617
0.0112529
0.0101725
0.00926934
0.00856953
0.00807828
0.00778472
0.00766062
0.00764199
0.00754045
0.00723278
0.00697748
0.00676617
0.00659363
0.00645685
0.00635723
0.00629516
0.00627286
0.00630863
0.0101368
0.00962196
0.00912865
0.00865928
0.00821326
0.00778807
0.00738031
0.00698686
0.00652561
0.00610234
0.00576543
0.00552739
0.0053072
0.0050829
0.00490711
0.00477298
0.0046687
0.00458118
0.00449991
0.00442011
0.00433743
0.00426897
0.00422216
0.00419703
0.00419123
0.00489542
0.00468296
0.00449618
0.00433195
0.0041873
0.00405971
0.00394727
0.00384873
0.00376408
0.00369546
0.00364863
0.00363144
0.00364373
0.00366921
0.00371574
0.00377241
0.00381405
0.0038112
0.00375199
0.0036531
0.00351244
0.00345866
0.0034654
0.00351073
0.00357998
0.00275088
0.00274043
0.00274125
0.00275349
0.00277653
0.00281062
0.00285687
0.00291429
0.00298612
0.00307922
0.00320727
0.00337856
0.00356564
0.00359607
0.00374265
0.00392082
0.00403749
0.00393806
0.00363344
0.00331679
0.00291343
0.0031214
0.00301357
0.00303672
0.00310121
0.00313786
0.00265943
0.00276208
0.00286905
0.0029795
0.00309251
0.00320884
0.00332986
0.003463
0.00362204
0.00383848
0.00409332
0.00414006
0.00435377
0.00455069
0.0044022
0.00389827
0.00286308
0.00244312
0.00241335
0.00266982
0.00290631
0.00360759
0.00415904
0.00493729
0.00612053
0.00350901
0.00365629
0.00380456
0.00395388
0.00410446
0.00425859
0.00442602
0.00462975
0.00490018
0.00493758
0.00400081
0.00439206
0.00460904
0.004056
0.00186952
0.00166828
0.00135245
0.00246585
0.00499579
0.00775004
0.00978079
0.0100166
0.0103682
0.0111035
0.00458222
0.00477431
0.00496127
0.00514423
0.00532216
0.00549646
0.00567231
0.00586633
0.00479965
0.00533251
0.00286423
0.00319053
0.00187957
0.00174761
0.000647045
0.000962981
0.0018231
0.00624598
0.00786263
0.0092155
0.00893851
0.00890908
0.00915699
0.00947135
0.00623338
0.0064092
0.0065788
0.00664469
0.00633267
0.00580652
0.0050196
0.00406015
0.00611237
0.00292508
0.00359558
0.00133847
0.000320588
0.00254526
0.00800248
0.00738814
0.00708079
0.0070345
0.00743087
0.00781738
0.00576177
0.00706927
0.00668058
0.00656654
0.00673296
0.00700665
0.0070665
0.00208522
0.00279929
0.00344956
0.00418592
0.00554336
0.00344193
0.00330017
0.00336165
0.00336792
0.00602291
0.00569948
0.00540657
0.00515467
0.00494724
0.00478712
0.00466751
0.00457736
0.00450552
0.00444322
0.00438567
0.00432551
0.00427459
0.00423958
0.00422127
0.0042187
0.00424288
0.00915055
0.00848156
0.00802042
0.00776476
0.00769659
0.00769712
0.00735288
0.00707158
0.00684262
0.00665783
0.0065118
0.00640078
0.00632481
0.00628323
0.00628944
0.00634815
0.00642931
0.00652745
0.0139752
0.0127676
0.0119207
0.011425
0.01125
0.0113368
0.0115604
0.0114514
0.01111
0.0108362
0.0106294
0.0104897
0.0104176
0.0104367
0.0104991
0.0105796
0.0106765
0.0107876
0.0180343
0.017832
0.0167586
0.015951
0.0155991
0.0156325
0.0159355
0.0160718
0.0158306
0.0156369
0.0154984
0.0154207
0.0154209
0.0154341
0.0154577
0.0154906
0.0155318
0.0155801
0.0190076
0.0189618
0.0189075
0.018843
0.0187685
0.0186867
0.0186023
0.0185211
0.0184496
0.0183935
0.0183576
0.0183481
0.0183418
0.0183369
0.0183332
0.0183307
0.0183294
0.0183295
0.0192702
0.0192612
0.0192531
0.0192451
0.0192369
0.019228
0.0192189
0.0192102
0.0192031
0.0191989
0.0191986
0.0191989
0.0191978
0.0191951
0.0191906
0.0191847
0.0191775
0.0191693
0.0192611
0.0192586
0.0192577
0.0192582
0.0192596
0.0192616
0.0192637
0.019266
0.0192682
0.0192703
0.0192721
0.0192726
0.0192717
0.0192693
0.0192654
0.0192601
0.0192535
0.0192459
0.0191505
0.0191483
0.0191472
0.019147
0.0191475
0.0191483
0.0191492
0.01915
0.0191504
0.0191503
0.0191494
0.0191477
0.0191451
0.0191415
0.0191369
0.0191313
0.019125
0.0191179
0.0190203
0.0190167
0.0190138
0.0190115
0.0190095
0.0190077
0.0190059
0.019004
0.0190016
0.0189988
0.0189956
0.0189918
0.0189876
0.0189828
0.0189775
0.0189716
0.0189653
0.0189587
0.018907
0.0189015
0.0188965
0.0188919
0.0188876
0.0188833
0.018879
0.0188746
0.01887
0.018865
0.0188598
0.0188544
0.0188488
0.0188428
0.0188367
0.0188303
0.0188237
0.0188169
0.0188202
0.0188129
0.0188061
0.0187994
0.018793
0.0187867
0.0187803
0.0187739
0.0187673
0.0187606
0.0187538
0.0187469
0.0187399
0.0187328
0.0187257
0.0187185
0.0187113
0.0187041
0.0187574
0.0187487
0.0187403
0.0187321
0.0187241
0.018716
0.018708
0.0187
0.0186919
0.0186837
0.0186754
0.0186672
0.018659
0.0186508
0.0186427
0.0186346
0.0186266
0.0186187
0.0187129
0.0187032
0.0186936
0.0186842
0.0186749
0.0186656
0.0186563
0.0186469
0.0186376
0.0186282
0.0186188
0.0186094
0.0186001
0.0185909
0.0185818
0.0185729
0.0185641
0.0185554
0.0186816
0.018671
0.0186606
0.0186502
0.0186399
0.0186296
0.0186193
0.018609
0.0185986
0.0185883
0.0185779
0.0185676
0.0185574
0.0185473
0.0185374
0.0185276
0.018518
0.0185086
0.0186593
0.0186481
0.018637
0.018626
0.0186149
0.0186039
0.0185928
0.0185817
0.0185705
0.0185594
0.0185482
0.0185372
0.0185262
0.0185154
0.0185047
0.0184942
0.0184839
0.0184738
0.0186434
0.0186317
0.0186201
0.0186085
0.0185969
0.0185852
0.0185735
0.0185618
0.0185501
0.0185383
0.0185265
0.0185148
0.0185032
0.0184918
0.0184805
0.0184694
0.0184585
0.0184479
0.0186319
0.0186198
0.0186078
0.0185958
0.0185838
0.0185716
0.0185595
0.0185473
0.018535
0.0185228
0.0185105
0.0184983
0.0184862
0.0184743
0.0184625
0.0184509
0.0184395
0.0184284
0.0186235
0.0186112
0.0185989
0.0185866
0.0185742
0.0185617
0.0185492
0.0185366
0.018524
0.0185113
0.0184987
0.0184861
0.0184737
0.0184613
0.0184491
0.0184371
0.0184254
0.0184139
0.0186176
0.0186051
0.0185925
0.01858
0.0185673
0.0185546
0.0185418
0.0185289
0.018516
0.0185031
0.0184902
0.0184773
0.0184645
0.0184519
0.0184394
0.0184271
0.0184151
0.0184033
0.0186135
0.0186008
0.0185881
0.0185754
0.0185626
0.0185496
0.0185367
0.0185236
0.0185105
0.0184974
0.0184842
0.0184712
0.0184582
0.0184453
0.0184326
0.0184201
0.0184079
0.0183959
0.0186109
0.0185982
0.0185854
0.0185725
0.0185595
0.0185465
0.0185334
0.0185202
0.018507
0.0184937
0.0184805
0.0184673
0.0184541
0.0184412
0.0184283
0.0184157
0.0184033
0.0183911
0.0186096
0.0185968
0.018584
0.0185711
0.0185581
0.018545
0.0185318
0.0185185
0.0185052
0.0184919
0.0184786
0.0184653
0.0184521
0.0184391
0.0184262
0.0184135
0.018401
0.0183888
0.0187245
0.0187111
0.0186978
0.0186847
0.0186716
0.0186587
0.0186458
0.018633
0.0186202
0.0186075
0.0185947
0.0185818
0.0185689
0.0185559
0.0185429
0.0185297
0.0185165
0.0185032
0.0184899
0.0184766
0.0184633
0.0184501
0.018437
0.0184241
0.0187256
0.0187122
0.018699
0.0186858
0.0186728
0.0186599
0.018647
0.0186343
0.0186215
0.0186088
0.018596
0.0185832
0.0185704
0.0185574
0.0185444
0.0185313
0.0185182
0.018505
0.0184917
0.0184785
0.0184653
0.0184521
0.0184391
0.0184263
0.0187279
0.0187145
0.0187012
0.0186881
0.0186751
0.0186622
0.0186494
0.0186367
0.018624
0.0186114
0.0185987
0.018586
0.0185733
0.0185605
0.0185476
0.0185346
0.0185216
0.0185085
0.0184954
0.0184823
0.0184693
0.0184563
0.0184434
0.0184307
0.0187315
0.0187181
0.0187048
0.0186917
0.0186788
0.018666
0.0186533
0.0186407
0.0186281
0.0186156
0.0186031
0.0185906
0.018578
0.0185654
0.0185527
0.0185399
0.0185271
0.0185143
0.0185014
0.0184885
0.0184756
0.0184629
0.0184502
0.0184378
0.0187367
0.0187233
0.0187101
0.0186971
0.0186842
0.0186715
0.018659
0.0186465
0.0186342
0.0186218
0.0186095
0.0185972
0.0185849
0.0185725
0.0185601
0.0185476
0.0185351
0.0185225
0.0185099
0.0184973
0.0184848
0.0184723
0.01846
0.0184479
0.0187441
0.0187307
0.0187176
0.0187046
0.0186919
0.0186793
0.0186669
0.0186547
0.0186425
0.0186305
0.0186185
0.0186065
0.0185945
0.0185824
0.0185704
0.0185583
0.0185461
0.0185339
0.0185217
0.0185095
0.0184974
0.0184853
0.0184734
0.0184617
0.0187541
0.0187408
0.0187277
0.0187149
0.0187023
0.0186899
0.0186778
0.0186658
0.0186539
0.0186422
0.0186306
0.018619
0.0186074
0.0185958
0.0185843
0.0185726
0.018561
0.0185493
0.0185375
0.0185259
0.0185142
0.0185027
0.0184913
0.01848
0.0187678
0.0187546
0.0187416
0.018729
0.0187166
0.0187045
0.0186926
0.018681
0.0186696
0.0186583
0.0186471
0.018636
0.018625
0.018614
0.018603
0.018592
0.0185809
0.0185699
0.0185588
0.0185477
0.0185367
0.0185259
0.0185151
0.0185045
0.0187868
0.0187738
0.018761
0.0187486
0.0187365
0.0187248
0.0187133
0.0187021
0.0186912
0.0186805
0.01867
0.0186596
0.0186492
0.018639
0.0186288
0.0186185
0.0186083
0.018598
0.0185877
0.0185774
0.0185672
0.0185571
0.0185471
0.0185373
0.0188136
0.0188008
0.0187884
0.0187763
0.0187647
0.0187534
0.0187425
0.018732
0.0187217
0.0187118
0.0187021
0.0186925
0.0186831
0.0186738
0.0186646
0.0186554
0.0186461
0.0186368
0.0186275
0.0186183
0.018609
0.0185999
0.0185908
0.0185819
0.0188517
0.0188393
0.0188274
0.0188159
0.0188048
0.0187943
0.0187841
0.0187744
0.0187651
0.0187561
0.0187475
0.0187391
0.0187309
0.0187229
0.018715
0.018707
0.0186991
0.0186911
0.018683
0.0186749
0.0186669
0.0186589
0.018651
0.0186431
0.018906
0.0188943
0.018883
0.0188723
0.0188621
0.0188525
0.0188433
0.0188347
0.0188266
0.018819
0.0188117
0.0188049
0.0187983
0.0187919
0.0187856
0.0187794
0.0187731
0.0187667
0.0187601
0.0187536
0.0187469
0.0187403
0.0187336
0.0187269
0.018983
0.0189721
0.0189617
0.0189519
0.0189427
0.0189342
0.0189263
0.018919
0.0189124
0.0189063
0.0189009
0.0188959
0.0188913
0.018887
0.0188828
0.0188787
0.0188744
0.01887
0.0188654
0.0188606
0.0188557
0.0188506
0.0188453
0.0188398
0.0190883
0.0190781
0.0190685
0.0190596
0.0190514
0.0190439
0.0190371
0.0190312
0.0190261
0.0190218
0.0190182
0.0190154
0.0190131
0.0190112
0.0190095
0.0190079
0.0190062
0.0190043
0.019002
0.0189994
0.0189964
0.0189932
0.0189894
0.0189853
0.0192203
0.0192102
0.0192008
0.019192
0.0191841
0.0191769
0.0191707
0.0191655
0.0191614
0.0191583
0.0191564
0.0191555
0.0191554
0.0191561
0.0191571
0.0191584
0.0191596
0.0191607
0.0191614
0.0191617
0.0191613
0.0191604
0.0191587
0.0191562
0.0193557
0.0193444
0.0193337
0.0193237
0.0193145
0.0193062
0.0192989
0.0192928
0.0192881
0.019285
0.0192834
0.0192833
0.0192846
0.0192871
0.0192903
0.0192941
0.0192982
0.0193025
0.0193069
0.0193111
0.0193145
0.0193168
0.019318
0.0193178
0.0194322
0.019418
0.0194044
0.0193912
0.0193786
0.0193668
0.0193559
0.0193462
0.0193379
0.0193314
0.0193266
0.0193235
0.0193218
0.0193212
0.0193213
0.0193221
0.0193238
0.0193269
0.0193319
0.0193393
0.0193463
0.0193521
0.0193562
0.0193585
0.0193435
0.019325
0.0193063
0.0192871
0.0192677
0.019248
0.019228
0.0192078
0.0191872
0.019166
0.0191436
0.0191191
0.0190914
0.0190602
0.0190261
0.0189911
0.0189578
0.0189297
0.0189103
0.0189026
0.0189053
0.018908
0.0189104
0.0189121
0.0189329
0.0189061
0.0188767
0.0188441
0.0188077
0.0187666
0.0187194
0.0186641
0.018598
0.0185173
0.0184177
0.0182722
0.0172984
0.0167407
0.0165306
0.0165512
0.0166809
0.0168413
0.0170203
0.0170907
0.0170592
0.0170465
0.0170413
0.0170441
0.0170536
0.017933
0.0178832
0.0178225
0.0177484
0.0176579
0.0175465
0.0174083
0.017236
0.0170198
0.0159363
0.0146363
0.0136494
0.0130055
0.0126976
0.012669
0.0128107
0.0130059
0.0131869
0.013265
0.0130831
0.0129738
0.0129482
0.0129435
0.0129606
0.0129979
0.0158449
0.0157029
0.0155296
0.0153218
0.0150752
0.0147839
0.0142584
0.0131438
0.0120561
0.0110731
0.0102588
0.00965186
0.00929543
0.00913155
0.00911369
0.0091749
0.0091967
0.00890535
0.00866993
0.00849021
0.00836654
0.00830201
0.00830164
0.00832591
0.00837451
0.0115811
0.0112717
0.0109436
0.0106001
0.0102417
0.00969725
0.00902904
0.00834259
0.00768508
0.00710345
0.00663739
0.00645599
0.00644023
0.00643921
0.00624935
0.00603881
0.00586215
0.00571019
0.00557961
0.00547173
0.00538847
0.0053305
0.00530754
0.00532584
0.005364
0.00588106
0.00572487
0.00557695
0.00543773
0.00530668
0.00518269
0.00506381
0.00494745
0.00475882
0.00446626
0.0042688
0.00428139
0.00406982
0.00438499
0.00452493
0.00448114
0.0044126
0.00432357
0.00422205
0.00412119
0.00402916
0.00394399
0.00391354
0.00392528
0.00397181
0.00311595
0.00312736
0.00314662
0.00317412
0.00321051
0.00325718
0.0033169
0.00339405
0.00349679
0.00364026
0.00374574
0.00356794
0.00408067
0.00408135
0.00428562
0.00415808
0.00393794
0.00368919
0.0034311
0.00319217
0.00301505
0.00278577
0.00302723
0.00329376
0.00346485
0.00334889
0.00286476
0.00299633
0.00313307
0.00327463
0.00342263
0.00358148
0.00375562
0.00396095
0.00422731
0.00435354
0.00460094
0.00351031
0.00465356
0.0038949
0.0028837
0.00269919
0.00235057
0.00190789
0.0019288
0.00223161
0.00295371
0.00453641
0.00524527
0.00567046
0.00604983
0.00404849
0.00425406
0.00444805
0.00463295
0.00481329
0.00499795
0.00521068
0.00530129
0.00547583
0.00392696
0.00342335
0.0039907
0.00163692
0.00139889
0.000634849
0.000462285
0.000913771
0.000995165
0.00220362
0.00521294
0.00590879
0.0107265
0.00767212
0.00861332
0.00503647
0.0051748
0.0052843
0.00534518
0.00533252
0.00521576
0.00485145
0.00401068
0.00591106
0.00294142
0.00364252
0.00117268
0.00161288
0.00811575
0.00884096
0.00944541
0.00927826
0.00998762
0.00577054
0.00586854
0.00588702
0.00579407
0.00555691
0.00508172
0.00423796
0.00489216
0.00299549
0.00291359
0.000410836
0.000260581
0.0058058
0.00477566
0.00554722
0.00607289
0.00660443
0.000174314
0.00226574
0.00519269
0.00483214
0.00548264
0.00604078
0.00623461
0.00260846
0.00329756
0.00465468
0.00551426
0.00625196
0.00446398
0.00447621
0.00423921
0.00422055
0.00689678
0.00646838
0.00632094
0.00627801
0.00626885
0.00604246
0.00586073
0.00571144
0.00558672
0.0054835
0.00540405
0.00534767
0.00531352
0.00532056
0.00534935
0.00539512
0.00545739
0.0108582
0.0100663
0.00949046
0.00918489
0.0090982
0.00918448
0.00923946
0.00892759
0.0086761
0.00848085
0.00834072
0.00825509
0.00823974
0.00825469
0.00829322
0.00835429
0.00843565
0.0085353
0.0156944
0.014433
0.01349
0.0129043
0.0126823
0.0127767
0.0130805
0.0134509
0.0132574
0.0130475
0.0129076
0.012847
0.0128352
0.0128452
0.0128756
0.0129244
0.0129894
0.0130679
0.0184001
0.0182846
0.0180353
0.0171213
0.0166467
0.0165525
0.0167281
0.0170435
0.0171192
0.0170178
0.0169584
0.0169411
0.0169327
0.0169326
0.0169399
0.0169539
0.0169735
0.0169981
0.0191227
0.0190959
0.0190664
0.0190336
0.0189973
0.0189588
0.0189206
0.0188859
0.0188583
0.0188414
0.0188384
0.0188399
0.0188419
0.0188439
0.0188456
0.0188468
0.0188476
0.018848
0.0193155
0.0193099
0.0193059
0.0193033
0.0193018
0.019301
0.019301
0.019302
0.0193047
0.0193096
0.0193162
0.019322
0.0193265
0.0193294
0.0193306
0.0193299
0.0193277
0.0193241
0.0192806
0.0192789
0.0192789
0.0192803
0.0192828
0.019286
0.0192898
0.0192938
0.019298
0.0193022
0.0193059
0.0193087
0.0193104
0.0193109
0.01931
0.0193077
0.0193042
0.0192996
0.0191589
0.0191571
0.0191563
0.0191565
0.0191573
0.0191586
0.0191599
0.0191612
0.0191623
0.0191629
0.019163
0.0191625
0.0191613
0.0191592
0.0191563
0.0191526
0.019148
0.0191428
0.0190242
0.0190208
0.0190182
0.0190161
0.0190144
0.0190129
0.0190114
0.0190098
0.0190079
0.0190056
0.0190029
0.0189999
0.0189965
0.0189927
0.0189884
0.0189836
0.0189784
0.0189728
0.0189094
0.0189041
0.0188993
0.0188949
0.0188907
0.0188866
0.0188826
0.0188785
0.0188741
0.0188695
0.0188647
0.0188598
0.0188547
0.0188493
0.0188438
0.018838
0.0188321
0.018826
0.0188222
0.0188151
0.0188083
0.0188019
0.0187956
0.0187894
0.0187833
0.018777
0.0187707
0.0187642
0.0187577
0.0187511
0.0187444
0.0187377
0.018731
0.0187242
0.0187174
0.0187106
0.0187593
0.0187508
0.0187425
0.0187345
0.0187265
0.0187186
0.0187108
0.0187029
0.0186949
0.0186869
0.0186788
0.0186708
0.0186628
0.0186549
0.018647
0.0186392
0.0186314
0.0186238
0.0187149
0.0187053
0.0186959
0.0186865
0.0186773
0.0186681
0.0186589
0.0186497
0.0186405
0.0186312
0.0186219
0.0186127
0.0186036
0.0185945
0.0185856
0.0185768
0.0185681
0.0185596
0.0186836
0.0186731
0.0186628
0.0186525
0.0186423
0.0186321
0.0186219
0.0186117
0.0186014
0.0185911
0.0185808
0.0185707
0.0185605
0.0185506
0.0185407
0.018531
0.0185215
0.0185123
0.0186613
0.0186502
0.0186391
0.0186282
0.0186172
0.0186062
0.0185952
0.0185841
0.0185731
0.018562
0.0185509
0.0185399
0.018529
0.0185183
0.0185076
0.0184972
0.018487
0.018477
0.0186451
0.0186335
0.018622
0.0186104
0.0185989
0.0185873
0.0185757
0.018564
0.0185523
0.0185405
0.0185288
0.0185172
0.0185056
0.0184942
0.018483
0.0184719
0.0184611
0.0184505
0.0186333
0.0186213
0.0186093
0.0185974
0.0185853
0.0185733
0.0185612
0.018549
0.0185368
0.0185245
0.0185123
0.0185002
0.0184881
0.0184762
0.0184644
0.0184528
0.0184415
0.0184303
0.0186245
0.0186123
0.0186
0.0185877
0.0185753
0.0185629
0.0185504
0.0185378
0.0185252
0.0185126
0.0185
0.0184874
0.0184749
0.0184626
0.0184504
0.0184384
0.0184267
0.0184152
0.0186182
0.0186057
0.0185932
0.0185807
0.018568
0.0185553
0.0185425
0.0185297
0.0185168
0.0185039
0.018491
0.0184781
0.0184653
0.0184527
0.0184402
0.0184279
0.0184158
0.018404
0.0186139
0.0186013
0.0185886
0.0185758
0.018563
0.0185501
0.0185371
0.0185241
0.018511
0.0184978
0.0184847
0.0184716
0.0184586
0.0184457
0.018433
0.0184205
0.0184082
0.0183962
0.0186112
0.0185984
0.0185857
0.0185728
0.0185598
0.0185468
0.0185337
0.0185205
0.0185073
0.018494
0.0184807
0.0184675
0.0184544
0.0184414
0.0184285
0.0184159
0.0184034
0.0183913
0.0186099
0.0185971
0.0185842
0.0185713
0.0185583
0.0185452
0.018532
0.0185188
0.0185055
0.0184921
0.0184788
0.0184655
0.0184523
0.0184392
0.0184263
0.0184136
0.0184011
0.0183888
0.0187247
0.0187113
0.0186981
0.018685
0.0186719
0.018659
0.0186462
0.0186334
0.0186206
0.0186079
0.0185951
0.0185823
0.0185694
0.0185564
0.0185433
0.0185302
0.0185169
0.0185037
0.0184903
0.018477
0.0184637
0.0184505
0.0184374
0.0184245
0.0187259
0.0187126
0.0186993
0.0186862
0.0186732
0.0186603
0.0186475
0.0186348
0.0186221
0.0186093
0.0185966
0.0185838
0.018571
0.0185581
0.0185451
0.018532
0.0185188
0.0185056
0.0184923
0.0184791
0.0184659
0.0184527
0.0184397
0.0184269
0.0187284
0.0187151
0.0187019
0.0186888
0.0186759
0.018663
0.0186503
0.0186376
0.018625
0.0186124
0.0185997
0.0185871
0.0185743
0.0185616
0.0185487
0.0185357
0.0185227
0.0185097
0.0184966
0.0184835
0.0184704
0.0184574
0.0184446
0.0184319
0.0187326
0.0187193
0.0187061
0.0186931
0.0186802
0.0186675
0.0186548
0.0186423
0.0186298
0.0186173
0.0186049
0.0185924
0.0185799
0.0185673
0.0185547
0.0185419
0.0185291
0.0185163
0.0185034
0.0184906
0.0184777
0.018465
0.0184524
0.0184399
0.0187388
0.0187255
0.0187124
0.0186994
0.0186867
0.0186741
0.0186616
0.0186492
0.018637
0.0186247
0.0186125
0.0186003
0.018588
0.0185757
0.0185634
0.018551
0.0185385
0.018526
0.0185135
0.0185009
0.0184884
0.018476
0.0184637
0.0184516
0.0187472
0.018734
0.0187209
0.0187081
0.0186955
0.0186831
0.0186708
0.0186587
0.0186467
0.0186347
0.0186228
0.018611
0.0185991
0.0185872
0.0185752
0.0185632
0.0185512
0.0185391
0.0185269
0.0185148
0.0185028
0.0184908
0.018479
0.0184673
0.0187581
0.018745
0.0187321
0.0187194
0.018707
0.0186948
0.0186828
0.018671
0.0186593
0.0186477
0.0186362
0.0186248
0.0186134
0.018602
0.0185905
0.018579
0.0185675
0.0185559
0.0185444
0.0185328
0.0185213
0.0185099
0.0184986
0.0184875
0.0187724
0.0187594
0.0187466
0.0187341
0.018722
0.0187101
0.0186984
0.018687
0.0186757
0.0186646
0.0186537
0.0186428
0.0186319
0.0186211
0.0186103
0.0185995
0.0185886
0.0185777
0.0185668
0.018556
0.0185452
0.0185345
0.0185239
0.0185135
0.0187916
0.0187787
0.0187662
0.018754
0.0187422
0.0187307
0.0187195
0.0187085
0.0186978
0.0186874
0.018677
0.0186669
0.0186568
0.0186467
0.0186367
0.0186267
0.0186167
0.0186066
0.0185966
0.0185866
0.0185766
0.0185668
0.018557
0.0185474
0.0188182
0.0188057
0.0187935
0.0187818
0.0187704
0.0187594
0.0187488
0.0187385
0.0187285
0.0187189
0.0187094
0.0187001
0.018691
0.018682
0.018673
0.018664
0.0186551
0.0186461
0.0186371
0.0186281
0.0186192
0.0186104
0.0186017
0.0185931
0.0188559
0.0188439
0.0188323
0.0188211
0.0188104
0.0188002
0.0187904
0.018781
0.018772
0.0187634
0.018755
0.018747
0.0187391
0.0187314
0.0187237
0.0187161
0.0187085
0.0187009
0.0186932
0.0186855
0.0186779
0.0186703
0.0186629
0.0186555
0.0189099
0.0188986
0.0188877
0.0188774
0.0188676
0.0188584
0.0188496
0.0188414
0.0188337
0.0188265
0.0188196
0.0188131
0.0188069
0.0188009
0.018795
0.0187891
0.0187833
0.0187773
0.0187713
0.0187652
0.0187592
0.0187532
0.0187472
0.0187412
0.0189866
0.0189762
0.0189664
0.0189572
0.0189485
0.0189405
0.0189332
0.0189264
0.0189203
0.0189148
0.0189098
0.0189053
0.0189012
0.0188973
0.0188936
0.01889
0.0188863
0.0188825
0.0188785
0.0188745
0.0188704
0.0188662
0.0188619
0.0188575
0.0190926
0.0190832
0.0190744
0.0190663
0.0190589
0.0190522
0.0190462
0.0190411
0.0190367
0.0190331
0.0190302
0.019028
0.0190263
0.0190251
0.0190241
0.0190231
0.0190221
0.019021
0.0190196
0.0190181
0.0190164
0.0190144
0.0190122
0.0190097
0.0192281
0.0192193
0.0192112
0.0192038
0.0191972
0.0191914
0.0191864
0.0191824
0.0191794
0.0191775
0.0191766
0.0191766
0.0191775
0.019179
0.019181
0.0191832
0.0191854
0.0191876
0.0191896
0.0191914
0.0191929
0.019194
0.0191945
0.0191944
0.0193745
0.0193655
0.0193572
0.0193495
0.0193426
0.0193365
0.0193314
0.0193274
0.0193246
0.0193232
0.0193233
0.0193248
0.0193276
0.0193315
0.0193363
0.0193418
0.0193477
0.019354
0.0193606
0.0193672
0.0193734
0.019379
0.0193838
0.0193874
0.0194773
0.0194672
0.0194576
0.0194483
0.0194397
0.0194316
0.0194244
0.0194182
0.0194133
0.01941
0.0194084
0.0194087
0.0194109
0.0194148
0.0194202
0.0194269
0.0194351
0.019445
0.0194568
0.0194694
0.019482
0.019494
0.0195049
0.0195141
0.0194357
0.0194241
0.0194121
0.0193997
0.019387
0.019374
0.0193609
0.0193478
0.019335
0.0193228
0.0193113
0.0193008
0.0192914
0.0192834
0.0192769
0.0192728
0.019272
0.0192763
0.0192871
0.0193028
0.0193196
0.0193365
0.0193526
0.0193671
0.0190755
0.0190622
0.0190468
0.019029
0.0190087
0.0189855
0.0189589
0.0189283
0.0188928
0.0188517
0.0188041
0.0187496
0.0186889
0.0183906
0.0179674
0.0177732
0.0176586
0.0174973
0.0172585
0.0169972
0.0168157
0.0168271
0.0171215
0.0176992
0.0183938
0.0181082
0.0180958
0.0180766
0.01805
0.0180148
0.0179691
0.0179103
0.0178347
0.0177372
0.017612
0.0168856
0.0158634
0.0150359
0.0145036
0.0142998
0.0143476
0.0144723
0.0145132
0.014405
0.0141665
0.0139096
0.0138187
0.0140157
0.0145004
0.0151749
0.0160566
0.0160498
0.01603
0.0159899
0.0159267
0.0158352
0.0155964
0.0149033
0.0141504
0.0133864
0.0126661
0.0120382
0.0115048
0.0111465
0.0110667
0.0112447
0.0115052
0.011689
0.0116784
0.0114833
0.0111142
0.0108886
0.0109785
0.0113263
0.0113991
0.0116349
0.0117049
0.0117009
0.0116172
0.0114514
0.0112031
0.0108645
0.0104195
0.00991319
0.00941544
0.00899631
0.00865835
0.00844257
0.00827261
0.00823321
0.00820509
0.0079817
0.00779355
0.0076433
0.00754077
0.00747999
0.00744944
0.00744639
0.00747075
0.00752093
0.00704111
0.00702991
0.00700515
0.00696803
0.00692389
0.0068794
0.0067823
0.00647195
0.00612208
0.00581241
0.00558779
0.00513046
0.00539161
0.00565981
0.0056153
0.00552877
0.00544788
0.00536632
0.00529087
0.00523629
0.00522067
0.00522654
0.00524363
0.00527555
0.00532676
0.0038445
0.00387972
0.00391429
0.00394913
0.00398458
0.0040193
0.00405632
0.00411134
0.00417887
0.00426967
0.00388481
0.00439799
0.00380668
0.00371979
0.00407131
0.00436874
0.00424644
0.00409824
0.00394369
0.0038177
0.00373893
0.00365587
0.00357812
0.00367989
0.00381813
0.00399092
0.00296255
0.0030536
0.00314825
0.00324695
0.00335068
0.0034615
0.00358388
0.00374333
0.00398887
0.00406785
0.00287262
0.00287832
0.00318364
0.00313364
0.0027435
0.00244806
0.0022347
0.0020812
0.00199659
0.00194453
0.00204078
0.00256718
0.00341466
0.00416462
0.00501589
0.00363143
0.00376656
0.00390254
0.00404408
0.0041975
0.00437464
0.00459191
0.00463024
0.00337852
0.0025742
0.00250502
0.00114388
0.000112697
0.000744436
0.00182078
0.00430184
0.00796233
0.0105988
0.0103251
0.005712
0.00580814
0.00587898
0.00592756
0.00596631
0.00602266
0.00609858
0.00513893
0.00348349
0.00276209
0.00108414
0.000748038
0.00433525
0.00592123
0.00724715
0.0100872
0.00670284
0.00683802
0.00698393
0.00714969
0.00734545
0.00669941
0.00573371
0.0032573
0.00231467
0.000346278
0.00139266
0.00340278
0.00471798
0.00549272
0.00119285
0.0026724
0.00323868
0.00471616
0.0051076
0.0028985
0.00419485
0.00465586
0.00536936
0.00373113
0.00411644
0.00434208
0.00464338
0.00633315
0.0061332
0.00602988
0.00600025
0.00919947
0.00875416
0.00842366
0.00826889
0.00819997
0.00816821
0.0079319
0.00774068
0.00758693
0.00747272
0.00740423
0.00736899
0.0073643
0.00738631
0.00743199
0.00749924
0.00758637
0.0131836
0.0124519
0.0118321
0.0113449
0.0110706
0.011102
0.0114166
0.0118187
0.0116081
0.0114587
0.0113593
0.0111888
0.0107912
0.0107245
0.0109555
0.0113138
0.0113836
0.0114741
0.0174279
0.0166537
0.015639
0.0148489
0.0143875
0.0142866
0.0144677
0.0147385
0.0148916
0.014817
0.0145282
0.0141672
0.013949
0.0140342
0.0144318
0.0150409
0.0156263
0.0156814
0.0187705
0.0187154
0.0186528
0.0185841
0.018167
0.0178278
0.0177467
0.0177603
0.0177195
0.0175602
0.0173235
0.0171178