/*--------------------------------*- C++ -*----------------------------------*\
  =========                 |
  \\      /  F ield         | OpenFOAM: The Open Source CFD Toolbox
   \\    /   O peration     | Website:  https://openfoam.org
    \\  /    A nd           | Version:  13
     \\/     M anipulation  |
\*---------------------------------------------------------------------------*/
FoamFile
{
    format      ascii;
    class       volScalarField;
    location    "700";
    object      omega;
}
// * * * * * * * * * * * * * * * * * * * * * * * * * * * * * * * * * * * * * //

dimensions      [0 0 -1 0 0 0 0];

internalField   nonuniform List<scalar> 
171745
(
16.4022
16.3351
16.2687
16.203
16.138
16.0737
16.01
15.9469
15.8844
15.8225
15.761
15.7
15.6395
15.5794
15.5196
15.4603
15.4013
15.3427
15.2846
15.2268
15.1696
15.1128
15.0565
15.0008
16.4031
16.3359
16.2695
16.2038
16.1388
16.0745
16.0108
15.9478
15.8853
15.8234
15.762
15.7011
15.6406
15.5805
15.5208
15.4615
15.4026
15.3441
15.286
15.2284
15.1712
15.1144
15.0582
15.0026
16.4048
16.3376
16.2712
16.2055
16.1405
16.0762
16.0126
15.9496
15.8872
15.8254
15.764
15.7032
15.6428
15.5828
15.5232
15.4641
15.4053
15.3469
15.2889
15.2314
15.1743
15.1177
15.0616
15.0061
16.4074
16.3402
16.2737
16.208
16.1431
16.0788
16.0153
15.9524
15.8901
15.8283
15.7671
15.7064
15.6462
15.5864
15.527
15.468
15.4094
15.3512
15.2935
15.2361
15.1792
15.1228
15.0669
15.0116
16.4114
16.3441
16.2776
16.2119
16.147
16.0828
16.0194
15.9566
15.8944
15.8328
15.7718
15.7113
15.6513
15.5917
15.5326
15.4738
15.4155
15.3576
15.3
15.243
15.1863
15.1302
15.0746
15.0195
16.4171
16.3498
16.2833
16.2176
16.1528
16.0887
16.0253
15.9626
15.9006
15.8393
15.7785
15.7183
15.6585
15.5992
15.5404
15.482
15.424
15.3664
15.3092
15.2525
15.1963
15.1405
15.0852
15.0305
16.4254
16.358
16.2915
16.2259
16.161
16.097
16.0338
15.9713
15.9096
15.8485
15.788
15.7281
15.6687
15.6098
15.5514
15.4934
15.4358
15.3787
15.3219
15.2657
15.2098
15.1545
15.0997
15.0454
16.4372
16.3698
16.3033
16.2377
16.1729
16.1091
16.046
15.9838
15.9223
15.8615
15.8014
15.7419
15.683
15.6246
15.5667
15.5092
15.4522
15.3955
15.3394
15.2836
15.2283
15.1736
15.1193
15.0655
16.4542
16.3867
16.3202
16.2547
16.1901
16.1264
16.0636
16.0016
15.9405
15.8801
15.8205
15.7615
15.7031
15.6453
15.588
15.5312
15.4748
15.4189
15.3634
15.3083
15.2537
15.1995
15.1458
15.0927
16.4785
16.4111
16.3446
16.2792
16.2148
16.1513
16.0888
16.0273
15.9666
15.9067
15.8477
15.7894
15.7317
15.6746
15.6181
15.5621
15.5065
15.4514
15.3966
15.3423
15.2885
15.2351
15.1821
15.1296
16.5137
16.4463
16.38
16.3147
16.2506
16.1874
16.1253
16.0642
16.0041
15.945
15.8867
15.8292
15.7724
15.7163
15.6608
15.6058
15.5512
15.497
15.4432
15.3898
15.3368
15.2842
15.232
15.1802
16.5647
16.4975
16.4313
16.3664
16.3025
16.2398
16.1783
16.1178
16.0585
16.0002
15.9429
15.8865
15.8309
15.7761
15.7218
15.6681
15.6148
15.5618
15.5091
15.4567
15.4047
15.353
15.3016
15.2505
16.639
16.572
16.5061
16.4416
16.3782
16.3161
16.2553
16.1958
16.1375
16.0804
16.0246
15.9697
15.9159
15.8628
15.8103
15.7584
15.7067
15.6553
15.604
15.5528
15.5018
15.451
15.4003
15.3497
16.7477
16.681
16.6156
16.5516
16.489
16.4278
16.3681
16.3099
16.2533
16.1982
16.1446
16.0923
16.0411
15.9908
15.9412
15.892
15.8429
15.7937
15.7443
15.6946
15.6449
15.595
15.5448
15.4945
16.9084
16.8422
16.7774
16.7143
16.6529
16.5933
16.5355
16.4798
16.4261
16.3746
16.325
16.2774
16.2313
16.1863
16.142
16.098
16.0537
16.0087
15.9627
15.9154
15.8674
15.8185
15.7689
15.7183
17.1511
17.0857
17.0223
16.9609
16.9018
16.8452
16.7914
16.7406
16.6931
16.649
16.6083
16.571
16.5364
16.5036
16.4718
16.4398
16.4066
16.3714
16.3332
16.291
16.2462
16.1992
16.1498
16.0982
17.5325
17.4691
17.4085
17.3512
17.2975
17.2479
17.2034
17.1646
17.1322
17.1069
17.0893
17.079
17.0753
17.0764
17.08
17.0833
17.0837
17.0783
17.0647
17.0405
17.0034
16.9608
16.9123
16.8579
18.1647
18.1074
18.0553
18.0093
17.9705
17.9407
17.9218
17.9165
17.9278
17.9588
18.0118
18.0873
18.1839
18.2974
18.4207
18.5457
18.6635
18.7651
18.8412
18.8835
18.8825
18.8449
18.7913
18.7224
19.2817
19.248
19.2267
19.2208
19.2342
19.2725
19.3432
19.4556
19.6203
19.8476
20.1478
20.5249
20.9743
21.4789
22.0122
22.5455
23.0516
23.5053
23.8807
24.1549
24.3078
24.308
24.1931
24.0344
23.8377
21.4925
21.569
21.6863
21.8541
22.0856
22.3983
22.8143
23.3602
24.0674
24.9657
26.0773
27.4005
28.8943
30.4806
32.0679
33.5807
34.9664
36.1897
37.22
38.0242
38.5669
38.8199
38.7192
38.2616
37.694
27.0045
27.639
28.4007
29.3061
30.3786
31.65
33.1598
34.954
37.0771
39.5574
42.3731
45.4358
48.583
51.6115
54.3596
56.7608
58.8208
60.5714
62.0386
63.2287
64.1155
64.6388
64.7715
64.4796
63.5824
45.8241
48.288
50.8404
53.4658
56.1635
58.9469
61.8394
64.8629
68.0144
71.2498
74.4676
77.5109
80.1873
82.3467
83.9712
85.2035
86.2469
87.3055
88.5316
89.9731
91.7802
93.3576
94.4372
94.9156
94.7666
100.514
103.04
104.956
106.311
107.172
107.612
107.706
107.508
107.059
106.383
105.515
104.504
103.383
102.469
101.75
101.66
102.693
105.362
109.903
116.088
127.261
135.551
141.703
146.079
148.913
163.945
158.176
152.254
146.389
140.667
135.175
129.98
124.957
120.14
115.614
111.613
108.402
106.342
105.084
103.61
103.937
107.586
118.678
138.727
165.293
242.846
252.772
262.384
270.295
277.873
287.532
163.303
153.896
145.537
138.023
131.161
124.848
118.977
113.63
108.988
105.708
104.557
103.596
103.837
108.726
123.587
156.057
247.03
337.03
411.12
436.673
431.194
404.57
391.002
383.23
371.648
136.492
129.228
122.853
117.24
112.285
107.949
104.404
102.143
102.301
101.594
104.655
117.656
150.562
180.483
364.048
642.522
803.065
431.009
159.62
128.261
117.942
123.816
132.811
137.562
117.167
112.756
108.949
105.716
103.017
100.936
99.7236
100.171
104.241
104.59
118.238
137.832
205.756
573.01
1150.15
449.474
327.512
152.78
104.055
99.2163
102.726
110.736
115.219
117.638
100.203
98.3823
97.021
96.1335
95.9159
96.7573
99.6198
106.652
107.116
121.979
146.939
351.477
658.934
288.602
110.297
114.611
126.285
139.665
142.587
144.145
121.618
109.861
118.418
138.878
156.77
178.494
167.517
456.394
407.397
382.137
372.443
335.549
254.371
272.191
288.532
305.495
72.6889
75.7379
78.5904
81.0598
83.0031
84.4007
85.3854
86.1341
86.8266
87.5945
88.4959
89.6978
90.7362
91.3913
91.5837
91.271
90.2152
40.8047
43.6365
46.6792
49.7639
52.682
55.2672
57.454
59.2568
60.7194
61.879
62.7562
63.3456
63.608
63.5321
62.977
61.912
60.649
59.2595
25.5371
26.7042
28.0733
29.5947
31.1805
32.7298
34.1596
35.4207
36.4876
37.3394
37.9556
38.3152
38.4027
38.1086
37.6174
37.0347
36.3814
35.6771
20.054
20.3806
20.7839
21.2561
21.7755
22.311
22.8299
23.3014
23.7008
24.0084
24.2069
24.2825
24.1953
24.0621
23.8903
23.6857
23.4544
23.2025
18.034
18.0959
18.1805
18.2857
18.406
18.5329
18.6567
18.7673
18.855
18.9121
18.9319
18.9029
18.8561
18.7944
18.7186
18.6303
18.5314
18.424
17.1377
17.123
17.1158
17.115
17.1185
17.1235
17.1269
17.1256
17.1169
17.0983
17.0672
17.0267
16.9805
16.9286
16.8712
16.8087
16.7419
16.6715
16.6634
16.624
16.588
16.5545
16.5227
16.4915
16.4597
16.4263
16.3902
16.3506
16.3068
16.2609
16.2127
16.1621
16.1092
16.0542
15.9973
15.9388
16.3828
16.3339
16.2869
16.2414
16.1969
16.153
16.1092
16.0649
16.0198
15.9734
15.9258
15.8774
15.8282
15.778
15.7267
15.6746
15.6216
15.5681
16.2041
16.1509
16.0989
16.0481
15.9982
15.9489
15.8998
15.8509
15.8017
15.7522
15.7026
15.6527
15.6026
15.5523
15.5017
15.4508
15.3997
15.3485
16.0855
16.0299
15.9754
15.9217
15.8689
15.8166
15.7648
15.7133
15.662
15.6107
15.5595
15.5086
15.4577
15.407
15.3563
15.3057
15.2552
15.2048
16.005
15.9479
15.8917
15.8363
15.7816
15.7275
15.6739
15.6207
15.5678
15.5152
15.4628
15.4108
15.3591
15.3077
15.2565
15.2057
15.1551
15.1048
15.9497
15.8915
15.8342
15.7776
15.7216
15.6661
15.6112
15.5567
15.5026
15.4488
15.3955
15.3425
15.2899
15.2377
15.1859
15.1345
15.0835
15.0329
15.9114
15.8524
15.7942
15.7367
15.6797
15.6233
15.5673
15.5118
15.4567
15.402
15.3477
15.2939
15.2404
15.1875
15.135
15.0829
15.0314
14.9803
15.8847
15.8251
15.7663
15.708
15.6502
15.593
15.5362
15.4798
15.4239
15.3684
15.3133
15.2587
15.2046
15.1509
15.0977
15.0451
14.9929
14.9413
15.866
15.806
15.7465
15.6877
15.6293
15.5714
15.514
15.4569
15.4003
15.3442
15.2884
15.2331
15.1783
15.124
15.0703
15.017
14.9643
14.9121
15.8528
15.7924
15.7325
15.6732
15.6143
15.5559
15.4979
15.4404
15.3832
15.3265
15.2702
15.2144
15.159
15.1042
15.0499
14.9961
14.9429
14.8903
15.8435
15.7828
15.7226
15.6629
15.6036
15.5448
15.4864
15.4284
15.3708
15.3136
15.2569
15.2006
15.1448
15.0895
15.0348
14.9806
14.927
14.8739
15.8369
15.776
15.7155
15.6555
15.5959
15.5368
15.478
15.4197
15.3617
15.3042
15.2471
15.1905
15.1343
15.0787
15.0236
14.9691
14.9151
14.8618
15.8324
15.7712
15.7105
15.6503
15.5905
15.5311
15.4721
15.4135
15.3553
15.2975
15.2401
15.1832
15.1268
15.0709
15.0155
14.9607
14.9065
14.8529
15.8293
15.768
15.7072
15.6468
15.5868
15.5272
15.468
15.4092
15.3508
15.2928
15.2353
15.1782
15.1216
15.0655
15.0099
14.9549
14.9005
14.8467
15.8273
15.7659
15.705
15.6445
15.5844
15.5247
15.4654
15.4065
15.3479
15.2898
15.2321
15.1749
15.1182
15.062
15.0063
14.9512
14.8966
14.8427
15.8263
15.7649
15.7039
15.6433
15.5832
15.5234
15.4641
15.4051
15.3465
15.2883
15.2305
15.1733
15.1164
15.0602
15.0044
14.9492
14.8946
14.8406
16.4023
16.3352
16.2688
16.2031
16.1382
16.0738
16.0102
15.9471
15.8846
15.8227
15.7612
15.7002
15.6397
15.5795
15.5198
15.4604
15.4015
15.3429
15.2847
15.2269
15.1696
15.1128
15.0565
15.0007
16.4032
16.336
16.2696
16.204
16.139
16.0747
16.0111
15.948
15.8856
15.8236
15.7622
15.7013
15.6408
15.5807
15.521
15.4617
15.4028
15.3442
15.2861
15.2284
15.1712
15.1144
15.0582
15.0025
16.4049
16.3377
16.2713
16.2056
16.1406
16.0764
16.0128
15.9498
15.8874
15.8255
15.7642
15.7033
15.6429
15.5829
15.5234
15.4642
15.4054
15.347
15.289
15.2314
15.1743
15.1177
15.0616
15.006
16.4074
16.3402
16.2738
16.2081
16.1432
16.0789
16.0154
15.9525
15.8902
15.8284
15.7672
15.7065
15.6463
15.5864
15.527
15.468
15.4094
15.3512
15.2934
15.2361
15.1791
15.1227
15.0668
15.0114
16.4113
16.344
16.2776
16.2119
16.147
16.0828
16.0193
15.9566
15.8944
15.8328
15.7718
15.7113
15.6512
15.5916
15.5325
15.4737
15.4154
15.3574
15.2999
15.2428
15.1862
15.13
15.0744
15.0193
16.4169
16.3496
16.2831
16.2174
16.1526
16.0885
16.0251
15.9625
15.9005
15.8391
15.7783
15.7181
15.6583
15.599
15.5402
15.4818
15.4238
15.3662
15.309
15.2522
15.1959
15.1401
15.0848
15.0301
16.425
16.3576
16.2912
16.2255
16.1607
16.0967
16.0335
15.9711
15.9093
15.8482
15.7877
15.7278
15.6684
15.6095
15.5511
15.493
15.4355
15.3783
15.3216
15.2652
15.2094
15.154
15.0992
15.0449
16.4366
16.3693
16.3028
16.2372
16.1725
16.1086
16.0456
15.9834
15.9219
15.8611
15.801
15.7415
15.6826
15.6242
15.5662
15.5088
15.4517
15.3951
15.3389
15.2831
15.2278
15.173
15.1187
15.0649
16.4534
16.386
16.3195
16.254
16.1895
16.1258
16.063
16.0011
15.94
15.8796
15.82
15.761
15.7026
15.6448
15.5875
15.5307
15.4743
15.4184
15.3628
15.3078
15.2531
15.199
15.1453
15.0922
16.4775
16.4101
16.3438
16.2784
16.214
16.1506
16.0881
16.0266
15.9659
15.9061
15.847
15.7887
15.7311
15.674
15.6175
15.5615
15.5059
15.4508
15.3961
15.3418
15.288
15.2346
15.1817
15.1292
16.5124
16.4451
16.3788
16.3137
16.2495
16.1865
16.1244
16.0634
16.0033
15.9442
15.8859
15.8284
15.7717
15.7156
15.6601
15.6051
15.5506
15.4964
15.4427
15.3893
15.3364
15.2839
15.2318
15.1802
16.5631
16.496
16.4299
16.3651
16.3013
16.2387
16.1772
16.1168
16.0576
15.9993
15.9421
15.8857
15.8302
15.7754
15.7212
15.6675
15.6142
15.5613
15.5088
15.4565
15.4047
15.3531
15.3019
15.2511
16.6371
16.5703
16.5047
16.4402
16.377
16.3151
16.2544
16.1949
16.1368
16.0798
16.024
15.9692
15.9154
15.8623
15.8099
15.758
15.7065
15.6552
15.604
15.5531
15.5025
15.452
15.4017
15.3515
16.7461
16.6797
16.6145
16.5508
16.4884
16.4274
16.3679
16.3099
16.2534
16.1984
16.1448
16.0924
16.0412
15.991
15.9413
15.8921
15.8431
15.794
15.7448
15.6956
15.6463
15.597
15.5476
15.498
16.9079
16.8422
16.7779
16.7152
16.6542
16.5949
16.5374
16.4818
16.4282
16.3766
16.3269
16.279
16.2325
16.1871
16.1424
16.0979
16.0532
16.008
15.962
15.9151
15.8677
15.8198
15.7712
15.7218
17.1538
17.0892
17.0265
16.9657
16.9071
16.8509
16.7972
16.7463
16.6985
16.6537
16.612
16.5731
16.5366
16.5017
16.4674
16.433
16.3975
16.3603
16.3207
16.2781
16.2341
16.1883
16.1406
16.0909
17.5418
17.4794
17.4197
17.363
17.3096
17.2599
17.2146
17.1741
17.1391
17.1101
17.0872
17.0701
17.0578
17.0488
17.0411
17.0324
17.0207
17.0043
16.9815
16.95
16.913
16.8718
16.8258
16.775
18.1866
18.1297
18.0774
18.0303
17.9892
17.9554
17.9303
17.9156
17.9132
17.925
17.9522
17.9949
18.0507
18.1158
18.185
18.2525
18.3127
18.3601
18.3893
18.3954
18.3763
18.3457
18.303
18.2482
19.3339
19.2926
19.2606
19.2397
19.2323
19.2418
19.2729
19.3311
19.4233
19.5554
19.733
19.9583
20.2266
20.5262
20.8397
21.1486
21.4361
21.6862
21.8829
22.0102
22.0478
22.033
21.9836
21.9021
21.79
21.5314
21.5432
21.5788
21.6436
21.7453
21.8946
22.1054
22.3948
22.7845
23.2963
23.9496
24.7504
25.6779
26.6809
27.6959
28.6684
29.558
30.3313
30.9567
31.4021
31.642
31.6256
31.5158
31.3122
31.0248
26.3078
26.5493
26.86
27.2534
27.7489
28.3732
29.1614
30.1573
31.4152
32.9889
34.9083
37.1443
39.5782
42.0352
44.354
46.4412
48.2637
49.8068
51.0475
51.9565
52.5011
52.6321
52.2894
51.7397
51.0018
39.5436
40.655
41.891
43.2638
44.8008
46.5439
48.5512
50.892
53.6309
56.8053
60.391
64.2063
67.9713
71.3991
74.3261
76.7492
78.7601
80.429
81.7629
82.7498
83.3744
83.548
83.1086
81.9918
80.6167
82.0756
83.8604
85.5473
87.1402
88.6641
90.1638
91.6769
93.2209
94.9544
96.9221
99.1024
101.335
103.523
105.321
107.068
108.939
110.927
112.978
114.966
116.794
118.596
120.811
121.696
121.29
119.567
151.393
148.372
145.149
141.818
138.468
135.186
132.063
129.176
126.642
124.671
123.473
123.409
122.335
122.899
126.738
134.548
143.675
153.004
162.359
171.612
182.201
212.14
214.935
216.591
217.181
217.168
179.536
170.238
161.986
154.646
148.141
142.455
137.516
133.523
131.052
130.16
129.527
135.036
153.746
190.24
254.286
261.899
292.964
350.426
356.222
376.402
391.595
415.369
396.696
381.711
369.454
174.931
166.735
159.412
152.915
147.253
142.555
139.346
138.684
136.271
141.671
174.099
227.67
479.493
707.572
1339.2
960.133
870.118
846.379
508.487
341.96
312.292
214.743
259.338
255.449
176.263
169.143
163.112
158.084
154.061
151.157
150.05
153.619
152.511
174.307
217.018
675.423
503.402
147.356
146.982
145.81
150.524
146.972
152.211
147.862
144.361
141.822
140.528
141.3
146.768
148.791
174.569
233.28
1147.15
1596.25
157.062
164.962
173.489
181.523
174.141
1052.48
273.146
144.562
156.854
204.454
229.771
212.797
531.806
409.579
380.014
358.884
332.297
235.009
242.466
249.533
256.089
59.0241
62.5624
66.2788
69.9085
73.1299
75.7784
77.8484
79.4354
80.6186
81.4298
81.9193
82.0938
81.8887
81.0088
79.8275
78.4349
76.8615
34.1856
36.1945
38.4999
40.968
43.4058
45.6398
47.5711
49.1735
50.452
51.4024
52.0167
52.2857
52.0797
51.6462
51.0329
50.2566
49.3487
48.3409
23.752
24.4627
25.3199
26.2954
27.328
28.3445
29.2834
30.1005
30.7678
31.2643
31.5699
31.6507
31.575
31.4136
31.1707
30.8558
30.4814
30.0602
19.7145
19.9132
20.1605
20.4497
20.7657
21.0877
21.3941
21.6662
21.8863
22.0409
22.1195
22.116
22.0809
22.0139
21.9166
21.7919
21.6442
21.4776
17.9854
18.0194
18.0691
18.1316
18.2024
18.2751
18.3429
18.3995
18.4391
18.4565
18.4462
18.4195
18.3814
18.3317
18.2706
18.199
18.1181
18.0295
17.1359
17.1153
17.1007
17.0908
17.0838
17.0772
17.0688
17.0561
17.0374
17.0111
16.9759
16.9367
16.8929
16.8445
16.7912
16.7335
16.6718
16.6069
16.6661
16.6255
16.5877
16.5522
16.5182
16.4845
16.4504
16.4147
16.3769
16.3362
16.293
16.2481
16.2014
16.1527
16.1019
16.0492
15.9948
15.9389
16.3838
16.3347
16.2874
16.2415
16.1966
16.1523
16.1081
16.0635
16.0182
15.9718
15.9248
15.8772
15.829
15.7799
15.7301
15.6794
15.628
15.5761
16.2037
16.1505
16.0986
16.0477
15.9978
15.9484
15.8994
15.8506
15.8016
15.7524
15.7031
15.6539
15.6045
15.5549
15.5051
15.4551
15.4049
15.3545
16.0845
16.029
15.9745
15.9209
15.8681
15.8159
15.7642
15.7128
15.6616
15.6105
15.5597
15.5091
15.4586
15.4083
15.358
15.3079
15.2579
15.208
16.0039
15.9469
15.8907
15.8354
15.7807
15.7267
15.6732
15.62
15.5672
15.5147
15.4626
15.4108
15.3593
15.3081
15.2572
15.2065
15.1562
15.1062
15.9487
15.8906
15.8333
15.7767
15.7207
15.6654
15.6105
15.556
15.502
15.4483
15.395
15.3421
15.2897
15.2376
15.1859
15.1346
15.0837
15.0332
15.9106
15.8517
15.7935
15.736
15.679
15.6226
15.5666
15.5112
15.4561
15.4014
15.3471
15.2933
15.24
15.1871
15.1346
15.0826
15.0311
14.98
15.8841
15.8246
15.7657
15.7074
15.6497
15.5924
15.5356
15.4793
15.4234
15.3679
15.3128
15.2582
15.2041
15.1504
15.0972
15.0446
14.9924
14.9408
15.8655
15.8055
15.7461
15.6872
15.6289
15.571
15.5135
15.4565
15.3999
15.3437
15.2879
15.2327
15.1778
15.1235
15.0697
15.0165
14.9637
14.9115
15.8525
15.7921
15.7322
15.6729
15.614
15.5556
15.4976
15.44
15.3829
15.3261
15.2698
15.214
15.1586
15.1038
15.0494
14.9956
14.9424
14.8897
15.8433
15.7826
15.7224
15.6627
15.6034
15.5446
15.4862
15.4282
15.3705
15.3133
15.2566
15.2003
15.1445
15.0892
15.0344
14.9802
14.9265
14.8735
15.8369
15.7759
15.7154
15.6554
15.5959
15.5367
15.478
15.4196
15.3617
15.3041
15.247
15.1903
15.1342
15.0785
15.0234
14.9688
14.9148
14.8614
15.8324
15.7712
15.7106
15.6504
15.5906
15.5312
15.4721
15.4135
15.3553
15.2975
15.2401
15.1832
15.1267
15.0708
15.0154
14.9606
14.9063
14.8527
15.8294
15.7681
15.7073
15.6469
15.5869
15.5273
15.4682
15.4093
15.3509
15.2929
15.2353
15.1782
15.1216
15.0655
15.0099
14.9548
14.9004
14.8465
15.8274
15.766
15.7051
15.6446
15.5845
15.5248
15.4655
15.4066
15.3481
15.2899
15.2322
15.175
15.1182
15.062
15.0063
14.9511
14.8965
14.8426
15.8265
15.765
15.7041
15.6435
15.5834
15.5236
15.4642
15.4052
15.3466
15.2884
15.2307
15.1733
15.1165
15.0602
15.0044
14.9492
14.8946
14.8405
16.4024
16.3353
16.2689
16.2033
16.1383
16.074
16.0104
15.9474
15.8849
15.8229
15.7615
15.7005
15.64
15.5798
15.5201
15.4607
15.4017
15.3431
15.2849
15.2271
15.1698
15.1129
15.0566
15.0008
16.4032
16.3361
16.2697
16.2041
16.1391
16.0749
16.0112
15.9482
15.8858
15.8238
15.7624
15.7015
15.641
15.5809
15.5212
15.4619
15.4029
15.3444
15.2862
15.2285
15.1713
15.1145
15.0582
15.0025
16.4048
16.3377
16.2713
16.2056
16.1407
16.0764
16.0128
15.9499
15.8875
15.8256
15.7643
15.7034
15.643
15.583
15.5234
15.4643
15.4054
15.347
15.289
15.2314
15.1743
15.1176
15.0615
15.0058
16.4071
16.3399
16.2735
16.2079
16.1429
16.0787
16.0152
15.9523
15.89
15.8283
15.7671
15.7064
15.6461
15.5863
15.5269
15.4678
15.4092
15.351
15.2932
15.2358
15.1788
15.1224
15.0664
15.011
16.4105
16.3433
16.2769
16.2113
16.1464
16.0822
16.0188
15.956
15.8938
15.8322
15.7712
15.7107
15.6506
15.591
15.5319
15.4731
15.4147
15.3568
15.2992
15.2421
15.1854
15.1292
15.0735
15.0184
16.4156
16.3484
16.2819
16.2163
16.1515
16.0874
16.024
15.9614
15.8994
15.838
15.7773
15.717
15.6572
15.5979
15.5391
15.4806
15.4226
15.3649
15.3077
15.2509
15.1946
15.1388
15.0834
15.0286
16.4233
16.356
16.2895
16.2239
16.1591
16.0952
16.032
15.9695
15.9078
15.8467
15.7862
15.7262
15.6668
15.6079
15.5494
15.4914
15.4338
15.3766
15.3198
15.2635
15.2076
15.1522
15.0973
15.0429
16.4346
16.3672
16.3008
16.2352
16.1705
16.1067
16.0437
15.9815
15.92
15.8592
15.7991
15.7396
15.6807
15.6222
15.5643
15.5068
15.4497
15.393
15.3368
15.281
15.2257
15.1709
15.1165
15.0627
16.4509
16.3836
16.3172
16.2517
16.1872
16.1235
16.0608
15.9989
15.9378
15.8774
15.8178
15.7588
15.7004
15.6426
15.5853
15.5285
15.4721
15.4161
15.3606
15.3055
15.2508
15.1966
15.143
15.0898
16.4746
16.4073
16.341
16.2757
16.2113
16.148
16.0855
16.024
15.9634
15.9036
15.8446
15.7863
15.7286
15.6716
15.6151
15.5591
15.5035
15.4484
15.3937
15.3394
15.2856
15.2322
15.1793
15.1269
16.5089
16.4417
16.3756
16.3105
16.2464
16.1835
16.1215
16.0605
16.0005
15.9414
15.8831
15.8257
15.769
15.7129
15.6574
15.6025
15.548
15.4939
15.4402
15.3869
15.3341
15.2817
15.2297
15.1782
16.5589
16.492
16.4261
16.3614
16.2978
16.2353
16.1739
16.1137
16.0545
15.9963
15.9391
15.8828
15.8273
15.7725
15.7184
15.6647
15.6116
15.5588
15.5063
15.4543
15.4026
15.3514
15.3004
15.2499
16.6324
16.5658
16.5004
16.4362
16.3732
16.3115
16.251
16.1917
16.1337
16.0768
16.021
15.9663
15.9125
15.8596
15.8072
15.7554
15.704
15.6529
15.6019
15.5514
15.5011
15.4511
15.4014
15.3518
16.741
16.6751
16.6104
16.5471
16.485
16.4244
16.3652
16.3074
16.2511
16.1962
16.1426
16.0903
16.0391
15.9888
15.9392
15.89
15.8411
15.7922
15.7434
15.6947
15.6462
15.5977
15.5492
15.5006
16.9038
16.8388
16.7753
16.7133
16.6528
16.594
16.5369
16.4816
16.4282
16.3766
16.3268
16.2787
16.2319
16.1861
16.141
16.0961
16.0512
16.0059
15.96
15.914
15.8678
15.8212
15.7741
15.7265
17.1531
17.0897
17.0282
16.9684
16.9107
16.8552
16.8019
16.7512
16.7032
16.6578
16.6152
16.5749
16.5366
16.4996
16.4631
16.4264
16.3888
16.3499
16.3092
16.2674
16.2247
16.1809
16.1356
16.0887
17.5485
17.488
17.43
17.3747
17.3223
17.2731
17.2277
17.1862
17.1493
17.117
17.0895
17.0661
17.0462
17.028
17.0101
16.9908
16.9688
16.9431
16.9127
16.8787
16.8423
16.803
16.7601
16.7133
18.2122
18.1572
18.106
18.0592
18.0172
17.981
17.9513
17.9293
17.916
17.9124
17.9187
17.9342
17.957
17.9834
18.0094
18.0314
18.0463
18.0515
18.0447
18.0271
18.0035
17.9729
17.9342
17.8869
19.3989
19.3519
19.3121
19.2806
19.2586
19.2481
19.2515
19.2718
19.3123
19.3763
19.465
19.5777
19.7093
19.8511
19.9925
20.1241
20.2384
20.3284
20.3871
20.4129
20.4233
20.4155
20.3874
20.3382
20.2688
21.6156
21.5831
21.5656
21.5654
21.5862
21.6334
21.7138
21.836
22.0108
22.2495
22.5606
22.9443
23.3861
23.8569
24.3233
24.7591
25.1472
25.4718
25.7147
25.8598
25.9652
26.0193
26.0168
25.9554
25.8364
26.185
26.177
26.1963
26.2605
26.3781
26.5635
26.8374
27.2254
27.7615
28.4827
29.4181
30.5595
31.8418
33.1553
34.3991
35.5205
36.5
37.3203
37.9502
38.3403
38.6277
38.7881
38.7938
38.6409
38.3378
37.0515
37.1747
37.337
37.5331
37.8244
38.2972
38.9959
39.9827
41.3333
43.1205
45.3764
48.006
50.7726
53.3695
55.6088
57.4786
59.041
60.3169
61.2698
61.8488
62.1391
62.194
61.958
61.4146
60.6047
67.7572
67.6967
67.7763
67.9998
68.3334
68.7344
69.2896
70.2928
71.841
74.0173
76.8724
80.1498
83.2718
85.9707
88.078
89.7419
91.1629
92.3471
93.1996
93.6295
93.6289
93.4322
92.93
92.0036
90.6758
124.663
122.287
120.081
118.054
116.239
114.668
113.366
112.238
111.666
111.921
113.451
112.812
113.897
118.003
123.32
128.351
132.999
137.243
140.616
142.62
143.672
146.976
152.667
151.717
150.395
148.837
172.59
164.911
158.049
151.95
146.599
142.034
138.359
135.56
134.549
132.835
134.182
149.706
192.106
215.353
254.678
271.033
277.799
278.431
274.302
280.62
277.168
284.461
311.701
302.413
292.888
179.064
170.841
163.505
156.969
151.243
146.426
142.792
139.436
139.729
156.59
215.71
722.976
2367.66
633.882
696.996
589.227
442.034
338.731
309.718
145.426
139.01
133.254
128.039
123.332
119.268
115.308
116.146
124.207
152.501
808.64
679.547
209.37
202.306
190.597
197.859
153.66
147.998
142.923
138.454
134.695
131.907
131.022
143.467
181.759
1098.32
243.029
228.466
218.08
199.092
269.095
180.834
263.551
270.232
242.417
510.916
434.895
347.697
321.963
246.53
215.663
215.805
215.641
118.018
121.725
124.162
125.772
44.605
46.9544
49.6571
52.4515
55.0044
57.113
58.7676
60.0406
60.9728
61.5511
61.7785
61.8329
61.6955
61.3094
60.6728
59.8138
58.7739
29.1501
30.1603
31.3747
32.7171
34.0613
35.2925
36.3498
37.2161
37.8806
38.328
38.6024
38.7785
38.8349
38.7578
38.5434
38.1994
37.737
37.1908
22.505
22.8476
23.2642
23.7365
24.2297
24.704
25.1294
25.487
25.7601
25.936
26.0428
26.1076
26.1236
26.0869
25.9968
25.8563
25.6709
25.447
19.4736
19.5736
19.6978
19.8405
19.991
20.1368
20.2672
20.3736
20.4491
20.4877
20.5023
20.5003
20.4802
20.4404
20.3809
20.3022
20.206
20.094
17.9515
17.9618
17.9815
18.0082
18.0377
18.0654
18.0872
18.0997
18.1004
18.087
18.0658
18.0382
18.0034
17.9606
17.9095
17.8502
17.7831
17.7094
17.1351
17.1091
17.0874
17.069
17.0521
17.035
17.0158
16.9931
16.9658
16.9329
16.8978
16.86
16.8192
16.7747
16.7263
16.6741
16.6183
16.5595
16.667
16.6252
16.5858
16.5483
16.512
16.476
16.4395
16.4019
16.3626
16.3212
16.2791
16.236
16.1917
16.1458
16.0981
16.0488
15.9978
15.9454
16.3823
16.333
16.2854
16.2391
16.1938
16.1491
16.1045
16.0596
16.0144
15.9684
15.9224
15.8761
15.8294
15.7821
15.7341
15.6854
15.6361
15.5861
16.2007
16.1475
16.0956
16.0447
15.9947
15.9454
15.8964
15.8477
15.7989
15.7502
15.7016
15.6531
15.6046
15.5561
15.5074
15.4585
15.4094
15.3603
16.081
16.0256
15.9711
15.9176
15.8648
15.8127
15.7611
15.7098
15.6588
15.608
15.5576
15.5074
15.4574
15.4077
15.358
15.3085
15.2592
15.2099
16.0006
15.9436
15.8875
15.8322
15.7776
15.7236
15.6701
15.6171
15.5644
15.512
15.4601
15.4085
15.3573
15.3063
15.2557
15.2055
15.1554
15.1057
15.9457
15.8877
15.8304
15.7738
15.7179
15.6625
15.6076
15.5532
15.4992
15.4456
15.3924
15.3396
15.2873
15.2353
15.1838
15.1326
15.0819
15.0315
15.908
15.8491
15.7909
15.7334
15.6764
15.62
15.5641
15.5086
15.4535
15.3988
15.3446
15.2908
15.2375
15.1846
15.1322
15.0803
15.0288
14.9778
15.8818
15.8223
15.7634
15.7051
15.6474
15.5901
15.5333
15.477
15.421
15.3655
15.3104
15.2558
15.2017
15.148
15.0948
15.0421
14.9899
14.9383
15.8635
15.8035
15.7441
15.6852
15.6268
15.5689
15.5115
15.4544
15.3978
15.3416
15.2858
15.2305
15.1756
15.1213
15.0674
15.0141
14.9613
14.9091
15.8509
15.7905
15.7306
15.6712
15.6124
15.5539
15.4959
15.4383
15.3811
15.3243
15.268
15.2121
15.1567
15.1018
15.0474
14.9936
14.9403
14.8876
15.8422
15.7814
15.7212
15.6615
15.6023
15.5434
15.485
15.4269
15.3693
15.3121
15.2553
15.1989
15.1431
15.0878
15.0329
14.9787
14.925
14.8718
15.8363
15.7753
15.7148
15.6548
15.5953
15.5361
15.4773
15.4189
15.361
15.3034
15.2462
15.1896
15.1334
15.0777
15.0225
14.9679
14.9138
14.8604
15.8322
15.7711
15.7104
15.6502
15.5904
15.531
15.4719
15.4133
15.3551
15.2972
15.2398
15.1829
15.1264
15.0704
15.015
14.9601
14.9058
14.8521
15.8295
15.7682
15.7074
15.647
15.587
15.5274
15.4682
15.4094
15.3509
15.2929
15.2353
15.1782
15.1215
15.0653
15.0097
14.9546
14.9001
14.8462
15.8276
15.7662
15.7053
15.6448
15.5847
15.525
15.4657
15.4068
15.3482
15.2901
15.2323
15.1751
15.1183
15.062
15.0062
14.951
14.8964
14.8424
15.8267
15.7653
15.7043
15.6438
15.5836
15.5238
15.4645
15.4054
15.3468
15.2886
15.2308
15.1735
15.1166
15.0603
15.0044
14.9492
14.8945
14.8404
16.4025
16.3355
16.2691
16.2035
16.1386
16.0743
16.0107
15.9477
15.8852
15.8233
15.7619
15.7009
15.6403
15.5802
15.5204
15.461
15.402
15.3434
15.2851
15.2273
15.17
15.1131
15.0567
15.0008
16.4032
16.3362
16.2698
16.2042
16.1393
16.0751
16.0114
15.9484
15.886
15.8241
15.7627
15.7018
15.6413
15.5812
15.5214
15.4621
15.4032
15.3446
15.2864
15.2287
15.1714
15.1145
15.0582
15.0024
16.4045
16.3374
16.2711
16.2055
16.1405
16.0763
16.0128
15.9498
15.8874
15.8256
15.7643
15.7034
15.643
15.583
15.5234
15.4642
15.4053
15.3469
15.2888
15.2312
15.174
15.1173
15.0611
15.0055
16.4061
16.339
16.2726
16.207
16.1421
16.0779
16.0144
15.9515
15.8892
15.8275
15.7663
15.7056
15.6453
15.5855
15.526
15.467
15.4083
15.3501
15.2922
15.2348
15.1778
15.1213
15.0653
15.0098
16.4083
16.3412
16.2748
16.2092
16.1443
16.0801
16.0167
15.9539
15.8918
15.8302
15.7691
15.7086
15.6485
15.5889
15.5297
15.4709
15.4125
15.3545
15.2969
15.2397
15.183
15.1267
15.071
15.0158
16.4119
16.3446
16.2782
16.2126
16.1478
16.0837
16.0204
15.9577
15.8957
15.8344
15.7735
15.7132
15.6534
15.5941
15.5352
15.4767
15.4186
15.3609
15.3037
15.2468
15.1904
15.1345
15.0791
15.0243
16.418
16.3507
16.2843
16.2187
16.154
16.09
16.0268
15.9643
15.9026
15.8414
15.7809
15.7209
15.6615
15.6025
15.544
15.4859
15.4282
15.371
15.3141
15.2577
15.2017
15.1463
15.0913
15.0369
16.4282
16.3609
16.2945
16.229
16.1643
16.1005
16.0375
15.9752
15.9138
15.853
15.7928
15.7332
15.6742
15.6157
15.5577
15.5002
15.443
15.3863
15.33
15.2741
15.2187
15.1638
15.1093
15.0554
16.4439
16.3765
16.3102
16.2447
16.1802
16.1166
16.0539
15.9919
15.9308
15.8705
15.8108
15.7518
15.6933
15.6355
15.5781
15.5212
15.4647
15.4087
15.3531
15.2979
15.2432
15.1889
15.1352
15.0819
16.4668
16.3996
16.3333
16.2681
16.2038
16.1405
16.0781
16.0166
15.9559
15.8961
15.8371
15.7788
15.7211
15.664
15.6074
15.5514
15.4958
15.4406
15.3858
15.3315
15.2777
15.2243
15.1714
15.1189
16.5004
16.4333
16.3673
16.3023
16.2383
16.1754
16.1135
16.0526
15.9926
15.9335
15.8753
15.8178
15.7611
15.705
15.6495
15.5945
15.54
15.4859
15.4322
15.379
15.3262
15.2739
15.2219
15.1705
16.5495
16.4828
16.4171
16.3525
16.2891
16.2267
16.1655
16.1053
16.0462
15.9881
15.931
15.8747
15.8192
15.7645
15.7103
15.6568
15.6036
15.5509
15.4985
15.4466
15.3952
15.3441
15.2934
15.2431
16.6221
16.5559
16.4908
16.4269
16.3642
16.3027
16.2424
16.1834
16.1255
16.0688
16.0131
15.9585
15.9048
15.8519
15.7996
15.7479
15.6966
15.6456
15.595
15.5447
15.4949
15.4454
15.3961
15.3471
16.7303
16.665
16.6009
16.5381
16.4766
16.4164
16.3576
16.3002
16.2441
16.1894
16.1361
16.0839
16.0328
15.9826
15.933
15.8839
15.8352
15.7866
15.7382
15.6901
15.6424
15.5948
15.5473
15.4997
16.8941
16.8302
16.7676
16.7066
16.647
16.5889
16.5325
16.4778
16.4248
16.3735
16.3238
16.2757
16.2289
16.183
16.1377
16.0927
16.0478
16.0026
15.9574
15.9123
15.8674
15.8223
15.7769
15.7311
17.1471
17.0856
17.0257
16.9676
16.9113
16.857
16.8047
16.7547
16.7071
16.6618
16.6189
16.5781
16.5389
16.5007
16.463
16.425
16.3863
16.3465
16.306
16.2655
16.2246
16.1831
16.1404
16.0964
17.551
17.4935
17.4383
17.3854
17.3351
17.2876
17.2432
17.2023
17.165
17.1315
17.1018
17.0752
17.051
17.0278
17.0042
16.979
16.9512
16.9204
16.8876
16.854
16.8191
16.7821
16.7424
16.6996
18.2389
18.1873
18.1391
18.0947
18.0543
18.0187
17.9883
17.9639
17.9461
17.9354
17.9317
17.9339
17.9399
17.9466
17.9507
17.9496
17.9415
17.9257
17.9049
17.8815
17.8546
17.823
17.7855
17.7411
19.4673
19.4209
19.3809
19.3478
19.3226
19.3064
19.3007
19.3071
19.3274
19.3629
19.4137
19.4771
19.5471
19.616
19.6763
19.7228
19.7527
19.7645
19.7668
19.7621
19.7497
19.7273
19.692
19.6416
19.5759
21.7921
21.7604
21.7293
21.7021
21.6917
21.7003
21.7318
21.7907
21.8823
22.0114
22.1795
22.3807
22.5978
22.8077
22.9915
23.1406
23.2527
23.3258
23.3861
23.4309
23.4583
23.4633
23.4382
23.3776
23.2812
26.4621