/*--------------------------------*- C++ -*----------------------------------*\
  =========                 |
  \\      /  F ield         | OpenFOAM: The Open Source CFD Toolbox
   \\    /   O peration     | Website:  https://openfoam.org
    \\  /    A nd           | Version:  13
     \\/     M anipulation  |
\*---------------------------------------------------------------------------*/
FoamFile
{
    format      ascii;
    class       volScalarField;
    location    "700";
    object      p;
}
// * * * * * * * * * * * * * * * * * * * * * * * * * * * * * * * * * * * * * //

dimensions      [0 2 -2 0 0 0 0];

internalField   nonuniform List<scalar> 
171745
(
-3.22228
-3.68382
-4.15099
-4.62373
-5.10147
-5.58315
-6.06725
-6.55186
-7.03472
-7.5132
-7.98436
-8.44498
-8.89178
-9.32148
-9.73088
-10.1169
-10.4767
-10.8076
-11.1074
-11.3743
-11.6069
-11.8042
-11.9656
-12.0911
-3.22787
-3.68889
-4.15594
-4.62898
-5.10745
-5.5903
-6.07599
-6.56258
-7.04778
-7.52893
-8.003
-8.46673
-8.91672
-9.3496
-9.76204
-10.1509
-10.5131
-10.8462
-11.1478
-11.4161
-11.6495
-11.8471
-12.0085
-12.1334
-3.23771
-3.69765
-4.16447
-4.63814
-5.11815
-5.6034
-6.09235
-6.58298
-7.07294
-7.55947
-8.03943
-8.50942
-8.96587
-9.40518
-9.82382
-10.2184
-10.5859
-10.9235
-11.2287
-11.4997
-11.735
-11.9334
-12.0946
-12.2185
-3.25147
-3.70968
-4.17609
-4.65071
-5.13302
-5.62194
-6.11585
-6.61267
-7.1099
-7.60465
-8.09363
-8.57319
-9.03951
-9.48868
-9.91686
-10.3204
-10.6959
-11.0404
-11.3514
-11.6266
-11.8646
-12.0643
-12.2252
-12.3474
-3.26763
-3.72336
-4.1891
-4.66492
-5.15032
-5.64418
-6.14482
-6.65006
-7.15725
-7.66328
-8.16463
-8.65735
-9.13725
-9.60001
-10.0414
-10.4573
-10.8439
-11.1981
-11.5169
-11.7981
-12.04
-12.2414
-12.4019
-12.5217
-3.28466
-3.73698
-4.20167
-4.67887
-5.16808
-5.66818
-6.1774
-6.69345
-7.21346
-7.73412
-8.25153
-8.76138
-9.25899
-9.73952
-10.1981
-10.6302
-11.0316
-11.3985
-11.7277
-12.0166
-12.2635
-12.467
-12.627
-12.7436
-3.3002
-3.74797
-4.21108
-4.68973
-5.18346
-5.69111
-6.21086
-6.74025
-7.27626
-7.8152
-8.35282
-8.88428
-9.4043
-9.90735
-10.3879
-10.8407
-11.2607
-11.6437
-11.9861
-12.2849
-12.5381
-12.7443
-12.9034
-13.0159
-3.31144
-3.75328
-4.21409
-4.69415
-5.19302
-5.70955
-6.24184
-6.78734
-7.34274
-7.90409
-8.46658
-9.02478
-9.57264
-10.1038
-10.6117
-11.0903
-11.5337
-11.937
-12.2958
-12.6069
-12.8678
-13.0772
-13.235
-13.3421
-3.31477
-3.74902
-4.20661
-4.68787
-5.19241
-5.71909
-6.26601
-6.83051
-7.40911
-7.99741
-8.59013
-9.18102
-9.76308
-10.3288
-10.8707
-11.3812
-11.8536
-12.2818
-12.661
-12.9871
-13.2574
-13.4707
-13.6267
-13.7269
-3.30587
-3.73058
-4.18375
-4.66578
-5.17634
-5.71436
-6.27799
-6.86458
-7.47044
-8.09089
-8.71994
-9.35047
-9.97429
-10.5825
-11.166
-11.7159
-12.2239
-12.6828
-13.0869
-13.4315
-13.7133
-13.9309
-14.0844
-14.1757
-3.27952
-3.6924
-4.13969
-4.62178
-5.13843
-5.68876
-6.27109
-6.88287
-7.52045
-8.17875
-8.85121
-9.52959
-10.2042
-10.8644
-11.499
-12.0971
-12.6488
-13.1455
-13.5801
-13.9471
-14.2428
-14.4654
-14.6155
-14.6955
-3.22961
-3.62809
-4.06768
-4.54874
-5.07117
-5.63437
-6.23707
-6.87711
-7.551
-8.25358
-8.97758
-9.71353
-10.4499
-11.1736
-11.8709
-12.5283
-13.1338
-13.6766
-14.1485
-14.5429
-14.8554
-15.0839
-15.2293
-15.2948
-3.14907
-3.53032
-3.96003
-4.43846
-4.96569
-5.54164
-6.16577
-6.83667
-7.55153
-8.30529
-9.0902
-9.89533
-10.7068
-11.5083
-12.2827
-13.0132
-13.6844
-14.2839
-14.8014
-15.2294
-15.5625
-15.798
-15.937
-15.984
-3.02996
-3.39106
-3.80838
-4.28192
-4.81209
-5.39959
-6.04512
-6.74871
-7.50875
-8.32104
-9.17753
-10.0658
-10.9688
-11.8662
-12.7358
-13.5561
-14.3082
-14.977
-15.5505
-16.0199
-16.3783
-16.6222
-16.7529
-16.7762
-2.86345
-3.2014
-3.60328
-4.06869
-4.59846
-5.19454
-5.85956
-6.59592
-7.40444
-8.28256
-9.22272
-10.2108
-11.2261
-12.2421
-13.2298
-14.1612
-15.0128
-15.7666
-16.4089
-16.9294
-17.3197
-17.5743
-17.6941
-17.687
-2.64144
-2.9538
-3.33701
-3.79003
-4.31424
-4.91339
-5.59298
-6.35923
-7.21707
-8.16754
-9.20455
-10.3127
-11.4664
-12.6306
-13.766
-14.8354
-15.8093
-16.6671
-17.394
-17.9782
-18.4092
-18.6781
-18.7844
-18.7383
-2.35237
-2.63701
-2.9977
-3.43241
-3.9432
-4.53621
-5.2211
-6.00975
-6.91404
-7.94122
-9.08941
-10.3431
-11.6698
-13.0219
-14.344
-15.5855
-16.7092
-17.6935
-18.5246
-19.1888
-19.6721
-19.9611
-20.0511
-19.9546
-1.9953
-2.25197
-2.58641
-2.99516
-3.48094
-4.05301
-4.72693
-5.52315
-6.46379
-7.56729
-8.84016
-10.2689
-11.8128
-13.4055
-14.9664
-16.4229
-17.729
-18.8658
-19.825
-20.5921
-21.1448
-21.4627
-21.5351
-21.3753
-1.5512
-1.78225
-2.08769
-2.46183
-2.90772
-3.4382
-4.07628
-4.85416
-5.81005
-6.97966
-8.38573
-10.0239
-11.8462
-13.7561
-15.6297
-17.3578
-18.8837
-20.2006
-21.3153
-22.2148
-22.863
-23.2207
-23.2691
-23.0266
-22.5477
-1.05193
-1.26171
-1.53471
-1.86198
-2.24614
-2.70343
-3.26536
-3.97853
-4.90391
-6.10907
-7.64965
-9.54272
-11.7336
-14.0766
-16.3672
-18.435
-20.2159
-21.738
-23.0414
-24.1164
-24.9067
-25.3361
-25.3562
-24.9929
-24.3428
-0.458934
-0.660758
-0.904335
-1.17606
-1.4764
-1.82328
-2.25653
-2.8423
-3.67424
-4.86803
-6.53651
-8.74325
-11.4379
-14.4006
-17.2706
-19.7521
-21.793
-23.513
-25.0227
-26.3161
-27.3053
-27.8508
-27.8405
-27.3232
-26.4513
0.115096
-0.0905557
-0.306005
-0.511169
-0.702005
-0.895649
-1.13829
-1.51621
-2.16402
-3.26361
-5.01865
-7.58746
-10.9574
-14.8001
-18.5358
-21.5784
-23.8892
-25.7755
-27.494
-29.0561
-30.3546
-31.0493
-30.9428
-30.1617
-28.9821
0.617582
0.370432
0.155582
-4.07666e-05
-0.0851272
-0.111648
-0.125849
-0.22312
-0.572617
-1.43691
-3.16112
-6.08887
-10.2952
-15.1866
-19.953
-23.6543
-26.2094
-28.1938
-30.0905
-31.9139
-34.006
-35.0934
-34.7759
-33.5874
-31.9718
0.548077
0.242451
0.0231053
-0.0759776
-0.034
0.150375
0.446227
0.767676
0.935458
0.623302
-0.704564
-3.72174
-8.87993
-14.0934
-20.2461
-24.8587
-27.8246
-29.8277
-31.7727
-33.7576
-37.801
-39.9165
-39.1028
-37.3745
-35.2289
-32.8688
-0.392791
-0.55713
-0.549343
-0.332542
0.118623
0.809013
1.69832
2.65243
3.36561
3.1779
1.02631
-4.44219
-12.3962
-21.8967
-29.0995
-32.3124
-34.2302
-35.6367
-37.6489
-39.4614
-43.5568
-41.5404
-39.2043
-36.1882
-33.0061
-1.39792
-1.28156
-0.895906
-0.187129
0.893529
2.37942
4.24354
6.32917
8.22842
6.37853
2.90612
-6.27104
-18.7874
-30.6217
-41.0675
-40.0405
-37.7179
-38.9346
-40.955
-42.6483
-41.9177
-40.5539
-38.1198
-34.8134
-2.04944
-1.88475
-1.42673
-0.597804
0.681968
2.49022
4.89159
7.86876
11.1368
12.1192
12.3884
7.34105
-0.467297
-19.2584
-90.2205
-50.5496
-38.8008
-38.8291
-40.2246
-41.7207
-41.5657
-40.137
-37.7716
-34.9323
-2.23244
-1.86771
-1.14795
-0.00659637
1.60528
3.70102
6.18193
8.72561
10.9935
11.8051
11.2405
10.9609
-38.7962
-39.6204
-40.6716
-42.8385
-43.035
-40.8727
-37.9838
-34.6746
-40.8371
-42.5665
-44.3172
-45.4093
-43.0907
-39.1416
-35.1658
-42.1713
-46.3982
-45.0749
-41.9353
-38.3537
-43.2937
-42.7106
-40.5576
-38.0946
-3.78975
-5.64366
-8.33124
-11.8494
-15.8655
-19.7659
-22.907
-25.1969
-26.9172
-28.3556
-29.5759
-30.4956
-30.8473
-30.4443
-29.4266
-28.1004
-26.6453
-5.3444
-7.09545
-9.39735
-12.2001
-15.277
-18.2466
-20.7816
-22.8023
-24.4151
-25.7401
-26.797
-27.5199
-27.7996
-27.5533
-26.8417
-25.8262
-24.6588
-23.4295
-6.53557
-8.14132
-10.1062
-12.3733
-14.7909
-17.1417
-19.2375
-20.9983
-22.4445
-23.62
-24.5279
-25.127
-25.3613
-25.1979
-24.6787
-23.9081
-22.9901
-21.9995
-7.35978
-8.81553
-10.5061
-12.3807
-14.3384
-16.2468
-17.987
-19.4924
-20.7516
-21.7734
-22.5522
-23.0621
-23.276
-23.1862
-22.8192
-22.2394
-21.5207
-20.7231
-7.90471
-9.21511
-10.6815
-12.2608
-13.8832
-15.4629
-16.9213
-18.2071
-19.2985
-20.1883
-20.8662
-21.3175
-21.5279
-21.4934
-21.2363
-20.8015
-20.2412
-19.601
-8.24077
-9.41695
-10.6974
-12.0478
-13.4177
-14.7487
-15.9862
-17.0905
-18.0382
-18.8159
-19.4131
-19.8196
-20.0259
-20.0338
-19.8616
-19.5408
-19.1078
-18.5968
-8.43349
-9.49114
-10.6181
-11.7872
-12.9616
-14.0999
-15.1626
-16.1185
-16.9461
-17.6309
-18.1632
-18.5346
-18.7397
-18.7826
-18.6771
-18.4453
-18.1134
-17.7071
-8.51952
-9.47466
-10.4756
-11.5005
-12.5217
-13.5087
-14.432
-15.2672
-15.9956
-16.6042
-17.0837
-17.4272
-17.632
-17.7021
-17.648
-17.4855
-17.2337
-16.9121
-8.53296
-9.40016
-10.2969
-11.2055
-12.1047
-12.9713
-13.7831
-14.5204
-15.1679
-15.7139
-16.1504
-16.4717
-16.6763
-16.7674
-16.7529
-16.6445
-16.4565
-16.2037
-8.49589
-9.28823
-10.0987
-10.9128
-11.7139
-12.4841
-13.206
-13.8641
-14.4454
-14.9403
-15.3416
-15.6447
-15.8486
-15.9558
-15.972
-15.9063
-15.7692
-15.5721
-8.42606
-9.15501
-9.89395
-10.631
-11.3528
-12.0452
-12.6944
-13.288
-13.8154
-14.2683
-14.6407
-14.9288
-15.1316
-15.251
-15.2914
-15.2593
-15.163
-15.0113
-8.33594
-9.01146
-9.69111
-10.365
-11.0223
-11.6516
-12.242
-12.7831
-13.2665
-13.6851
-14.0338
-14.3093
-14.5107
-14.6394
-14.6985
-14.6932
-14.6296
-14.5147
-8.23521
-8.86589
-9.49644
-10.1186
-10.7233
-11.3014
-11.8439
-12.3424
-12.7898
-13.1803
-13.5094
-13.7743
-13.9742
-14.1098
-14.1836
-14.1995
-14.1623
-14.0773
-8.131
-8.72426
-9.31423
-9.89391
-10.4558
-10.9923
-11.4959
-11.9597
-12.3778
-12.7452
-13.0582
-13.3142
-13.5124
-13.6532
-13.7385
-13.7713
-13.7552
-13.6946
-8.02875
-8.59097
-9.14758
-9.69258
-10.2196
-10.7223
-11.1944
-11.6301
-12.0244
-12.3729
-12.6726
-12.9211
-13.1176
-13.2624
-13.3567
-13.4028
-13.4037
-13.3628
-7.93255
-8.46927
-8.99865
-9.51549
-10.0143
-10.4898
-10.9364
-11.3494
-11.7244
-12.0577
-12.3465
-12.5888
-12.7837
-12.9314
-13.0327
-13.0893
-13.1037
-13.0788
-7.84553
-8.36158
-8.869
-9.36322
-9.83951
-10.2931
-10.7195
-11.1143
-11.4739
-11.7949
-12.0749
-12.3121
-12.5057
-12.6554
-12.7621
-12.8271
-12.8522
-12.8399
-7.76996
-8.26961
-8.75967
-9.23607
-9.69461
-10.1311
-10.5416
-10.9222
-11.2696
-11.5809
-11.854
-12.0871
-12.2794
-12.4307
-12.5415
-12.6128
-12.6463
-12.644
-7.70768
-8.19471
-8.67147
-9.13426
-9.57928
-10.0028
-10.4011
-10.7708
-11.109
-11.4129
-11.6806
-11.9106
-12.1019
-12.2542
-12.3681
-12.4443
-12.4841
-12.4894
-7.6598
-8.13767
-8.6048
-9.05775
-9.493
-9.9071
-10.2967
-10.6586
-10.9901
-11.2887
-11.5525
-11.7801
-11.9706
-12.1237
-12.2397
-12.3194
-12.3638
-12.3745
-7.62743
-8.09935
-8.56022
-9.00678
-9.43571
-9.84372
-10.2276
-10.5845
-10.9116
-11.2067
-11.468
-11.694
-11.884
-12.0376
-12.155
-12.2369
-12.2842
-12.2985
-7.61072
-8.0797
-8.5375
-8.98095
-9.40679
-9.81184
-10.193
-10.5474
-10.8724
-11.1658
-11.4258
-11.6511
-11.8409
-11.9947
-12.1129
-12.1959
-12.2447
-12.2608
-3.21372
-3.67569
-4.14325
-4.61633
-5.09437
-5.57631
-6.0606
-6.54538
-7.02836
-7.50694
-7.97815
-8.43879
-8.88558
-9.31525
-9.72459
-10.1105
-10.4702
-10.801
-11.1007
-11.3676
-11.6002
-11.7975
-11.959
-12.0846
-3.21933
-3.6808
-4.14828
-4.62168
-5.10047
-5.58357
-6.06946
-6.5562
-7.04152
-7.52274
-7.99685
-8.46059
-8.91058
-9.34342
-9.75581
-10.1446
-10.5067
-10.8397
-11.1412
-11.4094
-11.6428
-11.8404
-12.0018
-12.1269
-3.22916
-3.6896
-4.15688
-4.63096
-5.1113
-5.59683
-6.08598
-6.57678
-7.06684
-7.55344
-8.03344
-8.50344
-8.95987
-9.39914
-9.81772
-10.2122
-10.5796
-10.9171
-11.2222
-11.4931
-11.7283
-11.9267
-12.0879
-12.2119
-3.2429
-3.70167
-4.1686
-4.64368
-5.12637
-5.61559
-6.10974
-6.60673
-7.1041
-7.59892
-8.08793
-8.56749
-9.03377
-9.48288
-9.91098
-10.3144
-10.6898
-11.0341
-11.3449
-11.62
-11.8579
-12.0575
-12.2184
-12.3407
-3.25903
-3.71542
-4.18177
-4.65811
-5.14395
-5.63817
-6.13909
-6.64455
-7.15187
-7.658
-8.15937
-8.65208
-9.13192
-9.59458
-10.0358
-10.4515
-10.838
-11.192
-11.5106
-11.7916
-12.0333
-12.2345
-12.395
-12.5148
-3.27608
-3.72916
-4.19456
-4.67238
-5.16212
-5.66264
-6.17222
-6.6885
-7.20872
-7.72947
-8.24692
-8.75673
-9.25424
-9.73462
-10.193
-10.6249
-11.026
-11.3926
-11.7215
-12.0101
-12.2567
-12.4601
-12.6199
-12.7365
-3.29164
-3.74033
-4.20428
-4.68368
-5.17804
-5.68622
-6.20639
-6.73612
-7.27234
-7.81143
-8.34908
-8.88048
-9.40036
-9.90321
-10.3835
-10.8359
-11.2556
-11.6382
-11.9801
-12.2785
-12.5313
-12.7372
-12.8961
-13.0085
-3.30296
-3.7459
-4.20773
-4.68869
-5.18835
-5.70552
-6.23835
-6.78425
-7.33997
-7.90147
-8.46402
-9.02215
-9.56982
-10.1007
-10.6082
-11.0863
-11.5292
-11.9319
-12.2901
-12.6006
-12.861
-13.07
-13.2275
-13.3344
-3.30645
-3.74203
-4.20085
-4.6832
-5.1887
-5.71621
-6.26379
-6.82885
-7.40782
-7.99638
-8.58917
-9.17997
-9.7618
-10.3272
-10.8685
-11.3783
-11.85
-12.2774
-12.6557
-12.9811
-13.2507
-13.4633
-13.6188
-13.7186
-3.2978
-3.72411
-4.17878
-4.66215
-5.1739
-5.71295
-6.27748
-6.86475
-7.47117
-8.09194
-8.72113
-9.35158
-9.97511
-10.5828
-11.1656
-11.7146
-12.2216
-12.6795
-13.0824
-13.4259
-13.7066
-13.9233
-14.0761
-14.1668
-3.27182
-3.68663
-4.13573
-4.61948
-5.13763
-5.68928
-6.27274
-6.88549
-7.52378
-8.18261
-8.8553
-9.53363
-10.2079
-10.8674
-11.5011
-12.098
-12.6484
-13.1436
-13.5766
-13.9421
-14.2363
-14.4577
-14.6066
-14.6857
-3.2224
-3.62321
-4.06501
-4.54811
-5.07243
-5.63732
-6.24155
-6.88285
-7.55781
-8.26113
-8.98557
-9.72156
-10.4575
-11.1804
-11.8765
-12.5324
-13.1359
-13.6767
-14.1465
-14.5389
-14.8493
-15.076
-15.2196
-15.2837
-3.14245
-3.52651
-3.95892
-4.43989
-4.9695
-5.54766
-6.17378
-6.8465
-7.56283
-8.31778
-9.10343
-9.90882
-10.7199
-11.5205
-12.2933
-13.0216
-13.6903
-14.287
-14.8017
-15.2268
-15.557
-15.7898
-15.9263
-15.9711
-3.02405
-3.38851
-3.80911
-4.28582
-4.81901
-5.40938
-6.05763
-6.76367
-7.52595
-8.34005
-9.19789
-10.0868
-10.9897
-11.886
-12.7535
-13.5708
-14.3195
-14.9845
-15.5542
-16.0196
-16.3741
-16.6141
-16.741
-16.761
-2.8582
-3.20017
-3.60606
-4.07541
-4.60904
-5.2089
-5.87754
-6.61741
-7.42914
-8.31019
-9.25269
-10.2423
-11.258
-12.2729
-13.2579
-14.1853
-15.0321
-15.7806
-16.4177
-16.9331
-17.3179
-17.5668
-17.6811
-17.6687
-2.63676
-2.95391
-3.34198
-3.79988
-4.329
-4.93306
-5.61764
-6.38883
-7.25158
-8.20663
-9.24782
-10.3593
-11.5145
-12.6779
-13.8098
-14.8734
-15.8401
-16.6906
-17.4105
-17.9882
-18.4117
-18.6722
-18.7699
-18.7155
-2.34782
-2.63818
-3.00476
-3.44552
-3.9625
-4.56191
-5.2535
-6.04936
-6.96097
-7.99563
-9.15107
-10.4109
-11.7416
-13.0937
-14.4111
-15.6437
-16.7567
-17.7306
-18.5525
-19.2087
-19.6827
-19.9591
-20.035
-19.9252
-1.99169
-2.2551
-2.59659
-3.01266
-3.50611
-4.08627
-4.76899
-5.57477
-6.52607
-7.64128
-8.9268
-10.3679
-11.9215
-13.5169
-15.071
-16.5128
-17.8014
-18.9229
-19.8704
-20.6276
-21.169
-21.4688
-21.5176
-21.335
-1.5467
-1.78584
-2.09985
-2.48293
-2.93824
-3.47887
-4.12813
-4.91891
-5.89004
-7.07911
-8.50846
-10.1709
-12.013
-13.9303
-15.7927
-17.4947
-18.9912
-20.2858
-21.3875
-22.2772
-22.9106
-23.242
-23.2523
-22.9699
-22.4609
-1.05103
-1.27053
-1.55379
-1.89178
-2.28719
-2.7565
-3.33204
-4.06167
-5.00806
-6.24056
-7.81706
-9.75312
-11.9846
-14.3455
-16.6177
-18.639
-20.3713
-21.8635
-23.1575
-24.2287
-24.9972
-25.3762
-25.33
-24.9053
-24.2084
-0.455713
-0.670932
-0.927728
-1.21249
-1.52575
-1.88588
-2.33302
-2.93478
-3.78775
-5.01328
-6.7333
-9.01836
-11.8059
-14.818
-17.6515
-20.0403
-21.9912
-23.6676
-25.1813
-26.4905
-27.4496
-27.9015
-27.7775
-27.1595
-26.2194
0.099876
-0.121525
-0.351136
-0.567566
-0.766261
-0.964162
-1.20637
-1.58032
-2.22813
-3.34728
-5.16931
-7.88914
-11.4719
-15.4751
-19.1437
-21.9899
-24.1119
-25.9203
-27.6742
-29.2931
-30.5075
-31.0511
-30.775
-29.865
-28.5972
0.613427
0.3427
0.112278
-0.0496289
-0.129658
-0.134987
-0.106135
-0.140474
-0.42168
-1.24934
-3.04308
-6.27224
-10.9604
-16.2338
-20.9485
-24.2855
-26.4596
-28.3231
-30.3736
-32.4234
-34.009
-34.8876
-34.4349
-33.0837
-31.3447
0.624117
0.29056
0.0526378
-0.0520918
0.00164694
0.221412
0.585127
1.01924
1.3384
1.1542
-0.215754
-3.65431
-8.83472
-15.7649
-21.8007
-25.988
-28.1142
-29.6779
-31.6866
-33.9404
-35.9629
-38.7086
-38.5652
-36.7752
-34.5799
-32.2982
-0.479264
-0.66872
-0.660605
-0.416003
0.0965678
0.891901
1.9416
3.12869
4.0836
4.04465
0.735464
-4.68202
-15.7823
-26.2021
-33.4357
-32.1651
-32.3597
-35.098
-37.6372
-39.6455
-41.0645
-41.6953
-39.2618
-36.5561
-33.5522
-1.91606
-1.77754
-1.33819
-0.534543
0.694839
2.39019
4.54516
6.96965
7.6749
8.67039
2.91128
-10.1735
-25.6088
-59.4003
-44.1872
-28.2581
-36.0834
-38.652
-40.3902
-42.2894
-42.3009
-40.4207
-38.5577
-35.4481
-2.53195
-2.35993
-1.87236
-0.972668
0.442927
2.49821
5.34009
9.04064
11.638
15.8653
13.349
1.05011
-39.8149
-41.7187
-42.0902
-40.6268
-37.9816
-35.5331
-2.75028
-2.32584
-1.50892
-0.211031
1.64236
4.11561
7.2141
10.3299
14.5534
15.2011
19.1654
-40.737
-43.0048
-44.1574
-41.842
-38.5638
-35.3873
-40.3973
-42.7113
-45.0789
-46.3676
-44.3276
-40.1003
-35.9102
-41.9614
-45.2844
-46.4713
-42.8465
-38.9013
-41.7367
-42.2375
-40.0377
-37.2954
-3.85459
-5.77664
-8.61625
-12.3499
-16.5271
-20.3495
-23.282
-25.3861
-27.0648
-28.5899
-29.9139
-30.7914
-30.99
-30.3837
-29.1998
-27.7588
-26.2506
-5.47554
-7.2767
-9.65527
-12.5493
-15.6728
-18.601
-21.0389
-22.9714
-24.5545
-25.9077
-27.0075
-27.7256
-27.9206
-27.5497
-26.7233
-25.6305
-24.4242
-23.1853
-6.65662
-8.29653
-10.3022
-12.6073
-15.0401
-17.3698
-19.4176
-21.1312
-22.5536
-23.7309
-24.6489
-25.2394
-25.4306
-25.2023
-24.6173
-23.7948
-22.8466
-21.8451
-7.45195
-8.92951
-10.6425
-12.5348
-14.4976
-16.3929
-18.1056
-19.5823
-20.8228
-21.8377
-22.6146
-23.1176
-23.3099
-23.1833
-22.7773
-22.1669
-21.4299
-20.6249
-7.97308
-9.29521
-10.7728
-12.3604
-13.984
-15.5556
-16.9986
-18.2672
-19.3453
-20.2267
-20.8997
-21.3437
-21.5385
-21.4831
-21.2048
-20.7526
-20.1808
-19.535
-8.29075
-9.47354
-10.7594
-12.1128
-13.482
-14.8075
-16.0359
-17.1296
-18.0679
-18.8384
-19.4301
-19.8292
-20.0253
-20.0214
-19.8373
-19.5061
-19.0658
-18.5511
-8.46916
-9.53053
-10.6602
-11.8304
-13.0035
-14.1378
-15.1945
-16.1435
-16.9643
-17.6434
-18.1705
-18.5358
-18.7343
-18.77
-18.6573
-18.4193
-18.0829
-17.6742
-8.54446
-9.50165
-10.5038
-11.5287
-12.5484
-13.5324
-14.4517
-15.2822
-16.0059
-16.61
-17.0852
-17.4243
-17.6246
-17.6901
-17.6315
-17.4652
-17.2106
-16.8877
-8.54991
-9.41822
-10.3154
-11.2236
-12.1215
-12.9859
-13.7947
-14.5287
-15.1726
-15.7153
-16.1485
-16.4665
-16.668
-16.7561
-16.7388
-16.6282
-16.4386
-16.185
-8.50677
-9.29971
-10.1103
-10.9239
-11.7239
-12.4924
-13.2121
-13.8677
-14.4465
-14.9388
-15.3377
-15.6385
-15.8402
-15.9454
-15.96
-15.8929
-15.7549
-15.5576
-8.43237
-9.16164
-9.90051
-10.6371
-11.3579
-12.049
-12.6966
-13.2884
-13.8139
-14.265
-14.6357
-14.9221
-15.1234
-15.2415
-15.2808
-15.248
-15.1513
-14.9994
-8.33882
-9.0145
-9.69403
-10.3675
-11.0241
-11.6524
-12.2415
-12.7814
-13.2633
-13.6806
-14.028
-14.3023
-14.5028
-14.6305
-14.6891
-14.6833
-14.6195
-14.5047
-8.23552
-8.86628
-9.49669
-10.1185
-10.7226
-11.3
-11.8415
-12.3391
-12.7855
-13.175
-13.5032
-13.7673
-13.9664
-14.1015
-14.175
-14.1907
-14.1534
-14.0686
-8.12938
-8.72268
-9.31253
-9.89192
-10.4534
-10.9893
-11.4922
-11.9553
-12.3727
-12.7394
-13.0517
-13.3071
-13.5049
-13.6454
-13.7305
-13.7632
-13.7472
-13.6868
-8.0257
-8.58795
-9.14445
-9.68922
-10.2159
-10.7182
-11.1898
-11.6249
-12.0186
-12.3667
-12.6659
-12.9141
-13.1103
-13.2549
-13.3491
-13.3953
-13.3963
-13.3556
-7.92843
-8.46518
-8.99448
-9.51114
-10.0097
-10.4848
-10.9311
-11.3437
-11.7183
-12.0512
-12.3397
-12.5818
-12.7766
-12.9242
-13.0255
-13.0822
-13.0968
-13.0721
-7.84062
-8.3567
-8.86407
-9.35817
-9.83426
-10.2876
-10.7137
-11.1083
-11.4675
-11.7883
-12.0681
-12.3052
-12.4987
-12.6484
-12.7552
-12.8203
-12.8456
-12.8336
-7.76448
-8.26416
-8.75419
-9.2305
-9.6889
-10.1252
-10.5355
-10.9159
-11.263
-11.5742
-11.8472
-12.0802
-12.2725
-12.4238
-12.5347
-12.6063
-12.64
-12.6379
-7.70179
-8.18886
-8.66561
-9.12833
-9.57325
-9.9966
-10.3948
-10.7644
-11.1024
-11.4062
-11.6738
-11.9037
-12.095
-12.2475
-12.3615
-12.4378
-12.4779
-12.4834
-7.65363
-8.13155
-8.59867
-9.05158
-9.48676
-9.90074
-10.2902
-10.652
-10.9834
-11.2819
-11.5457
-11.7733
-11.9638
-12.1171
-12.2332
-12.313
-12.3577
-12.3687
-7.62109
-8.09305
-8.55392
-9.00045
-9.42932
-9.83725
-10.2211
-10.5778
-10.9049
-11.1999
-11.4612
-11.6873
-11.8773
-12.031
-12.1486
-12.2306
-12.2782
-12.2928
-7.60429
-8.07331
-8.53112
-8.97453
-9.40032
-9.80529
-10.1864
-10.5407
-10.8656
-11.159
-11.4191
-11.6444
-11.8342
-11.9882
-12.1065
-12.1896
-12.2387
-12.2551
-3.19667
-3.65947
-4.12781
-4.60161
-5.08029
-5.56276
-6.04751
-6.53262
-7.01586
-7.49459
-7.96586
-8.42649
-8.87321
-9.30277
-9.71196
-10.0977
-10.4572
-10.7878
-11.0874
-11.3542
-11.5867
-11.784
-11.9456
-12.0715
-3.20227
-3.66461
-4.13291
-4.60706
-5.08651
-5.57017
-6.05651
-6.54361
-7.02917
-7.51055
-7.98472
-8.44844
-8.89835
-9.33108
-9.74331
-10.1319
-10.4938
-10.8266
-11.1279
-11.396
-11.6293
-11.8269
-11.9884
-12.1136
-3.21205
-3.67345
-4.14163
-4.61652
-5.09757
-5.5837
-6.07333
-6.5645
-7.05483
-7.54158
-8.02164
-8.49161
-8.94795
-9.38707
-9.80547
-10.1998
-10.5669
-10.9041
-11.209
-11.4797
-11.7147
-11.9131
-12.0743
-12.1984
-3.22574
-3.6856
-4.15354
-4.62953
-5.11301
-5.6029
-6.09758
-6.59498
-7.09263
-7.58763
-8.07669
-8.55621
-9.02237
-9.47129
-9.89913
-10.3023
-10.6773
-11.0213
-11.3318
-11.6066
-11.8443
-12.0438
-12.2047
-12.327
-3.24183
-3.69947
-4.16698
-4.64438
-5.13113
-5.62612
-6.12765
-6.63357
-7.14123
-7.64755
-8.14898
-8.64161
-9.12128
-9.58368
-10.0246
-10.4399
-10.8259
-11.1794
-11.4976
-11.7782
-12.0195
-12.2206
-12.3809
-12.5008
-3.25884
-3.71341
-4.18018
-4.65923
-5.15005
-5.65148
-6.16178
-6.67863
-7.19923
-7.7202
-8.2377
-8.74741
-9.24468
-9.7247
-10.1827
-10.614
-11.0145
-11.3804
-11.7087
-11.9968
-12.2429
-12.4459
-12.6054
-12.722
-3.27442
-3.72487
-4.19047
-4.67134
-5.16699
-5.67626
-6.19731
-6.72772
-7.26442
-7.80377
-8.34148
-8.87274
-9.39229
-9.89464
-10.3743
-10.826
-11.2448
-11.6265
-11.9676
-12.2653
-12.5173
-12.7227
-12.8812
-12.9933
-3.28584
-3.73089
-4.1947
-4.67744
-5.17865
-5.69716
-6.23108
-6.77783
-7.33414
-7.89599
-8.45861
-9.01655
-9.56379
-10.094
-10.6007
-11.0778
-11.5196
-11.9211
-12.2781
-12.5875
-12.8469
-13.0551
-13.2119
-13.3184
-3.28951
-3.72765
-4.18886
-4.67338
-5.18079
-5.70995
-6.25892
-6.82504
-7.40479
-7.9938
-8.58671
-9.17729
-9.75857
-10.3231
-10.8633
-11.3718
-11.8419
-12.2678
-12.6445
-12.9683
-13.2365
-13.4479
-13.6024
-13.7015
-3.2812
-3.7106
-4.16817
-4.65419
-5.16831
-5.70943
-6.2757
-6.86438
-7.47182
-8.09323
-8.72263
-9.35285
-9.9757
-10.5823
-11.1636
-11.7108
-12.2158
-12.6715
-13.0723
-13.4136
-13.6924
-13.9073
-14.0586
-14.1482
-3.25572
-3.67428
-4.1269
-4.6139
-5.13501
-5.68927
-6.27499
-6.88958
-7.52929
-8.18903
-8.86211
-9.54024
-10.2137
-10.8719
-11.5036
-12.0982
-12.6458
-13.1381
-13.5682
-13.9307
-14.2222
-14.441
-14.5878
-14.6651
-3.20699
-3.61232
-4.05841
-4.54554
-5.07354
-5.64178
-6.24894
-6.89275
-7.56966
-8.27438
-8.99951
-9.73545
-10.4706
-11.1918
-11.8853
-12.538
-13.1379
-13.6748
-14.1405
-14.5289
-14.8354
-15.0585
-15.199
-15.2604
-3.1279
-3.51741
-3.95505
-4.44098
-4.97524
-5.55769
-6.1877
-6.8638
-7.58297
-8.34002
-9.12696
-9.93262
-10.7429
-11.5414
-12.311
-13.0351
-13.6988
-14.2901
-14.7993
-15.219
-15.5438
-15.7715
-15.9033
-15.9441
-3.0105
-3.38152
-3.80849
-4.29135
-4.83041
-5.42634
-6.07973
-6.79048
-7.55682
-8.37423
-9.23434
-10.1242
-11.0265
-11.9204
-12.7838
-13.5954
-14.3372
-14.9949
-15.5572
-16.0152
-16.3622
-16.595
-16.7151
-16.7289
-2.84559
-3.19541
-3.60904
-4.086
-4.62706
-5.23412
-5.9097
-6.65608
-7.47381
-8.36002
-9.30655
-10.2986
-11.3144
-12.3267
-13.3062
-14.2256
-15.0628
-15.8013
-16.4285
-16.9339
-17.3084
-17.5471
-17.6512
-17.6296
-2.62526
-2.95173
-3.34914
-3.81638
-4.35483
-4.9682
-5.66201
-6.44234
-7.31388
-8.27712
-9.32535
-10.4418
-11.5989
-12.7597
-13.8842
-14.9362
-15.8891
-16.7254
-17.4322
-17.997
-18.4067
-18.6526
-18.7352
-18.6665
-2.33643
-2.6379
-3.0158
-3.46806
-3.99674
-4.6081
-5.31198
-6.12043
-7.04497
-8.09254
-9.26024
-10.5301
-11.866
-13.2162
-14.5232
-15.7381
-16.8303
-17.7843
-18.5893
-19.23
-19.6862
-19.9416
-19.9944
-19.8616
-1.98196
-2.25798
-2.61264
-3.04239
-3.55009
-4.14524
-4.84379
-5.66662
-6.63641
-7.77166
-9.07821
-10.539
-12.1062
-13.7027
-15.2416
-16.6549
-17.9106
-19.0034
-19.9298
-20.6704
-21.1919
-21.4628
-21.4749
-21.254
-1.53759
-1.79122
-2.1203
-2.51911
-2.99106
-3.54953
-4.21853
-5.03176
-6.02922
-7.25004
-8.71785
-10.4215
-12.296
-14.2216
-16.0586
-17.7087
-19.1484
-20.4008
-21.4792
-22.3559
-22.9711
-23.2639
-23.2152
-22.8683
-22.3071
-1.04485
-1.28145
-1.58204
-1.93785
-2.3521
-2.84194
-3.44105
-4.20016
-5.18499
-6.46878
-8.11228
-10.1273
-12.4264
-14.8081
-17.0328
-18.9556
-20.5888
-22.0216
-23.3001
-24.3758
-25.134
-25.4591
-25.3142
-24.7814
-24.003
-0.468442
-0.701756
-0.977448
-1.28155
-1.61484
-1.99669
-2.46934
-3.10355
-4.00313
-5.29982
-7.12873
-9.56575
-12.4974
-15.5557
-18.2857
-20.4714
-22.2424
-23.8435
-25.3804
-26.7546
-27.736
-28.098
-27.7921
-26.9911
-25.9314
0.0340405
-0.206994
-0.457902
-0.697041
-0.917657
-1.1349
-1.39394
-1.78625
-2.46616
-3.65951
-5.64747
-8.66297
-12.5652
-16.7178
-20.1695
-22.5543
-24.3084
-26.0146
-27.8971
-29.7509
-31.0886
-31.4517
-30.8312
-29.5994
-28.1558
0.49635
0.214513
-0.0288635
-0.204486
-0.298187
-0.3128
-0.27609
-0.279175
-0.525227
-1.37191
-3.38645
-7.23825
-12.5217
-18.3242
-22.6823
-25.0144
-26.4702
-28.2042
-30.624
-33.3166
-35.2212
-35.4862
-34.4625
-32.6733
-30.7315
0.402989
0.0895068
-0.12873
-0.211464
-0.129162
0.131749
0.556556
1.10679
1.61844
1.62492
0.232475
-4.26881
-10.8721
-18.6946
-24.7047
-27.1743
-27.9616
-29.2509
-31.9144
-35.3042
-37.6996
-38.1666
-37.8735
-35.8601
-33.6095
-31.3907
-0.694342
-0.885808
-0.860693
-0.571485
0.0279098
0.975142
2.27039
3.87338
5.52096
3.73387
1.53972
-8.16473
-23.6606
-31.1723
-32.5467
-30.5799
-30.4433
-33.7822
-38.4667
-43.8885
-42.4666
-40.2791
-38.2027
-35.9418
-33.4026
-1.92234
-1.76937
-1.29707
-0.417804
0.973186
2.97929
5.65246
6.93892
10.7905
11.3371
1.20662
-31.7724
-53.208
-52.1579
-42.1944
-41.3861
-40.3328
-39.0339
-35.9587
-3.1205
-2.84432
-2.23376
-1.17102
0.468446
2.83587
6.06218
9.328
15.6322
19.0238
6.83457
-41.9572
-42.2292
-40.2023
-38.9397
-36.7081
-3.475
-2.99114
-2.05456
-0.557758
1.59752
4.47154
8.70273
14.6281
19.0846
18.2524
-45.5438
-41.9597
-38.9904
-35.9234
-45.528
-48.3512
-45.3268
-38.9813
-35.056
-44.7417
-46.9817
-41.6894
-37.2323
-42.3112
-40.3299
-38.5271
-35.3915
-38.2712
-37.2736
-35.3183
-32.7668
-4.14668
-6.23374
-9.36321
-13.4026
-17.71
-21.298
-23.7515
-25.4866
-27.0924
-28.8027
-30.4352
-31.5114
-31.5666
-30.6102
-29.0704
-27.4107
-25.8176
-5.74571
-7.65243
-10.1769
-13.2044
-16.3616
-19.1745
-21.4008
-23.1543
-24.6774
-26.081
-27.2818
-28.0611
-28.1965
-27.6522
-26.6327
-25.4044
-24.1344
-22.8816
-6.87194
-8.57557
-10.6553
-13.0213
-15.4669
-17.7416
-19.6861
-21.3015
-22.6733
-23.8501
-24.7925
-25.3949
-25.5488
-25.2298
-24.5369
-23.6282
-22.6312
-21.6127
-7.6115
-9.12533
-10.8762
-12.7969
-14.7631
-16.6285
-18.2865
-19.7068
-20.9098
-21.9103
-22.6854
-23.1816
-23.3454
-23.167
-22.7001
-22.0378
-21.2687
-20.451
-8.09393
-9.43543
-10.9306
-12.5293
-14.1514
-15.7054
-17.1183
-18.3543
-19.4064
-20.272
-20.9347
-21.3649
-21.5375
-21.4511
-21.138
-20.6554
-20.0634
-19.4088
-8.37985
-9.57366
-10.8681
-12.2252
-13.5909
-14.9047
-16.1149
-17.1883
-18.1083
-18.8649
-19.4446
-19.8301
-20.0099
-19.9868
-19.7825
-19.4335
-18.981
-18.4604
-8.53334
-9.60088
-10.7346
-11.9055
-13.0751
-14.2013
-15.2462
-16.1817
-16.9896
-17.6575
-18.174
-18.5284
-18.7153
-18.7387
-18.6137
-18.3649
-18.021
-17.6087
-8.58922
-9.54982
-10.5537
-11.578
-12.5946
-13.5727
-14.4839
-15.3052
-16.0196
-16.6151
-17.0819
-17.4127
-17.6048
-17.662
-17.5956
-17.4227
-17.1637
-16.8385
-8.58004
-9.45019
-10.3479
-11.2551
-12.1502
-13.0101
-13.8132
-14.5406
-15.1779
-15.7141
-16.1409
-16.4528
-16.6484
-16.731
-16.7088
-16.5942
-16.4019
-16.1472
-8.52579
-9.31969
-10.1302
-10.9427
-11.7404
-12.5055
-13.221
-13.8719
-14.4458
-14.9333
-15.3274
-15.6238
-15.8214
-15.9229
-15.9343
-15.8648
-15.7254
-15.5274
-8.44303
-9.17279
-9.91138
-10.6469
-11.3658
-12.0543
-12.6988
-13.2871
-13.8091
-14.2566
-14.6238
-14.907
-15.1055
-15.2211
-15.2584
-15.2242
-15.1266
-14.9747
-8.34319
-9.01909
-9.69826
-10.3708
-11.0259
-11.6522
-12.239
-12.7763
-13.2556
-13.6702
-14.0151
-14.2872
-14.4856
-14.6118
-14.6691
-14.6625
-14.5984
-14.4838
-8.23516
-8.86601
-9.49607
-10.1171
-10.72
-11.2959
-11.8357
-12.3313
-12.7758
-13.1633
-13.4897
-13.7523
-13.9501
-14.0841
-14.1568
-14.1721
-14.1348
-14.0504
-8.12547
-8.7188
-9.30834
-9.8871
-10.4476
-10.9824
-11.484
-11.9457
-12.3616
-12.7269
-13.0379
-13.2923
-13.4892
-13.629
-13.7138
-13.7463
-13.7304
-13.6705
-8.01914
-8.58139
-9.13765
-9.68193
-10.2079
-10.7093
-11.1799
-11.614
-12.0067
-12.3537
-12.6521
-12.8995
-13.0952
-13.2394
-13.3334
-13.3796
-13.3809
-13.3407
-7.91989
-8.45665
-8.98576
-9.50205
-10.0001
-10.4745
-10.9201
-11.3319
-11.7057
-12.0379
-12.3258
-12.5674
-12.7619
-12.9093
-13.0106
-13.0675
-13.0824
-13.0582
-7.83063
-8.34673
-8.85396
-9.34777
-9.82347
-10.2764
-10.7019
-11.0959
-11.4546
-11.7748
-12.0543
-12.291
-12.4843
-12.634
-12.7409
-12.8062
-12.8319
-12.8204
-7.75343
-8.25314
-8.74307
-9.21917
-9.67728
-10.1132
-10.5231
-10.903
-11.2498
-11.5607
-11.8333
-12.0662
-12.2584
-12.4098
-12.5209
-12.5927
-12.6269
-12.6253
-7.68998
-8.17709
-8.65378
-9.11635
-9.56105
-9.98413
-10.382
-10.7513
-11.089
-11.3926
-11.6601
-11.8899
-12.0812
-12.2338
-12.348
-12.4247
-12.4652
-12.4712
-7.6413
-8.11927
-8.58636
-9.03915
-9.47416
-9.88794
-10.2772
-10.6387
-10.9699
-11.2683
-11.5319
-11.7595
-11.9502
-12.1036
-12.22
-12.3001
-12.3452
-12.3567
-7.60843
-8.08045
-8.54131
-8.98775
-9.41649
-9.82424
-10.2079
-10.5645
-10.8914
-11.1863
-11.4475
-11.6736
-11.8638
-12.0176
-12.1355
-12.2179
-12.2659
-12.281
-7.59146
-8.06055
-8.51835
-8.96169
-9.38736
-9.79218
-10.1731
-10.5273
-10.8521
-11.1454
-11.4054
-11.6308
-11.8207
-11.9749
-12.0934
-12.177
-12.2265
-12.2434
-3.17122
-3.63524
-4.10475
-4.57962
-5.05924
-5.54252
-6.02792
-6.51354
-6.99712
-7.47604
-7.94737
-8.40796
-8.85456
-9.28395
-9.69292
-10.0784
-10.4376
-10.768
-11.0674
-11.334
-11.5664
-11.7638
-11.9256
-12.0518
-3.17679
-3.64042
-4.10994
-4.5852
-5.06563
-5.55013
-6.03715
-6.52477
-7.01069
-7.49226
-7.9665
-8.43016
-8.87994
-9.31247
-9.72445
-10.1127
-10.4744
-10.8069
-11.1079
-11.3758
-11.609
-11.8066
-11.9682
-12.0938
-3.18652
-3.64931
-4.11881
-4.59491
-5.07702
-5.56404
-6.05441
-6.54613
-7.03685
-7.52381
-8.00392
-8.47382
-8.92999