/*--------------------------------*- C++ -*----------------------------------*\
  =========                 |
  \\      /  F ield         | OpenFOAM: The Open Source CFD Toolbox
   \\    /   O peration     | Website:  https://openfoam.org
    \\  /    A nd           | Version:  13
     \\/     M anipulation  |
\*---------------------------------------------------------------------------*/
FoamFile
{
    format      ascii;
    class       volScalarField;
    location    "600";
    object      nut;
}
// * * * * * * * * * * * * * * * * * * * * * * * * * * * * * * * * * * * * * //

dimensions      [0 2 -1 0 0 0 0];

internalField   nonuniform List<scalar> 
169916
(
0.0121357
0.0108729
0.00990529
0.00925478
0.00896007
0.00905602
0.00958996
0.0105941
0.0120517
0.013966
0.0164372
0.0181858
0.0181787
0.0181703
0.0101845
0.00890634
0.00791702
0.00724017
0.00699367
0.00729747
0.00786328
0.00877196
0.0100768
0.0118288
0.0140563
0.0164942
0.0164908
0.0164832
0.00853043
0.00725078
0.00625384
0.00559448
0.00545316
0.0051162
0.0056823
0.00653732
0.00777173
0.00939209
0.0113055
0.013494
0.0136233
0.0134005
0.0128926
0.0125606
0.0122847
0.0120155
0.0117359
0.0114499
0.01115
0.0107253
0.00876054
0.00716089
0.0058892
0.00493589
0.00445448
0.00401059
0.00500439
0.00407736
0.00431488
0.00521377
0.00671924
0.00851544
0.00796132
0.00795413
0.00744148
0.0070315
0.00708556
0.00682125
0.00644047
0.00607546
0.0057385
0.005433
0.00516011
0.00773976
0.00608387
0.0047862
0.00401059
0.00356052
0.00365448
0.00258939
0.00260179
0.00305085
0.00396479
0.0055291
0.00533746
0.00524185
0.00515191
0.00344591
0.00332169
0.00320888
0.00310288
0.00300849
0.00292809
0.00286263
0.00281215
0.00277622
0.00713528
0.0053414
0.00395078
0.00307459
0.00301306
0.00228745
0.0022183
0.00192045
0.00190298
0.0022905
0.00264861
0.00219929
0.00217629
0.00220674
0.00209678
0.00210321
0.00211743
0.0021461
0.00219061
0.00224571
0.00231098
0.00238562
0.00246877
0.00255968
0.00704954
0.00507446
0.00364051
0.00293762
0.00195636
0.00166044
0.00201728
0.00135777
0.00173818
0.00146798
0.00150045
0.00136546
0.00198702
0.00195892
0.00204803
0.00226382
0.00234771
0.00244554
0.0025545
0.00267204
0.00279748
0.00293006
0.00306939
0.00321507
0.00335974
0.00759878
0.00533667
0.0036271
0.00288455
0.00164334
0.00112901
0.000871607
0.000766503
0.000373853
0.000382499
0.00100505
0.0015781
0.00211727
0.00239051
0.00264231
0.00283115
0.00301547
0.00320073
0.00338948
0.00358295
0.00378043
0.00398044
0.00418107
0.0043801
0.00895727
0.00630027
0.00423712
0.00448872
0.00200654
0.00142727
0.00204917
0.000791566
0.00154282
0.00195156
0.00220721
0.00160837
0.00305809
0.00360181
0.00403488
0.0038562
0.00408661
0.00431756
0.00454853
0.00477832
0.00500497
0.00522683
0.0054425
0.00565078
0.00585079
0.00604204
0.0113177
0.0082011
0.00568248
0.00429878
0.00428049
0.00294005
0.00287046
0.00278223
0.00255452
0.00206219
0.00204666
0.00239458
0.00271746
0.00312113
0.00413934
0.00481697
0.00520683
0.00549801
0.00570147
0.00585529
0.00600747
0.00614775
0.0062764
0.00639742
0.00651058
0.00660944
0.0147134
0.0109526
0.00812763
0.00632193
0.00505387
0.00518721
0.0058457
0.0037688
0.0031921
0.0028801
0.00284562
0.00301466
0.00413895
0.00498061
0.00586397
0.00679659
0.00743953
0.007781
0.0079156
0.00791676
0.00784581
0.00775088
0.00765806
0.00757398
0.00749375
0.0074069
0.0187641
0.0139608
0.0105425
0.0083658
0.00697722
0.00615743
0.00538598
0.00495523
0.00479438
0.00506307
0.00551857
0.00613573
0.00663937
0.00786251
0.00943061
0.0107927
0.0116325
0.0119505
0.0118684
0.0115327
0.011086
0.0106204
0.0101711
0.00974739
0.0093532
0.00898915
0.0192316
0.0164924
0.0123952
0.00981377
0.00817225
0.007073
0.00631551
0.00594879
0.00596553
0.00648654
0.00746264
0.00878069
0.0103941
0.0123047
0.0140336
0.0151661
0.0156593
0.0156277
0.0151908
0.0145073
0.0137338
0.0129723
0.0122637
0.0116217
0.0110543
0.0105622
0.0191929
0.0181152
0.0135981
0.0108239
0.00909587
0.00798661
0.00731089
0.00702686
0.00722042
0.00797792
0.00945948
0.0116238
0.0139695
0.0160661
0.0176289
0.0184924
0.0185332
0.0183023
0.0174047
0.0163359
0.0152901
0.0143566
0.0135588
0.0128961
0.0123537
0.0119268
0.0191816
0.0184808
0.0140704
0.0113848
0.00974262
0.00876137
0.00827803
0.00824309
0.00869395
0.00968796
0.0114798
0.0142535
0.0175647
0.0188678
0.0188948
0.0189207
0.0189488
0.0189814
0.0188463
0.0174948
0.0163586
0.0154482
0.0147458
0.0142239
0.0138635
0.0191929
0.0176433
0.0138122
0.0114741
0.0100993
0.00938214
0.00917613
0.00943181
0.0101155
0.0112295
0.0130586
0.0159516
0.0190867
0.0191106
0.0191314
0.019154
0.0191807
0.0192123
0.0187669
0.0177439
0.016951
0.0163728
0.0159977
0.0158305
0.0158748
0.019222
0.0161102
0.013012
0.0111526
0.0101508
0.00977789
0.00991593
0.0104976
0.0114378
0.0126867
0.0144747
0.0171648
0.0192178
0.0192379
0.0192559
0.0192757
0.0192985
0.0193245
0.0193527
0.0193818
0.0190963
0.0189506
0.018997
0.0192804
0.0194899
0.0144412
0.0119671
0.01056
0.00994575
0.00994294
0.0104364
0.0113118
0.0124281
0.0137117
0.0153349
0.0175733
0.019256
0.019274
0.0192884
0.019302
0.0193158
0.0193294
0.019342
0.0193527
0.0193615
0.0193684
0.0193735
0.0193771
0.0193801
0.0109811
0.00988882
0.00958716
0.00991716
0.0107282
0.011842
0.0130667
0.0143446
0.0157943
0.0176505
0.0192199
0.0192327
0.0192386
0.0192406
0.0192398
0.0192365
0.0192304
0.0192218
0.0192114
0.0192
0.0191891
0.0191794
0.0191719
0.010267
0.00936023
0.0092292
0.00978504
0.0108309
0.012128
0.0134383
0.0147027
0.0160322
0.0176808
0.0191492
0.0191545
0.0191503
0.0191403
0.0191263
0.0191093
0.0190897
0.019068
0.0190452
0.0190228
0.019002
0.0189836
0.0189688
0.00907776
0.00902433
0.00968798
0.0108567
0.0122579
0.0136291
0.0148893
0.0161432
0.0176655
0.019092
0.0190916
0.0190805
0.0190627
0.0190406
0.0190155
0.0189879
0.0189585
0.0189286
0.0188995
0.0188723
0.0188481
0.0188279
0.00908274
0.00903236
0.00969921
0.0108701
0.0122721
0.013645
0.0149099
0.016172
0.0177063
0.0190942
0.0190936
0.0190824
0.0190645
0.0190424
0.0190171
0.0189895
0.0189601
0.01893
0.0189007
0.0188734
0.018849
0.0188286
0.00937135
0.00924803
0.00981303
0.0108674
0.0121724
0.0134951
0.0147822
0.0161472
0.0178478
0.0191529
0.0191571
0.019152
0.0191411
0.0191264
0.0191087
0.0190885
0.0190664
0.0190433
0.0190206
0.0189996
0.0189811
0.0189661
0.0189558
0.00990184
0.00960822
0.00994803
0.0107696
0.0118958
0.01314
0.0144509
0.0159506
0.0178911
0.0192234
0.0192346
0.0192389
0.0192394
0.0192372
0.0192325
0.0192254
0.0192159
0.0192047
0.019193
0.0191818
0.0191719
0.0191642
0.0191599
0.0105702
0.00996318
0.00996912
0.0104749
0.011369
0.0125148
0.0138405
0.0155091
0.0178301
0.0192599
0.0192762
0.0192888
0.0193007
0.0193127
0.0193245
0.0193355
0.019345
0.0193526
0.0193588
0.0193635
0.019367
0.0193699
0.0193732
0.0111578
0.0101628
0.0097979
0.0099489
0.0105536
0.0115302
0.0128295
0.0146826
0.0174676
0.0192236
0.0192422
0.0192588
0.0192771
0.0192985
0.0193231
0.0193502
0.0193784
0.0192118
0.0190353
0.0190513
0.0193084
0.0194875
0.0194977
0.0101031
0.00939255
0.00919777
0.00947206
0.010186
0.0113441
0.0132275
0.0161919
0.0190937
0.0191163
0.0191362
0.0191578
0.0191835
0.0192143
0.0189572
0.0178978
0.0170796
0.0164831
0.0160971
0.015917
0.0159486
0.016219
0.0167815
0.00974262
0.00876902
0.00829542
0.00826938
0.0087316
0.00974271
0.0115411
0.0142977
0.0175571
0.0188755
0.0189028
0.0189289
0.018957
0.0189895
0.0188426
0.0175001
0.016367
0.0154588
0.0147568
0.0142376
0.0138745
0.0136932
0.0137263
0.00909691
0.00799819
0.00733343
0.00703563
0.00723511
0.00798479
0.0094114
0.0114581
0.0136443
0.0155812
0.0170393
0.0179212
0.018168
0.0178093
0.0170245
0.0160595
0.0150935
0.0142162
0.0134561
0.0128154
0.0122866
0.0118638
0.0115592
0.00817297
0.0070899
0.00636196
0.00585949
0.00589855
0.0064228
0.00734041
0.00853071
0.00996003
0.0116451
0.0131905
0.0142417
0.0147457
0.0147798
0.0144387
0.0138621
0.0131912
0.0125148
0.011871
0.0112746
0.0107363
0.0102625
0.00983816
0.00478183
0.00503865
0.00545061
0.0059886
0.0064072
0.00748135
0.00882738
0.00997883
0.0107103
0.0110178
0.0109807
0.010711
0.010331
0.00992195
0.00951845
0.0091323
0.00877034
0.00843532
0.00812529
0.00388142
0.00372511
0.0037975
0.00399671
0.00414473
0.00496045
0.00575369
0.00657095
0.00712981
0.00743411
0.0075625
0.00757492
0.00752338
0.00744865
0.00737363
0.00730525
0.00724063
0.00717183
0.00708701
0.00246252
0.00236
0.00253472
0.00312711
0.00368665
0.00428869
0.00498022
0.0053794
0.00565477
0.0058939
0.00611568
0.00628798
0.00640797
0.00648887
0.00660709
0.00671486
0.00680712
0.00687152
0.00209674
0.00230179
0.00309681
0.00348177
0.00398531
0.00390023
0.00415329
0.00440312
0.00464903
0.00489014
0.00512481
0.00535158
0.00556933
0.00577719
0.00597459
0.00616134
0.00633762
0.00129502
0.00213067
0.00251085
0.00288995
0.00261353
0.0028149
0.00301477
0.00321272
0.00341245
0.00361534
0.00382089
0.00402753
0.00423335
0.00443649
0.0046351
0.00482783
0.00138296
0.00205412
0.00220446
0.00227604
0.00235356
0.00244936
0.00255877
0.00267907
0.00280771
0.0029436
0.00308596
0.00323427
0.00338783
0.00353926
0.00368962
0.00206835
0.00207733
0.00209188
0.00212117
0.00216672
0.00222435
0.00229249
0.00237021
0.00245651
0.00255048
0.00265135
0.00275739
0.00286755
0.0119457
0.0106859
0.00974158
0.00916179
0.00901348
0.00929117
0.0100056
0.0111343
0.0125741
0.0142035
0.0159745
0.0179131
0.0180677
0.0180733
0.00989328
0.00860764
0.00763623
0.00712701
0.00723902
0.00763079
0.00830677
0.00931734
0.0106209
0.0120633
0.013459
0.014659
0.0157035
0.016067
0.00811994
0.00681873
0.00587472
0.00561698
0.0051496
0.00543561
0.00612791
0.00717695
0.00847987
0.00972985
0.0106658
0.011044
0.0107603
0.0107745
0.010902
0.0111326
0.0113826
0.0115864
0.0117553
0.0118746
0.0119297
0.0119133
0.00824391
0.00660852
0.00529685
0.00457984
0.00408478
0.00514137
0.00371262
0.00393509
0.00471016
0.00607049
0.00782051
0.00785607
0.00790866
0.00636994
0.00647796
0.00662204
0.00670311
0.00672838
0.00666455
0.00654933
0.00640262
0.00624028
0.00607383
0.00708345
0.00536397
0.00413597
0.00337576
0.00356168
0.00242096
0.00255125
0.00292377
0.00361638
0.00331648
0.00323944
0.00327433
0.00337658
0.0035334
0.00295288
0.00305529
0.00311616
0.00313948
0.00314578
0.00313789
0.00312782
0.00312001
0.00311713
0.00634094
0.00445352
0.00320827
0.00303399
0.00195013
0.00170579
0.00169577
0.00156287
0.00147625
0.00150783
0.00152591
0.00158707
0.00173002
0.00188027
0.00199371
0.00209381
0.00214514
0.00220288
0.00226895
0.00234262
0.00242471
0.00251762
0.00262161
0.00273573
0.00605848
0.00431592
0.00355737
0.0020124
0.0014402
0.00144225
0.00035713
0.000947508
0.00186956
0.00210582
0.00219092
0.00222782
0.00238008
0.00255005
0.00273826
0.00294081
0.00315443
0.00337522
0.0035991
0.0038213
0.00635952
0.00441623
0.00362433
0.00185404
0.00145168
0.000778657
0.00153244
0.00171061
0.001917
0.00250816
0.00280947
0.00312453
0.003446
0.00377214
0.00409507
0.00440842
0.00469465
0.00486569
0.00757471
0.00489913
0.00338217
0.0028251
0.00157003
0.00113311
0.000447136
0.000927191
0.00166959
0.00202721
0.0027496
0.00312913
0.0035252
0.00391711
0.00424953
0.0044792
0.00472002
0.00496333
0.00519972
0.00541855
0.00560973
0.00978443
0.00674815
0.00476533
0.00388427
0.00259425
0.00232855
0.00300463
0.00237325
0.00185158
0.0018015
0.00180612
0.00141405
0.00173193
0.00233291
0.00293422
0.00354529
0.0035168
0.00364816
0.00384645
0.00407505
0.00430813
0.00453502
0.0047526
0.00495799
0.00514739
0.0053143
0.0131405
0.00954817
0.00692481
0.00555355
0.00538814
0.00469227
0.00426492
0.00396827
0.00328212
0.00304856
0.00297794
0.00292076
0.00322652
0.00392028
0.00578702
0.00651189
0.00628718
0.00579089
0.00545315
0.0052312
0.005246
0.00527858
0.00532538
0.00537958
0.00543263
0.00547517
0.0174531
0.0128916
0.00972656
0.00785608
0.00665563
0.00606492
0.00543319
0.00453944
0.00417288
0.00443341
0.00509218
0.00616334
0.00730164
0.00899707
0.0106553
0.0117771
0.0116817
0.0112829
0.0104334
0.00969604
0.00902859
0.00839921
0.00782965
0.00738827
0.00700707
0.00667875
0.0192484
0.0159152
0.01199
0.0095681
0.00808386
0.00699786
0.00620995
0.00545986
0.00546909
0.00616998
0.00746183
0.00969137
0.0117105
0.0144062
0.0166613
0.0165913
0.0165061
0.0163954
0.0161001
0.0148018
0.0135803
0.0124718
0.0114721
0.0105786
0.00979793
0.00911831
0.0192085
0.0178058
0.0133925
0.0106757
0.00897135
0.00779992
0.00706367
0.00679992
0.00713659
0.00812215
0.0100805
0.0127856
0.0159208
0.0181317
0.0181185
0.0180948
0.0180591
0.0180077
0.0179354
0.0171279
0.0157025
0.0144842
0.0134497
0.0125681
0.011807
0.0111696
0.0192017
0.0180714
0.0138204
0.0112051
0.00957549
0.00855045
0.00809323
0.00808334
0.00854206
0.00953231
0.0116175
0.0150992
0.0187343
0.0187413
0.0187401
0.0187335
0.0187219
0.0187034
0.0186739
0.0177298
0.0163899
0.0153336
0.0145053
0.0138521
0.0132821
0.0192217
0.016943
0.0133706
0.011172
0.00987151
0.00918938
0.00900352
0.00932439
0.010013
0.0111686
0.013212
0.0167611
0.0190276
0.0190338
0.0190351
0.019034
0.01903
0.0190204
0.0182799
0.0171981
0.0162981
0.0156261
0.0151716
0.0149229
0.0148059
0.0192609
0.0151711
0.0123677
0.0106991
0.00983305
0.00957384
0.00982108
0.0105631
0.0116123
0.0127891
0.0144893
0.017518
0.0191366
0.0191365
0.0191327
0.0191275
0.0191205
0.0191097
0.0188867
0.0183263
0.0179256
0.0176999
0.0177048
0.0179537
0.0182785
0.0133757
0.0111805
0.00997483
0.0095392
0.00972458
0.01042
0.0115247
0.0127858
0.0140014
0.0154609
0.0177364
0.0190697
0.0190553
0.0190353
0.0190121
0.0189854
0.018954
0.0189168
0.0188734
0.0188247
0.0187707
0.0187127
0.0186534
0.0185959
0.0101197
0.0092137
0.00910766
0.00969135
0.0108011
0.0122159
0.0135794
0.014792
0.0160272
0.0177327
0.0188179
0.018775
0.0187248
0.01867
0.0186114
0.0185494
0.0184847
0.0184185
0.0183523
0.0182878
0.018227
0.0181724
0.0181267
0.00936289
0.00861605
0.00869442
0.0095285
0.0109424
0.0126231
0.0141078
0.0153126
0.0164038
0.0178148
0.0185059
0.0184342
0.0183569
0.0182773
0.0181962
0.0181144
0.0180329
0.0179535
0.0178778
0.017807
0.0177425
0.0176866
0.0176416
0.00831418
0.00846126
0.00940166
0.010964
0.0127969
0.0144193
0.0156322
0.0166019
0.0177945
0.0182517
0.0181531
0.0180522
0.0179517
0.0178519
0.0177535
0.0176575
0.0175658
0.0174802
0.0174009
0.0173289
0.0172668
0.0172173
0.00831961
0.00847054
0.00941512
0.0109791
0.0128094
0.014431
0.0156482
0.016626
0.0178287
0.0182582
0.0181598
0.0180591
0.0179588
0.0178592
0.0177609
0.0176649
0.0175732
0.0174871
0.0174072
0.0173345
0.0172716
0.0172214
0.00862716
0.00871606
0.00956287
0.0109865
0.0126717
0.0141688
0.0154001
0.0165331
0.0180033
0.018511
0.0184382
0.0183601
0.0182797
0.0181979
0.0181156
0.0180338
0.0179541
0.0178783
0.0178075
0.0177429
0.017687
0.017642
0.0176098
0.00922534
0.00912955
0.00972478
0.010845
0.0122676
0.01365
0.0149009
0.0162005
0.0180105
0.0188207
0.0187759
0.0187241
0.0186678
0.0186079
0.0185449
0.0184794
0.0184128
0.0183469
0.0182825
0.0182221
0.0181681
0.0181229
0.0180887
0.0099828
0.00955481
0.0097481
0.0104557
0.0115797
0.0128807
0.014148
0.0156539
0.0180257
0.01907
0.0190529
0.0190302
0.0190041
0.0189747
0.018941
0.0189021
0.0188578
0.0188089
0.018756
0.0186995
0.0186424
0.0185871
0.0185367
0.0107022
0.00984342
0.00958959
0.00984896
0.0106183
0.0117182
0.0129651
0.0147436
0.0178945
0.0191436
0.0191421
0.0191369
0.0191303
0.0191219
0.0191102
0.0190917
0.0184821
0.0180336
0.0177656
0.0177347
0.0179504
0.0182598
0.0186247
0.00987029
0.00919245
0.00901681
0.00936004
0.0100901
0.0112939
0.0134036
0.0170769
0.0190353
0.0190408
0.019042
0.0190415
0.0190387
0.0190316
0.0185755
0.0174529
0.0165096
0.0158015
0.01532
0.0150469
0.0149046
0.0149595
0.0152877
0.00957105
0.00855418
0.00810746
0.00809986
0.00858005
0.00959679
0.0116868
0.0151441
0.0187416
0.0187496
0.0187492
0.0187437
0.0187336
0.0187173
0.0186912
0.0179234
0.0165529
0.0154749
0.0146273
0.0139635
0.0133733
0.0129442
0.0127016
0.00897041
0.00781607
0.00708123
0.0067368
0.00708169
0.00808437
0.00998704
0.0125352
0.0154413
0.0181199
0.0181093
0.018087
0.0180523
0.0180016
0.0179305
0.0170314
0.0156653
0.0144774
0.013451
0.0125626
0.0117862
0.0111285
0.010574
0.00807892
0.00702478
0.00616237
0.00566661
0.00534563
0.00606573
0.00730681
0.00943937
0.0112215
0.0135523
0.0159779
0.0165269
0.0164319
0.0161426
0.0150312
0.0138883
0.0128071
0.0118077
0.0108887
0.0100524
0.00931127
0.00866011
0.00809022
0.00417669
0.00439317
0.00498956
0.00588191
0.00682726
0.00830754
0.00941327
0.0101329
0.0100525
0.0097289
0.00907403
0.00848806
0.00797025
0.00750559
0.00709212
0.00672885
0.0064163
0.00614826
0.00591311
0.00365952
0.00357873
0.00378662
0.00384153
0.00410555
0.00494183
0.0055579
0.00626857
0.00600187
0.00560975
0.00532783
0.00511237
0.00505355
0.00508096
0.0051235
0.00517523
0.00522859
0.00527526
0.00530624
0.00278326
0.00268377
0.00259298
0.0024443
0.00294313
0.00384885
0.00387247
0.0036756
0.00380808
0.00400036
0.00421279
0.00442219
0.0046215
0.00481062
0.00498852
0.0051524
0.00529716
0.0054135
0.00174734
0.00183667
0.00187914
0.00157602
0.00224666
0.0025611
0.00284087
0.00322005
0.0036097
0.00399055
0.00434857
0.0045972
0.00481482
0.00503202
0.00524197
0.00543531
0.00560287
0.0057339
0.000702929
0.00146567
0.00172883
0.00209218
0.0025893
0.00288647
0.00319316
0.0035033
0.0038177
0.00412819
0.00442878
0.00471543
0.00496937
0.00511482
0.00523488
0.0014471
0.00191299
0.00199575
0.00228996
0.0024443
0.00261062
0.0027964
0.00299808
0.00321123
0.0034309
0.00365358
0.00387593
0.00409444
0.00430696
0.00185791
0.0020653
0.00212381
0.00218935
0.00226135
0.00233768
0.00242375
0.00252153
0.00263076
0.00275011
0.00287788
0.0030123
0.00315206
0.0132278
0.0116602
0.0104217
0.00956181
0.00919866
0.00929933
0.00984812
0.0108387
0.0121499
0.0135046
0.0146379
0.0154653
0.0160396
0.0166456
0.0174203
0.0110569
0.00945102
0.00817672
0.00737768
0.00732603
0.00760436
0.00816634
0.00907299
0.0103485
0.0116908
0.0126312
0.0128367
0.012614
0.012566
0.0128412
0.00913914
0.00750495
0.00624655
0.00578725
0.00520611
0.00533281
0.00598725
0.00705705
0.00853669
0.0100629
0.0108244
0.010516
0.00980311
0.00912202
0.00869563
0.00911769
0.00958028
0.0100011
0.0103846
0.0107368
0.0110508
0.0113133
0.0115181
0.00749208
0.00583033
0.0047935
0.00411629
0.00476163
0.00360297
0.00385269
0.00472791
0.00633436
0.00711262
0.00692075
0.00693328
0.00706687
0.00660864
0.00528681
0.00577522
0.00623462
0.00668655
0.00681745
0.0069131
0.00698196
0.00702715
0.00705171
0.00618696
0.00452138
0.0034956
0.00349192
0.0022503
0.00241248
0.00279467
0.00320073
0.00282622
0.00269527
0.00269456
0.0027532
0.00289788
0.00313852
0.00339535
0.00318917
0.00334843
0.00347785
0.00357956
0.00365869
0.00372119
0.00377202
0.00381514
0.00530992
0.00377293
0.00331354
0.00186683
0.00140211
0.00132167
0.00142895
0.000691714
0.00154392
0.00153856
0.00168013
0.0019426
0.00191066
0.00197684
0.00217134
0.0022992
0.00231174
0.00240031
0.00248146
0.0025574
0.00263392
0.00271198
0.00279268
0.00287653
0.00483795
0.00338551
0.00255086
0.00146721
0.00107841
0.000385284
0.00163217
0.00196471
0.00219166
0.00236722
0.00253414
0.00269603
0.00285605
0.00301499
0.00317191
0.00332527
0.00347165
0.00495443
0.00349019
0.00242262
0.0013979
0.000735337
0.00132835
0.00249565
0.00413692
0.00425126
0.00446927
0.00470615
0.00492527
0.00512096
0.00529489
0.00544801
0.00558109
0.00596558
0.00409245
0.00308441
0.00153558
0.00099106
0.000561039
0.00230769
0.00329147
0.00445356
0.0048958
0.00525283
0.00553956
0.00577623
0.00597491
0.00614485
0.00629407
0.0064312
0.00656182
0.00813022
0.00509014
0.00367234
0.00276761
0.00214397
0.00198607
0.00161747
0.000975976
0.000858553
0.00180854
0.00121647
0.00163115
0.00162605
0.00165403
0.00271247
0.00334669
0.00381221
0.00429555
0.00474274
0.00513079
0.00546067
0.00573821
0.00597432
0.00618015
0.0063684
0.00654576
0.0112854
0.00801201
0.00567396
0.00480072
0.0043752
0.00511743
0.00585772
0.00377081
0.00268771
0.00324847
0.00352856
0.00324554
0.00312783
0.00351184
0.00376289
0.00397864
0.00422765
0.00449451
0.00476585
0.00503164
0.00528397
0.0054218
0.00555987
0.0056933
0.00581842
0.00592888
0.0156453
0.0114681
0.0086673
0.00729423
0.00658575
0.00624329
0.00553034
0.00468348
0.00308251
0.00331197
0.00426905
0.00690885
0.00704043
0.00680661
0.00668287
0.006598
0.00650627
0.00641124
0.00609102
0.00542436
0.00495113
0.00461489
0.00451601
0.0045521
0.00460605
0.00467057
0.0192827
0.0148984
0.0112897
0.00912107
0.00793421
0.00685605
0.00605292
0.00549884
0.00416961
0.00441371
0.00602448
0.00944376
0.0131356
0.0127455
0.0124489
0.0121694
0.0118517
0.0114724
0.0110478
0.0105911
0.00987925
0.00877125
0.00780303
0.0069686
0.00627281
0.019243
0.0170068
0.0128654
0.0102978
0.00864693
0.00746084
0.00637389
0.00573995
0.00591997
0.00669922
0.00870448
0.012652
0.0167362
0.0164311
0.0161206
0.0157851
0.0154082
0.0149752
0.0144868
0.0139498
0.0125214
0.011356
0.0103512
0.0094518
0.00871484
0.0192472
0.0170057
0.0131375
0.010707
0.00912163
0.00819119
0.00735415
0.00736585
0.00796893
0.00875801
0.0106472
0.0150568
0.0181816
0.0180179
0.0178242
0.0175926
0.0173105
0.0169659
0.0165528
0.0154463
0.0141327
0.0130964
0.0122343
0.0115887
0.0109247
0.0192841
0.0154227
0.0123473
0.0104291
0.00928283
0.00873179
0.00863666
0.00934379
0.0102355
0.0106154
0.0123926
0.0168956
0.0187159
0.0186043
0.0184527
0.0182523
0.0179912
0.0171072
0.0156885
0.0148686
0.0141182
0.0135514
0.0131484
0.0128636
0.0125185
0.0168632
0.0133428
0.0110389
0.00969683
0.00908339
0.00912895
0.00969809
0.0109037
0.0121203
0.013036
0.0145211
0.0182184
0.0187106
0.0186156
0.0184874
0.0183273
0.0181326
0.0174053
0.0166695
0.016293
0.015886
0.0156145
0.0155483
0.0155901
0.0153221
0.0114664
0.00967476
0.00879079
0.00864787
0.00928964
0.0105261
0.0122606
0.0137917
0.0147929
0.0158058
0.0182464
0.018247
0.0181159
0.0179715
0.0178107
0.0176285
0.0174218
0.0171925
0.0169498
0.0167001
0.0164427
0.0161806
0.0159321
0.0156989
0.00854359
0.00790483
0.00810081
0.00910918
0.0108571
0.0131086
0.0150093
0.0160474
0.0166976
0.0174116
0.0172189
0.0170215
0.0168249
0.0166285
0.0164315
0.0162337
0.0160379
0.0158513
0.0156771
0.015512
0.015358
0.0152235
0.0151126
0.00779484
0.00726926
0.00763563
0.00891107
0.0110993
0.0138295
0.0159937
0.0169489
0.0166934
0.0164307
0.0161717
0.0159291
0.0157114
0.0155097
0.0153191
0.015138
0.0149675
0.0148149
0.0146807
0.0145582
0.0144485
0.0143579
0.0142898
0.0069614
0.00736764
0.00873815
0.0111276
0.0140886
0.0163679
0.0163055
0.015952
0.0155893
0.0152475
0.014948
0.0146971
0.0144749
0.0142722
0.0140849
0.0139137
0.0137652
0.013638
0.0135231
0.0134215
0.0133404
0.0132829
0.00696739
0.007379
0.00875515
0.011143
0.0140881
0.0163543
0.0163193
0.0159668
0.0156049
0.0152635
0.0149641
0.0147131
0.0144908
0.0142878
0.0140999
0.0139278
0.0137776
0.0136482
0.0135313
0.0134277
0.0133446
0.0132854
0.00728042
0.0076642
0.00895957
0.0111663
0.0138911
0.0160621
0.0169502
0.0166923
0.0164272
0.016166
0.0159219
0.0157031
0.0155006
0.0153094
0.0151277
0.0149575
0.0148057
0.0146724
0.0145508
0.0144419
0.0143527
0.0142858
0.0142385
0.00791481
0.00812611
0.00915048
0.0109116
0.0131522
0.0150686
0.0161413
0.0169153
0.0174055
0.0172105
0.0170113
0.0168137
0.0166166
0.0164197
0.0162229
0.0160287
0.0158454
0.0156742
0.0155126
0.0153622
0.0152315
0.0151244
0.0150379
0.00879488
0.00865981
0.00930945
0.0105586
0.0123072
0.0138986
0.0147861
0.0159231
0.0183389
0.0182162
0.0180786
0.0179287
0.0177639
0.0175806
0.0173763
0.0171531
0.0169199
0.0166829
0.0164401
0.0161948
0.0159605
0.0157385
0.0155329
0.00969836
0.00909203
0.00913791
0.00971752
0.0109528
0.0122474
0.0132614
0.014813
0.0186451
0.0187268
0.0186318
0.0185032
0.0183426
0.0181484
0.0176297
0.0168212
0.0164161
0.0159695
0.0156647
0.0155724
0.0156092
0.0153371
0.0149661
0.00927501
0.00872246
0.0086356
0.00936591
0.010322
0.0107975
0.0126522
0.017307
0.0187382
0.0186394
0.018504
0.0183234
0.0180867
0.0175605
0.0160235
0.0151856
0.0144022
0.0138223
0.0134082
0.0131187
0.0127693
0.0126369
0.0127861
0.00911199
0.00819046
0.00736329
0.00733136
0.00797174
0.00883736
0.010769
0.0151411
0.018206
0.0180562
0.0178775
0.0176627
0.0174004
0.0170783
0.0166882
0.015997
0.0145825
0.0134783
0.0125723
0.0118993
0.0111946
0.0106949
0.0103279
0.00864225
0.00749064
0.00632543
0.00584454
0.00583417
0.00664925
0.00865843
0.0124824
0.016725
0.0164234
0.0161159
0.0157836
0.0154113
0.0149859
0.0145065
0.0139144
0.0124808
0.0113197
0.0103201
0.0094446
0.00869757
0.0080667
0.00754696
0.00789973
0.00689003
0.0055174
0.00472818
0.00642018
0.00648491
0.00771311
0.00890682
0.0131332
0.0126977
0.0123558
0.0120382
0.01169
0.0112974
0.0108706
0.0100258
0.00889101
0.00794344
0.00711554
0.00639341
0.00577226
0.00540641
0.00515442
0.00360438
0.00389399
0.00534015
0.00637669
0.00667703
0.00638386
0.00622517
0.00611908
0.00604352
0.00562734
0.00498072
0.00457836
0.00428915
0.00430886
0.0043518
0.00441318
0.0044875
0.00456884
0.00464543
0.00281229
0.00316551
0.00358203
0.00405278
0.00455246
0.00471336
0.00362146
0.00380185
0.00402121
0.00426471
0.00451952
0.00477475
0.00502395
0.00526163
0.00546915
0.00559581
0.0057164
0.00582533
0.00591484
0.00302521
0.00277284
0.00277628
0.00249683
0.00293
0.00314704
0.00359953
0.00398475
0.00438486
0.00475917
0.00508991
0.00537606
0.00562435
0.00584257
0.00603803
0.00621911
0.00639276
0.00656454
0.000558873
0.00117066
0.00152249
0.00136325
0.00269086
0.0033389
0.00469616
0.00507295
0.00538195
0.0056317
0.0058421
0.00602356
0.00618266
0.00632718
0.00646141
0.00658999
0.00671808
0.00222334
0.00439064
0.00476801
0.00478652
0.0049337
0.00510931
0.00527142
0.00541803
0.00555135
0.00567238
0.00578157
0.00587945
0.00596663
0.00136731
0.00200073
0.00234138
0.00253321
0.00271877
0.0028981
0.00307419
0.00324774
0.00341746
0.00357877
0.00372985
0.00387127
0.00400448
0.00165135
0.00188787
0.00225064
0.00234424
0.00242995
0.00250955
0.0025892
0.00267008
0.00275342
0.00283981
0.00292952
0.00302264
0.00311935
0.0129457
0.0113699
0.0101827
0.0095365
0.00939833
0.00976309
0.0106111
0.0119521
0.0134564
0.0146304
0.015178
0.0150733
0.0145906
0.0142947
0.0144772
0.0106254
0.00899115
0.00783291
0.00748327
0.00757649
0.00800642
0.00875288
0.0101559
0.0119276
0.0132852
0.0137268
0.0130135
0.0117985
0.0110423
0.0109879
0.00856608
0.00690169
0.006096
0.00529934
0.00514307
0.00560859
0.00658849
0.00892722
0.0112481
0.0109127
0.0109036
0.0102683
0.00855872
0.00778386
0.00762156
0.00780824
0.0084001
0.00894508
0.00942068
0.00983937
0.0102024
0.010506
0.0107497
0.00681014
0.00528315
0.0043702
0.00476347
0.00344498
0.00355604
0.00446809
0.0058106
0.00555065
0.00545252
0.00543731
0.00550522
0.00574333
0.00559823
0.0052598
0.00507301
0.00605764
0.00657733
0.00703518
0.0073437
0.00750687
0.00765202
0.00778188
0.00544582
0.00412026
0.00389514
0.00231509
0.00217875
0.00238264
0.00304389
0.00296983
0.00281731
0.00275701
0.00277072
0.00285717
0.0030194
0.00322077
0.00336204
0.0039997
0.0039349
0.00413434
0.00430666
0.00445723
0.00459156
0.00471373
0.00482657
0.00442559
0.00308027
0.00244143
0.00150138
0.00109767
0.00151858
0.0018506
0.00207346
0.0014132
0.00139051
0.00123012
0.00167845
0.00193052
0.00213254
0.00199408
0.00252251
0.00255397
0.00270686
0.00284458
0.00296976
0.00308791
0.00320282
0.00331664
0.0034307
0.00445441
0.0033516
0.00169424
0.00119857
0.000193142
0.000985464
0.00167169
0.0020482
0.00234055
0.00250909
0.00265882
0.0027978
0.00293124
0.00306147
0.00319011
0.00331806
0.00464871
0.00330073
0.00162997
0.00102586
0.000269528
0.00251475
0.00326224
0.00358648
0.00359066
0.00363053
0.00368854
0.00375838
0.00383683
0.0039223
0.00401431
0.00547825
0.00389909
0.00198459
0.00116426
0.000497559
0.00186423
0.00425637
0.00531968
0.00537484
0.00525949
0.00527857
0.0053355
0.00535049
0.00533879
0.00531044
0.0052814
0.0052561
0.006524
0.00455181
0.00324125
0.00206006
0.00174006
0.00170855
0.000669378
0.00138079
0.00121237
0.00124612
0.00104046
0.00135351
0.00174556
0.00177886
0.00282909
0.00330678
0.00437916
0.00485611
0.00517378
0.0053649
0.00549809
0.00560688
0.00570782
0.00580981
0.00591577
0.00602517
0.00975521
0.00663702
0.00510066
0.00401468
0.00389539
0.00656629
0.00543385
0.0025953
0.00168678
0.00243139
0.00197368
0.00230756
0.00257632
0.00283473
0.00306722
0.00340021
0.00374179
0.00408904
0.0044195
0.00472054
0.00498369
0.00521771
0.00542013
0.00559046
0.00574361
0.00589339
0.0139582
0.0101419
0.00778326
0.00677556
0.0067708
0.00699369
0.00553217
0.00276769
0.00174083
0.00201001
0.00265249
0.0025717
0.00255508
0.00266935
0.0028103
0.00297705
0.00315481
0.00333383
0.00351103
0.00368691
0.00386263
0.0040402
0.00422119
0.00441097
0.00460568
0.00480605
0.0185909
0.0136301
0.0104375
0.00874472
0.00786635
0.00727218
0.00571891
0.00327699
0.00264005
0.00334187
0.00791922
0.00709664
0.00496437
0.00487241
0.00484187
0.00483883
0.00483987
0.00483743
0.00483188
0.00482701
0.00480344
0.00476678
0.00472589
0.00468775
0.00465854
0.0193053
0.0156251
0.0119674
0.00972977
0.00829534
0.00747418
0.00619308
0.0043093
0.00433827
0.00479477
0.0063459
0.0124181
0.00966703
0.00899274
0.00848819
0.00807378
0.00770651
0.00736649
0.00705019
0.00675731
0.00648934
0.00625081
0.00594394
0.00584866
0.00567513
0.0193276
0.0152109
0.011946
0.00986479
0.0084919
0.00793482
0.00775164
0.00573919
0.00630314
0.00643801
0.00694087
0.011546
0.0142112
0.013349
0.012569
0.0118289
0.0111071
0.0104047
0.00973514
0.00911576
0.00855031
0.00805285
0.00750474
0.00689941
0.00626912
0.0168356
0.0132547
0.0108044
0.00927662
0.00850514
0.00771821
0.00741409
0.00842119
0.0109382
0.0111835
0.00905907
0.0123038
0.0165582
0.015596
0.0146211
0.0136484
0.0126808
0.0117341
0.0108722
0.00980044
0.00893288
0.0083982
0.00804103
0.00767737
0.00732774
0.0137875
0.0110694
0.00927465
0.00832343
0.00823025
0.0079949
0.00886715
0.0112243
0.0141761
0.013143
0.0128062
0.0166997
0.0170746
0.0163649
0.0155649
0.0142819
0.0129552
0.0123025
0.0119464
0.0116504
0.0112823
0.0106195
0.0100091
0.00948809
0.00905301
0.00923681
0.00783151
0.00740649
0.00777823
0.0080606
0.00992993
0.0133034
0.0168867
0.0160286
0.015195
0.0162096
0.0158613
0.015482
0.0150575
0.0145726
0.0140157
0.0133999
0.0127653
0.0121692
0.0116318
0.0111384
0.0106874
0.0103174
0.00670336
0.00649426
0.0072155
0.0087621
0.0118022
0.0156123