/*--------------------------------*- C++ -*----------------------------------*\
  =========                 |
  \\      /  F ield         | OpenFOAM: The Open Source CFD Toolbox
   \\    /   O peration     | Website:  https://openfoam.org
    \\  /    A nd           | Version:  13
     \\/     M anipulation  |
\*---------------------------------------------------------------------------*/
FoamFile
{
    format      ascii;
    class       volScalarField;
    location    "600";
    object      omega;
}
// * * * * * * * * * * * * * * * * * * * * * * * * * * * * * * * * * * * * * //

dimensions      [0 0 -1 0 0 0 0];

internalField   nonuniform List<scalar> 
169916
(
18.8082
18.9968
19.2707
19.637
20.0789
20.5487
20.9907
21.3602
21.6339
21.8083
21.8938
21.9094
21.8735
21.8079
19.0689
19.4168
19.9425
20.6812
21.5935
22.5469
23.458
24.2459
24.8409
25.2198
25.4075
25.456
25.4226
25.3753
19.4077
20.0115
20.9836
22.4204
24.2344
26.1326
28.1128
30.0005
31.4701
32.3791
32.7977
32.9712
33.0503
33.1585
33.4593
34.0092
34.8369
35.9622
37.3881
39.0948
41.0454
43.1947
19.2621
19.823
20.8244
22.5435
25.1638
28.6507
29.6275
33.6459
38.8296
43.4042
46.443
48.0218
63.3241
63.1978
64.7511
67.3552
70.8333
75.0097
79.6054
84.3469
88.9583
93.19
96.9107
19.4626
20.2718
21.8524
24.7049
29.2913
31.3831
40.8458
57.611
77.079
93.3725
102.386
105.717
107.139
109.143
164.226
170.731
176.327
179.748
180.976
180.17
177.665
173.863
169.149
19.5781
20.6339
22.9166
27.4762
30.0882
43.0091
67.0675
131.466
162.737
229.415
265.319
320.661
318.237
326.127
382.904
345.638
311.723
282.247
257.136
235.321
216.498
200.27
186.249
174.087
19.5328
20.6936
23.3516
25.5775
36.6829
68.8678
105.499
272.344
462.197
676.412
733.858
824.185
663.998
512.408
431.311
345.999
297.974
262.06
234.015
211.499
193.122
177.904
165.173
154.444
144.984
19.307
20.3366
22.9736
25.3206
40.5648
94.086
186.086
782.525
1041.67
960.266
758.914
634.728
429.861
332.068
254.855
224.344
200.103
180.78
165.573
153.41
143.483
135.244
128.306
122.392
18.9754
19.6712
21.573
22.5261
31.4455
59.8129
93.9507
241.723
332.038
347.188
339.415
266.815
218.649
176.699
153.026
161.154
149.601
140.176
132.449
126
120.53
115.846
111.808
108.313
105.288
102.684
18.658
19.0056
19.9309
21.7662
22.7071
27.5642
36.6793
49.0429
59.0413
70.5587
80.307
83.5559
84.2258
82.7547
84.7068
84.1949
83.2232
82.202
81.2514
80.3948
79.6284
78.9606
78.3999
77.9522
77.6244
77.4303
18.4254
18.5632
18.9256
19.6384
20.8821
22.2676
23.0001
25.7895
29.2269
33.1206
36.953
40.0054
40.5991
41.2405
41.8157
41.9795
42.0137
42.0828
42.2619
42.5844
43.0577
43.6723
44.4138
45.2703
46.2376
47.3224
18.277
18.3171
18.475
18.8039
19.364
20.1542
21.1771
22.4017
23.7036
24.8608
25.7671
26.4199
26.9029
27.1339
27.1836
27.1491
27.0962
27.0658
27.0829
27.1653
27.3258
27.5742
27.9201
28.3738
28.9453
29.6452
18.1884
18.1863
18.2658
18.4596
18.795
19.289
19.9421
20.6929
21.4256
22.0031
22.3879
22.6039
22.6929
22.694
22.6475
22.5815
22.5149
22.4604
22.4285
22.4269
22.4627
22.5419
22.6704
22.8544
23.1004
23.4148
18.1416
18.1224
18.1693
18.3035
18.539
18.8782
19.3064
19.7792
20.2159
20.5397
20.7294
20.8066
20.8143
20.7837
20.7334
20.6754
20.6184
20.5704
20.5379
20.5263
20.5392
20.5796
20.6498
20.7517
20.8871
21.0525
18.1266
18.1051
18.1425
18.2528
18.4398
18.6951
18.9938
19.2958
19.555
19.7381
19.8362
19.8617
19.8419
19.7996
19.7481
19.6957
19.6488
19.6123
19.5896
19.5826
19.5925
19.62
19.6649
19.7266
19.8024
18.1378
18.1252
18.1691
18.2773
18.4448
18.6532
18.8746
19.0783
19.2414
19.3533
19.4104
19.4175
19.3915
19.3501
19.3054
19.2641
19.2304
19.2066
19.1937
19.1916
19.2002
19.2188
19.2463
19.2805
19.3195
18.1706
18.1768
18.2408
18.3639
18.532
18.7192
18.8969
19.0439
19.1521
19.2225
19.256
19.2553
19.2303
19.1941
19.1567
19.1234
19.0961
19.0755
19.0609
19.0513
19.0455
19.043
19.0427
19.0435
19.0452
18.2523
18.3483
18.5005
18.6843
18.8673
19.0232
19.141
19.2224
19.2737
19.2981
19.298
19.2788
19.2493
19.2174
19.1869
19.1592
19.1336
19.1091
19.0845
19.0593
19.0337
19.0083
18.9826
18.957
18.4738
18.6648
18.8751
19.065
19.213
19.3176
19.3878
19.4322
19.4554
19.4597
19.4473
19.4228
19.3919
19.3584
19.3238
19.288
19.2507
19.2115
19.1707
19.1299
19.0897
19.0501
19.0112
18.5856
18.8139
19.0532
19.2563
19.405
19.5055
19.5721
19.6151
19.6403
19.6492
19.6418
19.6191
19.5856
19.5461
19.5034
19.4588
19.4123
19.3641
19.3151
19.2666
19.2197
19.1745
19.1311
18.9046
19.1626
19.3751
19.5262
19.6263
19.6921
19.7358
19.7635
19.7768
19.774
19.7542
19.7212
19.6806
19.6361
19.5893
19.5406
19.4904
19.4395
19.3895
19.3416
19.296
19.2526
18.9038
19.1611
19.3728
19.5232
19.6227
19.6882
19.7314
19.7587
19.7715
19.7682
19.748
19.7146
19.6736
19.6288
19.5817
19.5328
19.4824
19.4314
19.3815
19.3338
19.2883
19.2452
18.8125
19.0505
19.2519
19.399
19.4982
19.5636
19.6054
19.6292
19.6367
19.6279
19.6039
19.5693
19.5288
19.4852
19.4397
19.3926
19.3439
19.2944
19.2458
19.1988
19.1536
19.1103
19.0694
18.6636
18.8727
19.061
19.2072
19.3103
19.3789
19.4215
19.443
19.4453
19.4309
19.4045
19.3719
19.3367
19.3004
19.2631
19.2246
19.1844
19.1429
19.1014
19.0608
19.021
18.9822
18.9448
18.4999
18.6829
18.8645
19.0187
19.1345
19.2138
19.2626
19.2849
19.2827
19.2616
19.2304
19.1967
19.1646
19.1351
19.1079
19.082
19.0562
19.03
19.0037
18.9775
18.9514
18.9253
18.8996
18.3637
18.5313
18.7174
18.8934
19.0378
19.1428
19.2096
19.2397
19.2363
19.2091
19.1711
19.1321
19.0972
19.0683
19.0462
19.0302
19.0194
19.0126
19.0091
19.008
19.008
19.0089
19.01
18.4447
18.6524
18.8722
19.0731
19.2324
19.34
19.3932
19.3974
19.3693
19.3262
19.2799
19.2371
19.2017
19.1761
19.1614
19.1573
19.1637
19.1799
19.2048
19.2364
19.2726
19.3131
19.3555
18.4396
18.6942
18.9908
19.29
19.5459
19.7252
19.8211
19.8456
19.8256
19.7833
19.7318
19.6793
19.632
19.5947
19.5711
19.563
19.5715
19.5974
19.6404
19.6999
19.7737
19.8601
19.9631
18.5382
18.8757
19.3001
19.7719
20.2073
20.5311
20.7242
20.807
20.8205
20.7949
20.7488
20.694
20.6397
20.5938
20.563
20.5527
20.5667
20.6078
20.6785
20.781
20.917
21.0846
21.2761
18.7933
19.2841
19.9274
20.7013
21.4513
22.0415
22.4412
22.6748
22.7811
22.7961
22.7598
22.702
22.6425
22.5954
22.5711
22.5786
22.6251
22.7172
22.8614
23.0647
23.3347
23.6793
24.1065
23.6969
24.861
25.7912
26.4911
27.033
27.3206
27.4195
27.4282
27.4165
27.4291
27.4944
27.6334
27.861
28.1888
28.6274
29.1881
29.8826
30.7228
31.7232
26.1853
28.4897
30.5216
32.019
40.2032
40.8147
41.4423
41.7108
41.8716
42.0736
42.3846
42.8347
43.43
44.1604
45.0107
45.969
47.0305
48.2003
49.4971
45.8314
51.7204
55.5595
56.5134
55.7453
81.3183
80.4384
79.3389
78.3333
77.4463
76.6573
75.9711
75.4004
74.9535
74.6118
74.3803
74.2695
74.2996
106.296
157.815
136.97
123.02
113.667
158.378
146.305
136.551
128.611
122.02
116.449
111.688
107.59
104.045
100.973
98.3247
96.0711
352.2
384.706
294.462
232.046
259.279
227.19
201.998
181.773
165.701
152.848
142.385
133.724
126.453
120.277
114.982
110.415
841.475
577.276
459.575
351.412
301.64
264.662
235.872
212.855
194.036
178.423
165.33
154.27
144.868
136.517
129.129
385.7
347.68
312.975
282.95
257.438
235.446
216.482
200.138
186.014
173.756
163.064
153.641
145.265
18.8325
19.0401
19.3446
19.7491
20.2188
20.7047
21.1548
21.5287
21.8055
21.9818
22.0664
22.0777
22.0458
22.0007
19.1281
19.5331
20.1617
21.0265
22.0201
23.0897
24.1364
25.0336
25.6914
26.083
26.2385
26.2437
26.2208
26.1679
19.5431
20.3071
21.5829
23.4063
25.519
28.1754
31.0308
33.5246
35.2544
36.1091
36.2691
36.2696
36.223
36.1341
36.0492
35.9947
35.988
36.0506
36.367
36.8737
37.5482
38.3699
19.3846
20.1125
21.5209
24.0253
27.9727
29.1889
35.2625
44.1765
53.0824
59.3175
62.196
62.3432
61.6582
76.9261
75.3364
74.0749
73.192
72.9379
73.6378
74.8474
76.3757
78.0765
79.8469
19.6746
20.8362
23.2736
28.1235
30.6271
45.6294
78.3006
124.704
156.026
168.033
166.624
159.645
151.282
142.522
173.424
167.115
163.299
161.7
160.739
159.551
158.056
156.14
153.799
19.894
21.56
25.3441
27.9579
45.3906
100.903
193.388
455.035
523.068
508.142
496.92
428.209
364.127
360.571
328.224
343.826
316.013
291.14
268.927
249.028
231.298
215.699
202.03
190.046
19.9283
21.7384
23.2243
32.9529
71.7908
172.523
1013.8
961.984
667.719
509.319
430.589
358.874
316.645
284.265
258.792
238.142
221.076
206.743
194.545
184.046
19.6931
21.4032
22.8969
34.4984
64.1439
363.73
660.051
505.436
412.637
342.877
306.02
277.636
254.708
235.598
219.576
206.053
194.579
184.814
19.2397
20.5413
23.9132
27.1506
54.6608
160.632
1014.7
895.887
573.427
412.82
320.011
281.946
253.882
232.204
214.88
200.741
189.032
179.209
170.881
163.777
157.705
18.8023
19.4053
20.9191
22.1486
28.584
45.8897
87.3493
230.623
306.467
312.583
302.137
283.891
220.963
204.531
192.82
177.846
171.732
165.996
160.644
155.641
150.996
146.74
142.884
139.428
136.371
133.722
18.4942
18.7185
19.2907
20.3524
21.0692
23.6111
27.8843
33.7763
40.6874
47.4952
54.4591
61.2136
66.6409
69.8469
75.1673
76.1479
76.8582
77.8058
79.1018
80.7169
82.4337
84.1736
85.8822
87.5366
89.151
90.7708
18.309
18.3766
18.588
19.0081
19.6667
20.5363
21.7072
23.4167
25.6931
27.902
29.6973
31.6657
33.0227
33.7832
34.2727
34.6239
34.9935
35.4877
36.1855
37.1255
38.3354
39.8302
41.6206
43.6972
46.0458
48.6486
18.2062
18.2126
18.3074
18.5252
18.8886
19.4252
20.1511
21.1104
22.1256
22.9267
23.4371
23.8069
24.0439
24.1645
24.223
24.2663
24.3359
24.4642
24.6768
24.9926
25.4321
26.012
26.7521
27.6733
28.7951
30.1337
18.1571
18.1419
18.1955
18.3402
18.5927
18.966
19.4548
20.0122
20.5328
20.9222
21.1377
21.2331
21.2648
21.2611
21.2431
21.2289
21.2354
21.2777
21.3701
21.5233
21.7454
22.0477
22.4397
22.9299
23.5253
24.212
18.1472
18.1311
18.1764
18.2983
18.5028
18.7865
19.1204
19.4623
19.7624
19.984
20.1005
20.132
20.1171
20.0826
20.0451
20.0167
20.0076
20.0268
20.0823
20.179
20.3218
20.5155
20.763
21.0645
21.4152
18.1686
18.1664
18.2251
18.3528
18.5441
18.7798
19.0308
19.2598
19.4467
19.5792
19.6498
19.6633
19.6433
19.6124
19.5861
19.5738
19.5826
19.6171
19.6805
19.7756
19.9051
20.0705
20.2706
20.4993
20.7521
18.2156
18.2405
18.3311
18.4876
18.6922
18.9139
19.1198
19.2858
19.4094
19.4989
19.5543
19.5726
19.5642
19.548
19.5378
19.5407
19.5599
19.5963
19.6496
19.7191
19.8048
19.9067
20.0226
20.1487
20.2814
18.3454
18.4852
18.6917
18.9317
19.1626
19.3546
19.4983
19.6035
19.6832
19.7416
19.7771
19.7927
19.8002
19.8101
19.8272
19.8528
19.8861
19.9245
19.9652
20.0071
20.0513
20.0973
20.1419
20.1843
18.6649
18.9392
19.2344
19.4956
19.6993
19.8507
19.9681
20.0653
20.1481
20.2151
20.2636
20.2975
20.3243
20.3489
20.3731
20.3963
20.4167
20.4317
20.4422
20.4505
20.4565
20.4577
20.4534
18.8288
19.1723
19.5298
19.8334
20.0627
20.2337
20.3724
20.494
20.6048
20.7031
20.7811
20.8342
20.8672
20.8892
20.9053
20.9169
20.9233
20.9225
20.9156
20.9059
20.8936
20.8765
20.8534
19.3133
19.7132
20.0496
20.3029
20.4941
20.6529
20.7972
20.9361
21.0682
21.1803
21.2606
21.3116
21.3454
21.3702
21.3882
21.399
21.4007
21.3946
21.3847
21.3717
21.3526
21.3259
19.3119
19.7105
20.0453
20.2971
20.4872
20.6452
20.7885
20.9264
21.0574
21.1683
21.2477
21.2979
21.3309
21.3549
21.3722
21.3825
21.3838
21.3781
21.3687
21.3563
21.338
21.3121
19.1704
19.5257
19.8264
20.0533
20.2225
20.3596
20.4796
20.5885
20.6846
20.7606
20.8119
20.8432
20.8636
20.8782
20.8884
20.8936
20.8918
20.8842
20.8738
20.8611
20.8438
20.8207
20.7927
18.938
19.2316
19.4906
19.6922
19.8419
19.9579
20.0533
20.1339
20.1981
20.2436
20.2748
20.2988
20.3207
20.342
20.3624
20.3804
20.3933
20.4018
20.4085
20.4132
20.4136
20.4087
20.3994
18.6915
18.9306
19.1602
19.3507
19.4927
19.5956
19.6729
19.7294
19.7632
19.7773
19.7835
19.7919
19.8073
19.8309
19.8619
19.898
19.9362
19.9757
20.017
20.0601
20.102
20.1416
20.1789
18.488
18.6921
18.9129
19.1173
19.2806
19.4003
19.485
19.5357
19.5503
19.5391
19.5206
19.5084
19.5089
19.5254
19.5592
19.6101
19.677
19.7603
19.8601
19.9741
20.0984
20.2288
20.3603
18.5449
18.7805
19.0304
19.2568
19.4392
19.5662
19.6319
19.6415
19.618
19.5837
19.5536
19.5368
19.5397
19.5675
19.6231
19.7088
19.8272
19.98
20.1662
20.3806
20.619
20.8742
21.1301
18.5036
18.7867
19.1187
19.4591
19.7561
19.9735
20.0872
20.1174
20.1015
20.0656
20.026
19.9944
19.9806
19.9937
20.0414
20.1292
20.2611
20.4418
20.6744
20.9591
21.2921
21.6789
22.1183
18.5924
18.9631
19.4499
20.0186
20.5482
20.941
21.1611
21.2618
21.2977
21.2967
21.2802
21.2669
21.2734
21.3146
21.404
21.5528
21.7694
22.0649
22.4494
22.9319
23.5208
24.2045
24.9955
18.8874
19.4191
20.1628
21.1102
22.1664
22.9765
23.4972
23.8794
24.1366
24.2806
24.3653
24.4394
24.5427
24.7079
24.9574
25.3147
25.8006
26.4365
27.2447
28.2494
29.4743
30.9389
32.6241
25.6396
27.8676
29.7504
32.0002
33.6553
34.6677
35.3707
35.9184
36.4922
37.2015
38.1362
39.3463
40.8573
42.6731
44.7858
47.1863
49.8586
52.7857
55.9611
29.7539
33.7458
37.5227
41.025
43.9745
45.8144
73.8879
75.5587
76.921
78.3984
80.1034
82.0404
84.0595
86.0381
87.9306
89.7219
91.4333
93.1131
94.8348
85.4727
95.7504
103.031
107.838
109.836
109.4
166.202
161.217
156.589
152.263
148.194
144.393
140.889
137.7
134.827
132.272
130.046
128.175
553.429
567.916
462.073
351.193
348.375
297.361
317.609
277.695
248.705
226.688
209.376
195.451
184.054
174.582
166.612
159.852
154.098
149.218
1190.36
668.31
499.105
393.23
345.835
306.388
276.256
252.295
232.58
216.246
202.608
191.144
181.46
173.259
166.315
671.086
544.442
446.528
363.219
319.575
285.771
259.44
238.327
221.006
206.513
194.233
183.72
174.638
166.741
451.814
340.084
313.581
289.54
267.657
247.676
229.929
214.358
200.738
188.808
178.324
169.069
160.867
18.724
18.8722
19.111
19.4564
19.8884
20.3683
20.8449
21.2696
21.6121
21.8622
22.0207
22.095
22.1006
22.0983
22.0756
18.933
19.2316
19.7337
20.486
21.4193
22.5197
23.6786
24.7463
25.6027
26.197
26.5213
26.6162
26.6716
26.676
26.6402
19.2224
19.7924
20.8201
22.4105
24.4663
27.4177
30.7401
33.7848
36.1046
37.5218
38.0361
38.118
38.0751
37.9184
37.7859
37.6086
37.4248
37.2578
37.1138
37.003
36.9316
36.9029
36.9189
19.6109
20.6616
22.6584
26.1143
27.5722
34.9991
45.8348
56.2482
64.094
68.5943
69.8687
69.1056
67.4468
65.6224
78.1491
75.8164
73.7774
72.0592
70.6733
69.593
68.7785
68.1891
67.7899
20.0781
21.8801
25.5596
27.9244
44.3713
87.85
132.71
177
198.534
201.669
194.049
183.411
169.64
155.449
143.84
159.86
152.141
145.894
140.784
136.532
132.914
129.754
126.922
20.5164
23.1419
25.0995
39.2047
101.315
269.612
515.869
1315.08
663.24
750.653
712.995
555.582
441.431
343.424
327.879
290.162
289.583
265.153
245.2
228.345
213.975
201.5
190.553
180.865
20.7323
23.9291
27.4163
53.3715
152.437
893.831
642.569
477.545
373.374
326.062
291.496
264.809
243.545
226.162
211.652
199.344
188.697
20.475
23.4367
27.3734
57.5574
319.836
656.292
465.733
323.427
268.848
235.221
211.404
193.987
180.466
169.534
160.363
152.419
19.7627
21.7944
24.0581
45.8003
129.598
782.362
559.378
418.288
303.103
268.579
243.096
223.493
207.933
195.161
184.397
175.143
167.089
159.983
19.0615
20.2528
23.0004
26.2117
47.121
141.819
355.548
662.942
809.186
469.332
664.812
474.673
425.253
408.911
360.483
294.564
270.542
250.342
232.829
217.535
204.289
192.827
182.92
174.346
166.965
160.568
18.6152
18.9957
19.9608
21.6913
23.4009
29.1038
38.3954
50.0989
68.2847
92.3385
116.023
143.27
166.551
179.933
185.001
178.442
172.909
168.341
164.462
161.017
157.775
154.652
151.615
148.69
145.948
143.469
18.3658
18.4831
18.7906
19.3644
20.1528
21.1587
22.5835
23.9087
29.5079
38.6791
47.1895
62.7063
66.7289
68.2639
68.9727
69.4324
70.2307
71.7493
73.9863
76.8412
80.1882
83.9015
87.7535
91.5573
95.238
98.7551
18.2401
18.2639
18.3885
18.6533
19.0639
19.6675
20.499
21.0923
23.1585
25.769
27.7642
30.7295
32.083
32.8912
33.4673
34.0785
34.8561
35.8871
37.2802
39.0551
41.2044
43.7084
46.5685
49.7883
53.3576
18.1896
18.185
18.2558
18.4266
18.7191
19.1543
19.7897
20.6436
21.5676
22.4153
22.9396
23.2154
23.6723
24.0621
24.4469
24.8945
25.4605
26.1833
27.1018
28.2501
29.6361
31.2645
33.1312
35.2344
37.5496
18.1921
18.1907
18.2585
18.4127
18.6641
19.0029
19.4418
19.9097
20.3303
20.6952
20.9334
21.0382
21.1776
21.3375
21.5296
21.7863
22.1414
22.625
23.2615
24.0639
25.0475
26.2087
27.5331
28.9876
30.5442
18.2366
18.2617
18.3604
18.542
18.7991
19.1059
19.4324
19.714
19.9472
20.151
20.287
20.3447
20.418
20.5231
20.6875
20.9375
21.2974
21.7818
22.402
23.1636
24.0469
25.0572
26.1713
27.344
28.5602
18.3167
18.3908
18.5536
18.8039
19.1114
19.4251
19.7008
19.9094
20.081
20.2381
20.3755
20.4719
20.5416
20.6412
20.798
21.0171
21.3038
21.6621
22.0953
22.6033
23.1915
23.8619
24.5972
25.3626
26.1323
18.5696
18.833
19.1976
19.6038
19.9723
20.2653
20.4838
20.6753
20.8618
21.0463
21.2126
21.3578
21.5076
21.6821
21.8912
22.141
22.4322
22.7575
23.101
23.4589
23.836
24.2271
24.6019
24.9625
19.17
19.7047
20.2789
20.7915
21.2089
21.5499
21.851
22.1404
22.4326
22.7125
22.9631
23.1909
23.4102
23.6308
23.8541
24.0791
24.2976
24.4946
24.6728
24.8439
25.0035
25.1346
25.236
19.4847
20.2058
20.9834
21.6722
22.2337
22.6973
23.1193
23.5282
23.9417
24.3475
24.7076
24.9934
25.2178
25.4121
25.5889
25.7508
25.8926
25.9995
26.0785
26.1472
26.2016
26.2269
26.2226
20.5157
21.4457
22.2831
22.9768
23.5586
24.1061
24.6654
25.2627
25.871
26.4105
26.8231
27.1216
27.3616
27.5701
27.7541
27.9071
28.0137
28.0874
28.1474
28.1876
28.1894
28.1513
20.5123
21.438
22.2701
22.959
23.5377
24.0826
24.6391
25.2331
25.8381
26.375
26.7855
27.0823
27.3206
27.5278
27.711
27.8639
27.9731
28.0501
28.1135
28.1573
28.1628
28.1281
20.2022
20.9746
21.6579
22.2155
22.678
23.1
23.5087
23.9213
24.3258
24.6849
24.9696
25.1919
25.3838
25.558
25.7176
25.8561
25.9596
26.0354
26.101
26.1528
26.1753
26.1686
26.1423
19.7036
20.2748
20.7839
21.1987
21.5392
21.8405
22.1297
22.4201
22.6961
22.9424
23.1655
23.3791
23.5929
23.8085
24.025
24.235
24.4223
24.5917
24.754
24.9055
25.0289
25.1235
25.1991
19.1985
19.6041
19.9715
20.2633
20.4817
20.6726
20.8648
21.0568
21.2283
21.377
21.5289
21.7035
21.9096
22.1523
22.4325
22.7426
23.0667
23.4014
23.7525
24.1144
24.4637
24.8039
25.1301
18.8056
19.1123
19.425
19.6992
19.9044
20.0697
20.2185
20.3473
20.4374
20.5021
20.598
20.7507
20.9646
21.2438
21.5947
22.0207
22.5215
23.1041
23.7732
24.5089
25.2753
26.0438
26.7867
18.8019
19.1098
19.4362
19.7159
19.9434
20.1376
20.2641
20.314
20.3732
20.4591
20.599
20.8186
21.1381
21.5775
22.1495
22.8583
23.6833
24.6331
25.6888
26.8098
27.9829
29.1609
30.2401
18.6666
19.0054
19.4434
19.9163
20.337
20.6921
20.9189
21.0157
21.1405
21.2791
21.4448
21.6694
21.9845
22.4212
23.0044
23.7499
24.6704
25.7628
27.0181
28.4037
29.8907
31.5076
33.1864
18.7198
19.151
19.8009
20.6635
21.6064
22.4497
22.9777
23.2552
23.7101
24.0937
24.4678
24.8997
25.4451
26.1459
27.0411
28.1592
29.508
31.0977
32.9282
35.0005
37.3008
39.724
42.386
19.0662
19.6648
20.6475
22.1745
22.5127
23.5672
24.5031
30.6036
32.0662
33.0176
33.748
34.5112
35.4232
36.5935
38.1223
40.0366
42.3315
45.0072
48.0621
51.503
55.329
59.4498
63.6109
26.1174
30.6435
34.6362
65.3855
70.9138
73.5725
74.9435
75.8031
77.0067
78.8261
81.3185
84.416
87.9843
91.6239
95.2398
98.7706
102.148
105.36
108.44
41.3413
56.9572
73.8219
93.2387
108.96
117.03
182.71
177.41
172.83
168.937
165.524
162.346
159.265
156.19
153.122
150.128
147.292
144.696
142.409
151.841
201.325
204.532
236.661
244.588
241.831
288.091
265.237
245.977
229.266
214.658
201.933
190.899
181.329
173.005
165.761
159.442
153.909
1843.76
1006.82
597.442
541.14
496.189
393.453
308.126
272.008
245.469
225.027
208.86
195.687
184.664
175.287
167.16
160.014
153.666
607.364
438.244
323.879
271.39
238.579
214.99
197.369
183.5
172.192
162.689
154.487
147.247
140.737
654.56
488.598
373.522
325.496
290.069
262.519
240.562
222.674
207.814
195.165
184.248
174.765
166.49
522.573
411.894
291.569
267.178
247.33
230.558
216.258
203.833
192.916
183.24
174.608
166.877
159.952
18.7436
18.9132
19.1832
19.5507
19.9949
20.4682
20.9154
21.3014
21.6071
21.8291
21.9682
22.034
22.0637
22.0893
22.0961
18.9888
19.3508
19.9393
20.7361
21.7748
22.9549
24.1073
25.1899
26.0258
26.5688
26.8154
26.8756
26.9387
26.9696
26.9631
19.3535
20.0895
21.29
23.0156
25.8617
29.3244
32.6289
36.8451
39.3742
40.5573
40.4947
40.5733
40.5093
40.2842
39.9424
39.548
39.1458
38.7611
38.4104
38.0967
37.8186
37.5751
37.3649
19.8839
21.2884
23.6821
24.9123
31.6867
43.1071
54.5745
86.6256
89.4772
89.2197
87.4067
85.4528
80.9576
75.6122
70.7402
73.402
71.0202
68.8826
66.9989
65.3545
63.9207
62.6695
61.577
20.5783
23.048
24.5745
35.0172
72.1038
122.877
173.671
194.704
200.957
197.861
188.81
176.838
162.647
147.375
133.555
123.43
134.306
127.725
121.957
116.903
112.469
108.555
105.076
21.3048
25.3384
29.6361
59.5872
179.408
487.955
550.846
514.352
433.324
416.402
446.302
549.049
547.629
396.184
340.648
281.091
271.654
241.837
219.283
201.383
186.752
174.531
164.139
155.182
21.3642
23.0755
36.742
71.2538
715.335
940.733
502.25
385.045
310.414
275.829
249.239
228.055
210.771
196.371
184.173
173.7
21.0353
22.7972
37.5814
88.1826
1003.12
452.437
375.32
289.201
259.97
238.551
221.584
207.597
195.726
185.424
176.338
20.2007
21.3943
31.0667
87.5797
739.669
340.972
279.017
259.647
233.131
212.756
200.954
192.322
184.09
176.488
169.547
163.218
157.36
19.4645
21.0571
22.9493
36.2587
88.7476
353.426
1009.74
441.924
490.62
612.891
667.439
733.778
553.234
523.723
386.052
324.705
274.58
253.979
236.18
220.237
206.444
194.518
184.125
175.004
167.016
159.977
18.7694
19.3915
20.7118
22.2349
28.2065
39.6381
53.8119
70.5606
112.315
249.519
409.805
445.047
425.439
387.05
346.076
282.228
263.071
246.813
232.685
220.131
208.698
198.459
189.165
180.662
173.051
166.319
18.4384
18.623
19.06
19.7542
20.6286
21.7251
22.8967
28.4989
52.0083
130.049
211.445
225.149
249.539
233.164
217.189
203.733
192.882
184.337
177.74
172.618
168.487
165.034
162.054
159.413
156.828
154.286
18.2883
18.3394
18.5085
18.8232
19.2715
19.8508
20.4005
23.1533
30.2423
46.1567
57.1754
63.4751
91.8746
92.5671
92.3876
92.3518
92.918
94.2082
96.1701
98.6898
101.267
103.814
106.331
108.826
111.275
18.2421
18.2591
18.3637
18.579
18.9207
19.375
19.7408
21.2778
23.9138
27.6072
31.1136
32.8335
43.147
46.3847
49.155
51.679
54.2984
57.1372
60.2175
63.5276
67.0352
70.6552
74.3323
77.9407
81.3588
18.2684
18.299
18.4155
18.6372
18.97
19.3652
19.5672
20.4285
21.4526
22.6717
24.1634
25.0937
28.5692
30.4018
32.2783
34.2976
36.6111
39.2778
42.3036
45.6166
49.218
52.972
56.7676
60.3885
63.8906
18.3553
18.4389
18.6262
18.9279
19.3121
19.7771
20.317
20.7993
21.2012
21.282
21.6841
22.0651
24.1849
25.7709
27.5798
29.7174
32.2511
35.1686
38.4542
41.7899
45.1563
48.5879
52.0074
55.3251
58.5971
18.4989
18.6798
19.0098
19.4822
20.0094
20.5438
20.9952
21.3073
21.7496
22.2084
22.7102
23.1313
23.5332
24.6324
26.038
27.4941
29.0974
30.9245
33.0357
35.4361
38.1519
41.1281
44.2377
47.2151
49.9699
19.0213
19.5879
20.3377
21.1463
21.8785
22.4357
22.8503
23.4543
24.0428
24.6505
25.2408
25.7987
26.4359
27.2379
28.2631
29.5557
31.1157
32.8734
34.676
36.4601
38.2543
40.0283
41.5825
20.3395
21.5818
22.9773
24.3142
25.4778
26.4485
27.2768
28.0482
28.8809
29.7395
30.5389
31.3181
32.1207
32.9667
33.8477
34.7746
35.7019
36.4958
37.2203
37.9541
38.644
39.1851
21.0741
22.9018
25.0587
27.0751
28.7763
30.1872
31.4056
32.5041
33.6441
34.8231
35.8775
36.6669
37.262
37.7776
38.2429
38.6729
39.0433
39.2627
39.4165
39.5817
39.7107
39.7413
23.7255
26.5036
29.161
31.406
33.3062
35.1813
37.1634
39.332
41.3634
42.9449
43.9747
44.6193
45.1217
45.5403
45.9077
46.1928
46.318
46.3657
46.4297
46.4461
46.3385
46.1358
23.7158
26.4781
29.1157
31.3441
33.2354
35.1031
37.0752
39.2337
41.2593
42.8394
43.87
44.5147
45.0187
45.4447
45.8288
46.1314
46.2716
46.335
46.4157
46.448
46.3516
46.1593
22.8951
25.0476
27.0657
28.7708
30.1963
31.4316
32.5448
33.6981
34.8895
35.952
36.743
37.3315
37.841
38.2987
38.7198
39.0766
39.2805
39.4188
39.5673
39.6797
39.6922
39.6411
21.5828
22.9756
24.3126
25.477
26.4579
27.2994
28.0797
28.9199
29.7795
30.5706
31.3346
32.1138
32.9316
33.778
34.661
35.5484
36.3017
36.9805
37.6624
38.3032
38.8001
39.206
39.6305
20.3417
21.1509
21.8834
22.4418
22.8635
23.483
24.1685
24.8653
25.4918
26.0562
26.6846
27.461
28.439
29.6498
31.0892
32.6908
34.3147
35.9269
37.5684
39.1982
40.6554
42.0317
43.3613
19.4837
20.007
20.5392
20.9895
21.2969
21.7203
22.1537
22.6232
23.0269
23.4178
24.5174
25.9262
27.3783
28.9656
30.7798
32.8922
35.299
38.0373
41.0631
44.2224
47.2568
50.0591
52.6057
19.317
19.7845
20.3297
20.816
21.2076
21.2229
21.4554
21.7574
23.8962
25.275
26.8896
28.8529
31.1773
33.9236
37.0732
40.2819
43.549
46.9135
50.3104
53.6611
57.0027
60.1409
62.664
18.9753
19.3742
19.5695
20.179
20.7915
21.443
22.2171
22.7529
28.177
29.8019
31.4854
33.3244
35.4402
37.9246
40.7797
43.9536
47.4465
51.1041
54.8557
58.4433
61.9318
65.347
68.5175
18.9235
19.3798
19.662
20.7591
22.3268
24.2926
26.4027
27.6552
43.0916
46.0811
48.702
51.1142
53.6508
56.4305
59.4721
62.7592
66.247
69.8621
73.5533
77.265
80.8227
84.0813
87.6621
19.2742
19.8675
20.2488
22.1194
26.7086
33.766
39.9391
43.0049
90.889
92.1279
92.5042
92.9442
93.9221
95.5694
97.8478
100.662
103.406
106.06
108.643
111.184
113.667
116.045
118.072
38.5612
57.7234
100.86
117.174
258.161
241.429
225.03
210.824
199.184
189.91
182.663
176.925
172.216
168.22
164.752
161.693
158.607
155.769
153.149
73.3507
171.651
334.451
381.222
371.127
335.178
298.226
278.449
260.176
244.554
230.762
218.069
206.809
196.579
187.203
178.774
171.303
164.699
158.796
318.384
535.75
511.244
467.75
410.622
358.958
311.572
274.518
252.465
234.196
218.436
204.812
192.949
182.602
173.559
165.593
158.209
150.714
824.653
764.756
1123.12
1363.53
708.359
478.878
324.14
276.318
227.905
207.849
195.431
186.935
179.252
171.993
165.281
159.178
153.581
148.371
444.558
282.687
273.457
285.888
257.112
236.031
219.296
205.492
193.784
183.634
174.688
166.713
159.544
1059.25
485.92
397
311.622
277.218
250.645
229.423
212.097
197.675
185.47
175
165.927
158.013
873.736
425.775
277.573
247.21
224.27
206.068
191.192
178.763
168.193
159.079
151.141
144.19
138.095
18.7445
18.929
19.224
19.62
20.0845
20.557
20.9868
21.3411
21.6155
21.8122
21.9325
21.9883
22.0315
22.0785
22.1124
19.0199
19.4295
20.109
21.0218
22.175
23.3952
24.6209
25.6256
26.3442
26.7801
26.9431
26.993
27.0493
27.098
27.1188
19.4503
20.3198
21.812
23.968
27.3364
30.9203
35.7003
38.9066
40.6741
41.349
41.2181
41.1046
41.0303
40.8242
40.4725
40.0629
39.5823
39.1076
38.6759
38.2837
37.932
37.6195
37.3441
20.1161
21.8316
25.1309
26.9757
36.6742
49.3165
82.7502
86.751
87.7062
86.9954
85.1658
82.5361
80.1764
75.1589
69.9347
71.0011
68.4565
66.1054
63.999
62.1301
60.4752
59.0074
57.7027
21.0397
24.0968
26.5621
45.3457
96.6373
152.261
182.769
195.066
193.31
186.753
178.219
165.746
154.117
140.231
126.453
113.718
125.692
117.752
110.926
105.029
99.9062
95.4291
91.4916
21.8661
23.5978
36.5168
102.504
370.193
984.124
467.68
378.208
384.697
382.452
369.573
387.397
541.177
465.907
305.034
273.366
223.951
215.94
194.133
176.853
162.751
151.006
141.064
132.538
22.3885
25.2227
46.0864
142.398
559.339
394.697
301.608
261.719
233.059
210.914
193.102
178.381
165.963
155.33
21.9952
25.0225
49.8456
243.533
560.641
393.508
302.245
265.74
239.27
218.545
201.719
187.699
175.728
165.293
20.8609
22.9211
40.7483
123.55
358.631
353.346
287.219
257.922
235.47
217.118
201.819
188.79
177.539
167.673
158.894
19.8595
22.0786
25.2604
47.9129
237.012
619.741
219.237
261.369
478.931
573.565
641.749
697.666
585.262
443.216
322.369
280.599
255.61
241.273
226.702
213.006
200.53
189.245
179.092
169.933
161.588
18.9158
19.7723
21.5981
23.9441
33.2561
51.5028
64.461
81.2345
125.457
882.874
560.41
434.057
362.524
320.023
300.883
280.7
260.72
242.973
227.829
215.309
204.207
191.667
180.454
171.12
162.938
18.5112
18.7702
19.3493
20.2007
21.1822
22.4676
24.0154
32.6045
142.216
1008.62
553.081
423.078
366.366
322.788
289.941
264.626
245.013
229.909
217.642
207.347
198.689
191.165
184.109
177.194
170.058
18.345
18.436
18.6717
19.0538
19.4943
19.8773
21.2955
28.2474
114.7
266.205
352.531
452.18
386.799
334.776
295.398
265.159
241.494
222.617
207.295
194.657
184.178
175.516
168.423
162.675
157.854
18.3142
18.3709
18.5376
18.8299
19.1933
19.4749
20.6927
26.4954
62.5825
86.5287
125.245
178.247
179.555
256.86
236.82
219.343
204.488
192.01
181.559
172.72
165.181
158.612
152.788
148.337
144.233
18.3825
18.4761
18.6895
19.0442
19.4592
19.7084
20.835
24.429
32.6028
49.4721
61.2999
73.9429
75.3743
128.891
126.612
125.36
125.136
125.815
127.14
128.038
129.964
131.045
131.379
128.994
125.436
18.5434
18.7454
19.1222
19.6756
20.2519
20.4754
21.4131
23.137
25.0499
28.5051
34.5644
39.5407
43.3642
79.2985
84.6933
90.3405
96.5744
103.134
109.959
108.403
107.398
108.442
110.898
114.454
118.495
18.8039
19.2131
19.9273
20.9066
21.8958
22.0398
22.8556
23.7787
28.199
28.3036
29.9828
32.3501
34.0423
51.1592
58.2337
58.279
60.5067
65.0779
71.7094
80.4537
90.4503
100.597
110.015
117.633
123.134
19.9102
21.1766
22.8465
24.7602
24.8834
25.6948
26.5499
32.9441
32.7171
33.1112
34.2315
35.4715
37.419
40.5694
45.2677
51.4176
58.8411
67.297
75.7806
83.444
90.1637
95.9848
100.679
22.9749
26.1318
30.3641
34.6248
38.2412
40.9738
40.6532
40.8058
41.8669
43.9857
46.2672
48.8625
52.291
56.5432
61.2746
66.2725
71.3371
75.7275
79.0803
82.3117
85.2984
87.6043
37.0553
43.6747
48.8774
52.7872
52.2863
52.364
53.514
55.7615
58.3266
60.4099
61.8614
63.0275
64.0057
64.9206
65.8481
66.4792
66.6149
66.967
67.4283
67.7789
41.8154
50.9639
58.0342
63.5542
69.1844
74.9306
81.1179
80.1872
80.1924
80.7431
80.7807
80.7158
80.677
80.7572
80.971
80.911
80.4273
80.1165
79.9421
79.599
78.8809
41.7338
50.8137
57.8138
63.3057
68.9102
74.627
80.7979
80.3328
81.2793
82.7509
83.6217
84.3326
85.0518
85.9001
86.8621
87.4389
87.5668
87.8388
88.258
88.3781
88.0147
37.1572
43.8902
49.1464
53.1582
53.0771
54.0185
56.0914
59.4914
63.212
65.9659
67.4835
68.505
69.275
69.9452
70.5843
70.8383
70.5844
70.4862
70.4671
70.2562
69.6929
26.1539
30.4296
34.7407
38.3701
41.1612
41.3119
42.2565
44.0023
46.6754
49.4114
51.8738
54.2177
56.5342
58.8036
61.1381
63.66
65.8288
67.3497
69.0306
70.7597
72.234
73.1073
74.132
22.8619
24.7848
25.4096
26.9066
28.3572
33.1974
35.3164
35.5475
37.0635
39.0021
41.4895
44.9329
49.6465
55.6185
62.5207
69.7973
76.1662
81.1874
85.4862
89.2619
92.1117