/*--------------------------------*- C++ -*----------------------------------*\
  =========                 |
  \\      /  F ield         | OpenFOAM: The Open Source CFD Toolbox
   \\    /   O peration     | Website:  https://openfoam.org
    \\  /    A nd           | Version:  13
     \\/     M anipulation  |
\*---------------------------------------------------------------------------*/
FoamFile
{
    format      ascii;
    class       volScalarField;
    location    "600";
    object      p;
}
// * * * * * * * * * * * * * * * * * * * * * * * * * * * * * * * * * * * * * //

dimensions      [0 2 -2 0 0 0 0];

internalField   nonuniform List<scalar> 
169916
(
10.8321
8.07959
4.77569
1.06929
-2.72708
-6.16739
-8.83786
-10.5323
-11.3051
-11.3086
-10.6746
-9.51516
-7.97459
-6.26208
12.2166
9.00338
4.92334
0.11599
-4.97793
-9.62198
-13.1835
-15.2047
-15.8414
-15.4035
-14.1175
-12.1603
-9.73321
-7.19132
14.2842
10.6213
5.59064
-0.760758
-7.73747
-14.0406
-18.8153
-21.3028
-21.7739
-20.6874
-18.4058
-15.2981
-11.5949
-7.90403
-4.87029
-2.61497
-1.03444
0.00263157
0.613302
0.904209
0.968987
0.88462
19.7118
17.3455
13.4084
7.32081
-1.20623
-11.4642
-17.8966
-24.7021
-27.9902
-28.51
-26.6723
-23.1426
-18.0558
-12.6152
-7.62929
-4.04769
-1.56166
0.0744941
1.05533
1.55027
1.70534
1.64161
1.45091
23.4868
21.7715
18.205
11.6435
0.935142
-10.6382
-25.1831
-37.1613
-42.6606
-42.025
-36.9878
-29.7953
-21.5059
-13.5968
-5.7152
-2.42296
-0.241113
1.14075
1.89176
2.15238
2.08236
1.82316
1.47742
27.9081
27.5634
25.6617
20.83
9.98444
-7.19
-33.2429
-58.4681
-65.1907
-64.0153
-51.7323
-35.9702
-23.1268
-11.2697
-1.89032
0.684146
1.61225
2.03391
2.15225
2.00335
1.67644
1.26724
0.842696
0.452788
32.1947
33.5836
34.4952
30.5985
25.3882
9.60866
-18.3159
-67.3302
-91.5401
-128.155
-76.3706
-41.9654
-22.7476
-9.37671
-4.00165
-1.95046
-0.10617
0.838123
1.13121
1.0222
0.691242
0.27511
-0.145414
-0.517923
-0.790541
35.2701
37.755
40.4551
40.5312
40.6524
35.1567
17.0951
-27.1541
-49.409
-91.298
-44.5625
-26.355
-11.7702
-6.16179
-4.47162
-2.56391
-1.14103
-0.396058
-0.196966
-0.332371
-0.622179
-0.958897
-1.27636
-1.51001
36.6097
39.0978
41.6523
43.1413
43.8098
39.8807
29.9411
7.9401
-17.7154
-69.2779
-80.1159
-58.8413
-29.734
-15.0826
-9.51649
-5.95275
-3.88638
-2.12712
-1.05246
-0.641854
-0.63904
-0.841862
-1.14152
-1.4648
-1.7383
-1.88502
36.5223
38.2859
39.6503
39.8138
39.3224
33.7605
22.8026
6.50422
-11.7501
-28.6882
-37.918
-35.2657
-25.492
-16.2694
-9.83242
-7.28118
-4.86214
-2.78896
-1.49401
-0.912792
-0.788722
-0.930155
-1.22495
-1.5903
-1.94879
-2.2247
35.6959
36.6618
36.9781
36.0299
32.9867
27.5092
20.8771
9.80561
-1.87597
-13.3578
-21.3048
-23.0983
-17.8092
-14.0379
-10.952
-8.22974
-5.67822
-3.61656
-2.27378
-1.5815
-1.36102
-1.46127
-1.77127
-2.20063
-2.66912
-3.104
34.6416
34.9623
34.5876
33.1087
30.076
25.2965
18.6677
10.7653
2.09045
-6.30482
-12.4439
-15.0457
-14.7658
-12.6611
-10.2466
-7.8991
-5.78906
-4.10607
-2.96947
-2.35882
-2.17354
-2.3032
-2.65307
-3.14581
-3.7174
-4.31185
33.6267
33.4626
32.6281
30.8627
27.9194
23.6743
18.1423
11.5275
4.32857
-2.5469
-7.82544
-10.6532
-11.1943
-10.2932
-8.82813
-7.23795
-5.74559
-4.51618
-3.66404
-3.21699
-3.1327
-3.34235
-3.77774
-4.37921
-5.09501
-5.87869
32.7672
32.2408
31.0772
29.1196
26.23
22.3387
17.4837
11.8439
5.83566
0.136001
-4.4451
-7.32263
-8.46942
-8.3857
-7.65434
-6.67467
-5.68903
-4.8639
-4.30979
-4.07235
-4.14181
-4.47957
-5.04054
-5.78015
-6.65599
-7.62609
32.1022
31.2971
29.8799
27.7594
24.8679
21.1882
16.7848
11.8407
6.70783
1.8828
-2.11879
-4.9013
-6.36608
-6.78423
-6.58476
-6.11175
-5.58711
-5.15888
-4.92464
-4.93378
-5.19367
-5.68899
-6.39607
-7.28494
-8.31772
31.6308
30.6057
28.9808
26.7052
23.764
20.1962
16.1099
11.6979
7.25037
3.11155
-0.405394
-3.04463
-4.69272
-5.47906
-5.70924
-5.66605
-5.54304
-5.47006
-5.53396
-5.78213
-6.23019
-6.879
-7.72333
-8.74433
-9.90916
31.3318
30.1331
28.3333
25.9058
22.8794
19.3529
15.4836
11.4697
7.53836
3.91196
0.771365
-1.73022
-3.49241
-4.55871
-5.12872
-5.42807
-5.62892
-5.84832
-6.16325
-6.61681
-7.22782
-8.00656
-8.96052
-10.0816
-11.3446
29.8409
27.895
25.3218
22.1891
18.6556
14.9311
11.2169
7.67633
4.4299
1.56802
-0.819841
-2.65398
-3.9326
-4.77089
-5.33784
-5.78704
-6.23004
-6.73849
-7.35179
-8.08751
-8.95921
-9.985
-11.1712
-12.4965
27.6221
24.9202
21.6771
18.107
14.4702
10.9693
7.70868
4.72816
2.05707
-0.25329
-2.14214
-3.58255
-4.62345
-5.38148
-5.99774
-6.58766
-7.22267
-7.93918
-8.75305
-9.68074
-10.7509
-11.979
-13.343
27.471
24.6732
21.3393
17.726
14.1342
10.7675
7.687
4.87689
2.32687
0.0633479
-1.86572
-3.41719
-4.59176
-5.46485
-6.17238
-6.84102
-7.54658
-8.32345
-9.18522
-10.1496
-11.2501
-12.5052
-13.8933
24.5472
21.1627
17.5224
13.949
10.647
7.65495
4.92935
2.441
0.202163
-1.74626
-3.35252
-4.59188
-5.51826
-6.26642
-6.97104
-7.71058
-8.51727
-9.40291
-10.3857
-11.5007
-12.7679
-14.1664
24.5385
21.1529
17.5122
13.9394
10.6384
7.64711
4.9224
2.43549
0.198619
-1.74758
-3.35188
-4.58987
-5.51543
-6.26295
-6.96708
-7.70647
-8.5135
-9.39989
-10.3837
-11.4999
-12.7686
-14.1689
24.6479
21.3106
17.6955
14.1043
10.7393
7.66077
4.85326
2.30754
0.0498033
-1.87269
-3.41816
-4.58839
-5.45882
-6.16433
-6.83142
-7.5365
-8.31431
-9.17836
-10.1461
-11.2505
-12.5103
-13.904
-15.3954
24.881
21.6327
18.0593
14.422
10.9228
7.66552
4.69038
2.02737
-0.273584
-2.15252
-3.58384
-4.61782
-5.37129
-5.98413
-6.57136
-7.20531
-7.9232
-8.74074
-9.67402
-10.751
-11.987
-13.3604
-14.8358
25.2719
22.1325
18.5941
14.8673
11.1537
7.61722
4.37967
1.53138
-0.841644
-2.66252
-3.93045
-4.76095
-5.32302
-5.76889
-6.20948
-6.71765
-7.33392
-8.07543
-8.95505
-9.99066
-11.188
-12.5259
-13.9717
25.8483
22.8141
19.2811
15.4078
11.3931
7.46572
3.84979
0.726726
-1.75489
-3.49934
-4.55197
-5.11194
-5.40489
-5.60207
-5.8196
-6.1355
-6.59424
-7.21369
-8.00267
-8.96887
-10.1044
-11.3832
-12.7767
23.6945
20.1204
16.0298
11.6166
7.17166
3.04169
-0.457929
-3.07631
-4.70577
-5.47629
-5.69266
-5.63953
-5.51205
-5.43938
-5.50789
-5.76542
-6.22599
-6.88846
-7.74716
-8.784
-9.96622
-11.2642
-12.6526
24.7981
21.1133
16.7068
11.764
6.63167
1.81038
-2.1768
-4.94006
-6.38802
-6.78815
-6.56796
-6.07714
-5.54366
-5.11638
-4.89021
-4.91231
-5.18809
-5.70032
-6.42452
-7.33064
-8.38174
-9.53931
-10.7709
26.1625
22.2681
17.4127
11.7827
5.76845
0.0487194
-4.52825
-7.38847
-8.51946
-8.41288
-7.64844
-6.63852
-5.63901
-4.81787
-4.27897
-4.06138
-4.15173
-4.50967
-5.08947
-5.8466
-6.73912
-7.72682
-8.76411
27.857
23.6105
18.0773
11.4859
4.30032
-2.64328
-7.94966
-10.7778
-11.3091
-10.3691
-8.83641
-7.18317
-5.65987
-4.43271
-3.60287
-3.18533
-3.13139
-3.36924
-3.82979
-4.45345
-5.18924
-5.99187
-6.8184
1.96665
-6.48115
-12.6344
-15.2564
-14.9977
-12.8396
-10.3075
-7.85966
-5.70476
-4.02382
-2.91369
-2.33664
-2.18446
-2.34417
-2.72049
-3.23627
-3.8286
-4.44312
-5.03103
1.09684
-8.96343
-16.3768
-19.2075
-18.2915
-14.3804
-11.0131
-8.09302
-5.47053
-3.43228
-2.15297
-1.52827
-1.36783
-1.51941
-1.87267
-2.33825
-2.83829
-3.30339
-3.67171
-19.6844
-28.4031
-29.0162
-23.145
-16.6259
-10.2669
-7.35484
-4.73337
-2.64302
-1.41786
-0.921264
-0.875397
-1.0852
-1.43661
-1.84668
-2.24072
-2.54789
-2.70025
-47.9715
-45.5542
-29.248
-16.7186
-10.5638
-5.95596
-3.63924
-1.8709
-0.88618
-0.57012
-0.652533
-0.93378
-1.30151
-1.68072
-2.00033
-2.18759
-2.16949
-67.5269
-31.5439
-14.1221
-8.22802
-4.51765
-2.22171
-0.777356
-0.148724
-0.0539048
-0.271603
-0.638038
-1.04341
-1.41823
-1.70049
-1.82425
-1.72159
-26.5728
-10.2632
-4.4665
-2.01509
0.082079
1.10961
1.35972
1.18886
0.795783
0.314063
-0.169899
-0.59922
-0.922724
-1.08658
-1.03597
-2.02032
0.790438
1.85082
2.26544
2.32375
2.10957
1.7191
1.2481
0.766424
0.325663
-0.0282767
-0.251426
-0.302245
10.8029
8.00832
4.64282
0.872252
-2.94124
-6.3003
-8.80794
-10.3563
-11.0703
-11.1137
-10.5858
-9.54279
-8.07576
-6.36931
12.1768
8.88122
4.66376
-0.308324
-5.47295
-10.0179
-13.1983
-14.8869
-15.4074
-15.084
-14.0515
-12.3352
-10.038
-7.46156
14.2523
10.4393
5.118
-1.56402
-8.69352
-14.8974
-18.9224
-20.7495
-20.9983
-20.1981
-18.4822
-15.7806
-12.3345
-8.55045
-5.21131
-2.71161
-1.02379
0.043673
0.656708
0.938284
0.989037
0.889042
19.8201
17.3869
13.1984
6.55785
-2.82513
-9.89925
-19.2215
-24.825
-27.2171
-27.3114
-25.9462
-23.36
-19.2516
-13.8371
-8.69446
-4.49494
-1.59963
0.185136
1.20391
1.68908
1.81162
1.70858
1.48082
23.78
22.0683
18.2137
10.8884
0.863266
-14.0835
-29.6086
-39.2352
-40.8602
-39.0873
-35.9635
-31.2122
-23.9828
-15.0908
-7.03194
-2.42741
0.0973488
1.44612
2.14333
2.36921
2.26492
1.97009
1.58904
28.5164
28.4284
26.7134
19.4937
8.13101
-16.7111
-40.8876
-62.7323
-66.0036
-56.5527
-45.9857
-40.2379
-27.4654
-12.6713
-4.23936
1.92
3.18918
3.32176
3.04676
2.56625
2.0045
1.43354
0.893517
0.421791
33.1327
35.1147
33.4532
33.6864
25.9251
5.39541
-45.1578
-28.764
-7.76974
-0.579146
-0.320942
0.0307659
1.20276
1.31781
0.923953
0.412819
-0.102508
-0.588719
-1.00727
-1.30561
36.3555
39.6104
40.6649
45.1423
42.4187
36.4624
-9.80706
-5.67641
-5.14993
-3.37333
-1.19986
-0.458257
-0.444356
-0.683384
-1.02239
-1.3925
-1.73747
-1.98881
37.5863
40.761
44.4942
46.8323
47.9767
44.756
20.7422
-48.5236
-17.0642
-11.0067
-9.27199
-5.23075
-2.61683
-1.41927
-1.09891
-1.16799
-1.4025
-1.71785
-2.04844
-2.31646
-2.44366
37.2666
39.4533
41.3815
42.433
41.5597
33.9992
23.2279
6.39942
-11.5633
-26.4057
-39.1836
-45.5127
-30.0684
-17.7214
-12.6046
-9.15519
-5.7709
-3.10083
-1.64393
-1.07641
-0.997825
-1.1837
-1.52197
-1.9292
-2.32568
-2.63007
36.2289
37.4261
37.9893
37.1461
35.6221
29.8424
21.4684
10.9687
-0.550018
-13.0005
-22.2067
-25.0421
-22.1531
-16.8372
-12.2734
-9.25754
-6.08166
-3.59855
-2.09841
-1.39012
-1.21763
-1.39429
-1.78864
-2.29827
-2.83642
-3.32594
35.0336
35.4878
35.2423
33.8278
30.7021
25.9576
19.579
11.6875
2.61031
-6.83754
-13.6026
-16.4674
-15.9315
-13.6071
-11.0395
-8.34347
-5.87224
-3.95751
-2.72293
-2.09786
-1.94135
-2.11768
-2.51847
-3.06329
-3.69055
-4.34489
33.9428
33.8617
33.109
31.404
28.4794
24.2552
18.7711
12.0343
4.45616
-3.08026
-8.80326
-11.7774
-12.1017
-10.9896
-9.30018
-7.45683
-5.7547
-4.38412
-3.45728
-2.98659
-2.91109
-3.14758
-3.61924
-4.26342
-5.02925
-5.8719
33.0534
32.5801
31.4679
29.5514
26.6841
22.7944
17.891
12.054
5.6619
-0.46097
-5.32559
-8.22732
-9.15104
-8.81422
-7.87667
-6.73373
-5.62572
-4.71751
-4.1184
-3.86866
-3.94899
-4.31341
-4.91178
-5.69641
-6.62473
-7.65537
32.3887
31.6162
30.2224
28.1103
25.2087
21.4908
16.9885
11.8441
6.44225
1.38961
-2.78064
-5.59309
-6.89585
-7.08166
-6.70736
-6.11743
-5.51305
-5.03461
-4.77736
-4.78618
-5.06228
-5.58685
-6.3349
-7.27509
-8.36488
31.938
30.9294
29.2992
26.9903
23.9898
20.3377
16.1342
11.5734
6.98514
2.75139
-0.876918
-3.56781
-5.11678
-5.71135
-5.78891
-5.65043
-5.47156
-5.37146
-5.43102
-5.69191
-6.16366
-6.8437
-7.73168
-8.80768
-10.0335
31.6753
30.4798
28.6441
26.1355
22.9938
19.3391
15.3458
11.2316
7.24686
3.60304
0.422267
-2.11609
-3.82724
-4.7625
-5.2119
-5.43744
-5.60265
-5.81161
-6.13474
-6.60825
-7.24232
-8.04773
-9.042
-10.218
-11.5398
30.2231
28.2104
25.5041
22.1955
18.4934
14.65
10.8879
7.36048
4.147
1.28803
-1.11852
-2.93371
-4.13791
-4.89069
-5.39825
-5.81978
-6.2599
-6.7835
-7.42058
-8.17437
-9.05862
-10.1114
-11.3454
-12.7201
27.949
25.0652
21.5852
17.8076
14.0635
10.5612
7.36027
4.44211
1.80122
-0.513348
-2.40836
-3.82445
-4.80997
-5.50978
-6.09162
-6.67327
-7.31755
-8.05043
-8.87064
-9.79549
-10.8822
-12.1535
-13.5624
27.8115
24.7938
21.1727
17.3188
13.627
10.2922
7.30444
4.5789
2.07564
-0.186822
-2.14303
-3.70883
-4.84696
-5.64862
-6.30188
-6.95004
-7.65845
-8.44743
-9.31042
-10.2655
-11.3772
-12.6728
-14.1034
24.6533
20.9551
17.056
13.3854
10.1326
7.25056
4.62366
2.19156
-0.0447448
-2.03263
-3.67155
-4.88143
-5.72667
-6.40914
-7.08783
-7.82819
-8.64527
-9.52973
-10.5005
-11.6245
-12.9304
-14.3703
24.6436
20.9442
17.0453
13.3761
10.1248
7.2433
4.61681
2.18599
-0.0482204
-2.03353
-3.67015
-4.8788
-5.72338
-6.40506
-7.08303
-7.8231
-8.64037
-9.52539
-10.4971
-11.6225
-12.93
-14.3719
24.766
21.1407
17.2857
13.5961
10.264
7.27759
4.55379
2.05481
-0.201332
-2.14951
-3.70787
-4.84184
-5.64128
-6.29215
-6.93808
-7.6455
-8.43517
-9.30028
-10.2586
-11.3745
-12.6752
-14.1118
-15.643
25.0229
21.5367
17.7563
14.013
10.5131
7.31509
4.40206
1.76975
-0.53555
-2.41868
-3.8229
-4.80109
-5.49682
-6.07473
-6.65242
-7.29479
-8.02885
-8.85298
-9.78357
-10.8772
-12.157
-13.5762
-15.0947
25.4511
22.1347
18.4273
14.5813
10.8196
7.29669
4.09471
1.25346
-1.13839
-2.93936
-4.13089
-4.87636
-5.38041
-5.79857
-6.23474
-6.75687
-7.39683
-8.15655
-9.04892
-10.1117
-11.3573
-12.7458
-14.2434
26.0747
22.9237
19.2613
15.2625
11.1463
7.16611
3.53669
0.380263
-2.1328
-3.82363
-4.74492
-5.18642
-5.4082
-5.57094
-5.77689
-6.09958
-6.57898
-7.2223
-8.03825
-9.04531
-10.2364
-11.5753
-13.0361
23.916
20.2561
16.046
11.4825
6.89709
2.67591
-0.924681
-3.58677
-5.11529
-5.69528
-5.76233
-5.61716
-5.43686
-5.33792
-5.40104
-5.67276
-6.15873
-6.85292
-7.75515
-8.84686
-10.0902
-11.4641
-12.9556
25.1346
21.4099
16.9031
11.7637
6.3621
1.31546
-2.82651
-5.61295
-6.90131
-7.07051
-6.67705
-6.07216
-5.46289
-4.98822
-4.74048
-4.76431
-5.05807
-5.60059
-6.36594
-7.32331
-8.43131
-9.65531
-10.9749
26.6114
22.7165
17.8123
12.0046
5.58663
-0.53565
-5.36608
-8.25337
-9.1766
-8.82179
-7.85514
-6.68777
-5.57303
-4.67525
-4.09557
-3.86777
-3.96961
-4.35367
-4.96936
-5.76946
-6.71225
-7.75852
-8.86094
28.4082
24.1764
18.6791
12.0304
4.37955
-3.17967
-8.87056
-11.8563
-12.1871
-11.0337
-9.27655
-7.37564
-5.65353
-4.2975
-3.40268
-2.96771
-2.9253
-3.18983
-3.68473
-4.34802
-5.1304
-5.98883
-6.8738
2.50308
-6.97761
-13.714
-16.5987
-16.1304
-13.7727
-11.0886
-8.30079
-5.79928
-3.89812
-2.69344
-2.10026
-1.97325
-2.17549
-2.59859
-3.16241
-3.80711
-4.47892
-5.12318
2.01129
-9.00461
-17.2456
-20.5236
-19.5669
-16.1224
-12.2248
-9.02468
-5.85443
-3.45299
-2.04177
-1.40667
-1.29099
-1.51222
-1.94221
-2.48077
-3.04451
-3.56006
-3.96014
-18.673
-29.0496
-31.7281
-26.7481
-18.2363
-12.9924
-9.0687
-5.51637
-2.91151
-1.58373
-1.12969
-1.14003
-1.39507
-1.78508
-2.22928
-2.65267
-2.98125
-3.13988
-42.7021
-63.1144
-55.616
-37.1891
-17.1568
-12.5963
-9.26758
-4.88108
-2.2722
-1.19711
-0.997294
-1.17145
-1.4959
-1.884
-2.27238
-2.58705
-2.75322
-2.69689
-61.6749
-14.8603
-9.70208
-7.34051
-2.82242
-0.717451
-0.113367
-0.220718
-0.571638
-1.00535
-1.45094
-1.85546
-2.15396
-2.27833
-2.15983
-8.12711
-2.0344
-1.68768
0.407927
1.57526
1.64014
1.17539
0.585532
-0.00555638
-0.558899
-1.03608
-1.38624
-1.55491
-1.48666
-1.32912
2.04124
3.43357
3.56981
3.23655
2.68231
2.04658
1.40722
0.807444
0.284342
-0.121834
-0.369954
-0.419835
12.99
10.7502
7.88031
4.40351
0.529619
-3.27152
-6.44031
-8.66049
-9.96865
-10.5894
-10.7006
-10.3526
-9.52349
-8.20473
-6.52923
14.6006
12.0975
8.64472
4.16743
-1.06686
-6.29527
-10.4486
-13.0012
-14.1732
-14.5267
-14.3941
-13.7869
-12.5303
-10.4987
-7.93736
16.8517
14.1706
10.0499
4.20702
-3.0745
-10.4007
-15.8579
-18.6939
-19.4903
-19.4259
-19.0605
-18.2766
-16.5289
-13.4511
-9.63418
-5.90389
-3.03155
-1.13493
0.0121904
0.645194
0.924538
0.964155
0.849044
19.9929
17.4096
12.6951
5.03363
-2.48411
-13.3318
-20.9315
-24.5537
-25.1887
-24.7243
-24.209
-23.3438
-20.9504
-16.3523
-10.5303
-5.64299
-2.18316
-0.122195
1.01938
1.56021
1.70568
1.60955
1.38013
24.2881
22.5438
18.1716
10.0342
-3.7139
-22.8721
-35.8847
-39.0416
-35.4672
-32.5088
-31.8152
-31.8965
-28.7119
-20.7151
-11.1358
-4.07081
-0.494712
1.10867
1.8443
2.0788
1.98707
1.71227
1.35455
29.6076
30.0516
25.7038
20.0442
-1.79985
-34.2929
-62.5977
-69.1657
-52.3132
-38.8713
-42.333
-45.0435
-38.0193
-23.1685
-8.68456
-1.8653
1.90201
2.96718
2.90987
2.43135
1.8517
1.26936
0.715186
0.225745
34.8339
38.2334
37.8425
38.4943
26.2478
-27.7126
-3.68416
-1.58554
-1.68467
1.06222
1.47953
0.941732
0.348424
-0.155201
-0.613613
-1.0186
-1.31343
38.3074
43.3358
46.8445
54.593
57.2434
-13.2829
-11.3775
-6.07868
-2.19092
-1.01372
-1.17053
-1.58635
-1.93386
-2.24396
-2.51137
-2.67093
39.2733
43.681
47.6699
55.1777
59.9192
-33.0552
-20.0723
-13.6415
-6.95018
-3.18062
-1.69448
-1.459
-1.64203
-1.94421
-2.32102
-2.71783
-3.03424
-3.18211
38.5513
41.4654
44.2844
46.9618
43.9679
33.4643
16.918
8.52515
-0.516644
-22.1934
-40.8243
-43.6487
-40.3888
-23.6734
-17.4356
-11.1513
-6.47758
-3.3072
-1.75908
-1.22013
-1.1754
-1.38571
-1.75057
-2.19435
-2.64896
-3.0264
37.1519
38.7546
39.7214
39.0155
37.3902
30.0737
22.411
14.9557
3.4127
-13.7044
-24.1648
-27.1188
-25.1796
-20.0707
-14.4363
-10.2965
-6.1716
-3.1872
-1.50088
-0.801114
-0.756232
-1.1045
-1.66577
-2.31487
-2.9624
-3.53527
35.7232
36.4158
36.3997
35.1117
32.0172
27.5083
21.9269
15.3192
5.36779
-7.60978
-16.197
-18.4193
-17.9804
-15.4977
-12.3285
-8.86746
-5.74492
-3.43588
-2.02944
-1.38568
-1.29882
-1.57671
-2.08078
-2.72949
-3.47155
-4.25418
34.5144
34.589
33.9965
32.4339
29.6484
25.638
20.5259
14.6363
6.10555
-3.38463
-10.5158
-13.4142
-13.5386
-12.1894
-9.98585
-7.6142
-5.5142
-3.90374
-2.86846
-2.37811
-2.33525
-2.6307
-3.17344
-3.89747
-4.75882
33.5899
33.2227
32.2196
30.4099
27.6497
23.8657
18.9427
12.7537
5.44424
-1.54919
-7.05937
-9.87812
-10.3976
-9.64735
-8.2565
-6.73543
-5.36916
-4.30584
-3.63103
-3.36297
-3.46547
-3.88234
-4.55358
-5.42478
-6.45563
32.946
32.2452
30.9089
28.8345
25.953
22.2169
17.534
12.0339
6.0656
0.555372
-4.07837
-6.98315
-7.96211
-7.68275
-6.9231
-6.05472
-5.26871
-4.68739
-4.38737
-4.39646
-4.70434
-5.29374
-6.1313
-7.17561
-8.37887
32.558
31.5937
29.9636
27.6012
24.4994
20.6967
16.2497
11.3597
6.49896
2.14453
-1.71725
-4.56252
-5.91665
-6.10843
-5.87701
-5.53894
-5.24734
-5.10313
-5.16754
-5.45772
-5.97428
-6.73313
-7.72979
-8.93086
-10.2842
32.392
31.2165
29.3181
26.6486
23.2713
19.3565
15.0906
10.7383
6.67256
3.07613
-0.188226
-2.87338
-4.4828
-5.10977
-5.29833
-5.37584
-5.48155
-5.69277
-6.05493
-6.58305
-7.26656
-8.13292
-9.22311
-10.5245
-11.9574
31.0568
28.9174
25.9275
22.2339
18.1804
14.0839
10.2213
6.75505
3.66258
0.804498
-1.68465
-3.47553
-4.50514
-5.07373
-5.46888
-5.85166
-6.30883
-6.88581
-7.58812
-8.37203
-9.26265
-10.3666
-11.7051
-13.1645
28.7051
25.4194
21.3936
17.1636
13.2287
9.77033
6.74177
3.95979
1.37088
-0.985307
-2.92938
-4.30972
-5.17658
-5.75239
-6.26877
-6.83891
-7.50912
-8.28571
-9.10587
-9.99647
-11.1103
-12.4819
-13.9693
28.6155
25.1028
20.8008
16.4111
12.5661
9.37945
6.64318
4.0892
1.66705
-0.626901
-2.69593
-4.34581
-5.40439
-6.02321
-6.54817
-7.14679
-7.86214
-8.68723
-9.54223
-10.4501
-11.5807
-12.9732
-14.4789
24.9354
20.4854
16.0031
12.1931
9.14059
6.54883
4.14113
1.81565
-0.447036
-2.59715
-4.38891
-5.53997
-6.16969
-6.69161
-7.30445
-8.04399
-8.88985
-9.75758
-10.6744
-11.8136
-13.212
-14.7235
24.9234
20.4716
15.9914
12.1858
9.13546
6.54266
4.1341
1.8097
-0.450511
-2.59714
-4.38608
-5.53686
-6.16638
-6.68725
-7.2994
-8.03891
-8.88471
-9.75222
-10.6697
-11.8105
-13.2109
-14.7244
25.0688
20.7599
16.3718
12.5347
9.35265
6.61455
4.05982
1.64202
-0.644198
-2.70142
-4.34123
-5.39801
-6.01579
-6.53723
-7.13305
-7.84764
-8.67315
-9.52938
-10.4399
-11.5749
-12.973
-14.4854
-16.063
25.3698
21.335
17.1041
13.1737
9.71971
6.69165
3.9129
1.33514
-1.01349
-2.94123
-4.30379
-5.16418
-5.73732
-6.24804
-6.81095
-7.47766
-8.25542
-9.07982
-9.97556
-11.0964
-12.4778
-13.9778
-15.5503
25.8675
22.1636
18.1046
14.0041
10.141
6.67905
3.60278
0.7841
-1.69714
-3.47632
-4.49022
-5.05516
-5.45061
-5.82872
-6.27662
-6.8486
-7.55268
-8.342
-9.23982
-10.3534
-11.7045
-13.1806
-14.7518
26.5804
23.1906
19.2664
14.9895
10.6292
6.56882
2.998
-0.223799
-2.87278
-4.4573
-5.07034
-5.25901
-5.3397
-5.44495
-5.64772
-6.00477
-6.53927
-7.23162
-8.10905
-9.21357
-10.5314
-11.9851
-13.5696
24.4171
20.6029
16.1412
11.2396
6.38303
2.05159
-1.76387
-4.56705
-5.89557
-6.06915
-5.8349
-5.4975
-5.2127
-5.06939
-5.12973
-5.42995
-5.95854
-6.73098
-7.74288
-8.96022
-10.3319
-11.8836
-13.6383
25.871
22.1235
17.4279
11.9309
5.97857
0.475078
-4.10425
-6.97461
-7.94054
-7.64648
-6.87286
-5.99516
-5.2118
-4.63591
-4.34428
-4.36762
-4.69183
-5.29947
-6.15462
-7.21687
-8.43684
-9.82761
-11.3867
27.5671
23.7691
18.8288
12.7216
5.31918
-1.65798
-7.05667
-9.85292
-10.3994
-9.64031
-8.22635
-6.68589
-5.31861
-4.26775
-3.61121
-3.36294
-3.48429
-3.91803
-4.60342
-5.48678
-6.52936
-7.70666
-8.97002
29.5608
25.5145
20.2577
13.7025
6.23801
-2.2225
-8.45476
-13.4136
-13.5671
-12.1729
-9.91483
-7.50719
-5.40852
-3.82654
-2.82726
-2.37197
-2.35999
-2.6801
-3.2413
-3.97895
-4.85197
-5.82878
-6.84693
5.54133
-5.61086
-13.3598
-18.481
-18.1633
-15.5954
-12.2452
-8.7053
-5.5935
-3.32968
-1.96744
-1.36254
-1.3112
-1.62054
-2.15104
-2.82221
-3.58468
-4.38623
-5.15911
4.67842
-10.6043
-19.8492
-22.3213
-21.8947
-18.3304
-14.1959
-9.869
-5.84004
-3.02279
-1.47664
-0.876115
-0.900544
-1.29669
-1.89042
-2.56362
-3.23206
-3.82705
-4.27892
-14.699
-30.4863
-31.5854
-30.023
-21.8428
-16.1411
-10.58
-5.8518
-2.9168
-1.62223
-1.28642
-1.38745
-1.69665
-2.1255
-2.60566
-3.07472
-3.46299
-3.68522
-47.1606
-65.0849
-47.3087
-24.5636
-20.1362
-12.5567
-6.39469
-2.6544
-1.33428
-1.29394
-1.64066
-2.06679
-2.5322
-2.99449
-3.36386
-3.55172
-3.47979
-20.1982
-13.3372
-5.60277
-1.86219
-0.762386
-1.02215
-1.54983
-1.99404
-2.37987
-2.70738
-2.91409
-2.93119
-2.69285
-10.4825
-6.07669
-1.15252
1.56864
1.92549
1.29333
0.583126
-0.0303351
-0.578922
-1.05644
-1.4102
-1.57868
-1.49862
-4.77384
-1.4792
2.21271
3.28788
3.18914
2.63583
1.97211
1.31121
0.689206
0.141516
-0.284847
-0.540779
-0.578571
12.9758
10.6965
7.74461
4.14162
0.18956
-3.53052
-6.44843
-8.34708
-9.40306
-9.93402
-10.1182
-9.96107
-9.37679
-8.26118
-6.65999
14.5891
12.0047
8.36123
3.57999
-1.89292
-7.0034
-10.6494
-12.5464
-13.2053
-13.4167
-13.4531
-13.2281
-12.4876
-10.8687
-8.39043
16.8827
14.062
9.57218
3.04561
-4.71534
-11.9222
-16.4554
-18.1139
-17.9117
-17.6734
-17.7034
-17.6975
-17.0562
-14.7088
-10.7289
-6.59775
-3.29771
-1.10869
0.175922
0.851375
1.13155
1.15372
1.0113
20.1712
17.4193
12.21
5.17646
-5.80988
-16.2435
-22.3192
-24.4247
-22.2391
-21.3518
-21.7551
-21.9922
-22.2588
-19.3282
-13.4294
-6.77311
-2.66302
-0.173221
1.17523
1.79196
1.95835
1.85823
1.61079
24.8338
23.1676
17.473
8.0665
-11.4557
-32.2747
-39.5712
-34.2546
-28.1584
-25.5231
-25.5339
-29.6446
-33.6499
-28.8781
-17.0396
-7.32497
-0.885914
1.40415
2.35568
2.61448
2.50378
2.2021
1.81328
30.7441
31.8593
27.7864
16.6346
-13.858
-63.9661
-82.4741
-51.5578
-22.1994
-20.3555
-19.153
-39.0197
-59.8614
-40.2182
-17.8531
-5.87687
1.12439
3.43749
3.77719
3.34833
2.73789
2.11869
1.52115
0.977987
36.57
37.599
43.9172
40.6959
19.3254
-14.4942
-5.02578
-0.968885
2.16294
2.7819
2.04529
1.201
0.526794
-0.0517761
-0.550815
-0.914528
40.3692
44.3456
55.472
65.6656
-20.4118
-14.7873
-7.4604
-2.08426
0.00299816
-0.244699
-0.897024
-1.43679
-1.9351
-2.39701
-2.72728
41.1002
45.5246
55.2862
65.3765
66.0428
-21.4702
-15.775
-9.08718
-3.26003
-1.26697
-1.05234
-1.29778
-1.59664
-1.9666
-2.39482
-2.79199
-3.04534
40.022
43.8279
48.2851
51.5037
46.7022
24.4509
15.757
24.3789
14.6037
-41.1632
-31.4722
-36.3111
-35.5343
-24.9914
-20.4484
-14.4146
-6.18996
-2.7869
-1.4029
-1.10522
-1.26731
-1.62758
-2.09453
-2.58936
-3.05602
-3.42568
38.2243
40.304
41.6934
42.6084
38.1377
30.7029
26.6197
24.1802
11.6047
-18.717
-27.6254
-30.0152
-28.7846
-23.9991
-18.0479
-10.1362
-5.29745
-2.06649
-0.246724
0.388835
0.149383
-0.577957
-1.52026
-2.49805
-3.40098
-4.17103
36.5523
37.5313
37.7694
36.535
33.7995
30.1404
26.4353
21.8596
9.33669
-13.9818
-22.4782
-23.2561
-20.1102
-17.2458
-12.9553
-8.6777
-4.92031
-2.2266
-0.627644
0.0144001
-0.045332
-0.529205
-1.24244
-2.11108
-3.11418
-4.19132
35.2394
35.5126
35.1298
33.7709
31.3058
27.9293
24.339
18.5686
6.48049
-7.79709
-16.2486
-16.1908
-15.4623
-13.7632
-10.7879
-7.62713
-4.9514
-2.99724
-1.79908
-1.26707
-1.26029
-1.63846
-2.28664
-3.13315
-4.15154
34.3128
34.0918
33.2452
31.6172
29.1216
25.7608
22.1817
15.8919
6.4238
-2.45394
-9.9931
-12.2946
-11.4236
-10.4773
-8.6173
-6.61958
-4.88911
-3.59964
-2.81583
-2.51795
-2.6467
-3.13663
-3.90605
-4.88743
-6.03825
33.7413
33.1483
31.9014
29.9076
27.1381
23.5529
19.9129
13.9468
6.84497
0.531358
-5.56409
-9.09885
-8.95542
-8.22819
-7.08122
-5.87877
-4.84877
-4.13232
-3.78245
-3.79857
-4.13975
-4.82196
-5.79848
-7.00397
-8.22597
33.4883
32.5976
30.9716
28.5389
25.3187
21.3294
16.5146
10.9452
5.84933
2.13853
-2.55464
-6.12289
-6.82431
-6.43502
-5.79906
-5.19408
-4.75406
-4.58126
-4.69711
-5.08781
-5.57691
-6.42234
-7.60257
-9.02378
-10.5182
33.5074
32.3738
30.3793
27.4464
23.6959
19.3727
14.7104
9.90538
5.80689
2.44121
-1.01559
-4.14937
-5.434
-5.49383
-5.28902
-5.1535
-5.14228
-5.37595
-5.83909
-6.49752
-7.22159
-8.17826
-9.46371
-11.0257
-12.607
32.4077
30.0661
26.5773
22.1985
17.5508
13.1189
9.1475
5.88491
3.10403
0.23742
-2.5131
-4.25608
-4.94136
-5.21732
-5.45675
-5.78469
-6.30192
-7.02377
-7.89792
-8.71813
-9.59438
-10.8119
-12.3777
29.9679
25.9506
20.8734
15.7966
11.642
8.41026
5.8836
3.41573
0.94151
-1.55987
-3.65628
-5.00652
-5.68236
-6.08905
-6.53885
-7.11074
-7.85738
-8.76598
-9.54543
-10.3307
-11.5132
-13.0984
29.9828
25.5531
19.8985
14.482
10.5046
7.77674
5.71109
3.53778
1.28786
-1.10532
-3.46944
-5.4003
-6.28722
-6.58778
-6.94319
-7.47886
-8.23557
-9.17369
-9.95903
-10.73
-11.9182
-13.5201
25.338
19.3855
13.7674
9.8623
7.37582
5.46218
3.54415
1.45808
-0.844106
-3.33912
-5.56313
-6.56622
-6.81376
-7.12188
-7.65245
-8.42853
-9.37694
-10.163
-10.9342
-12.1281
-13.7293
-15.2783
25.3214
19.3658
13.7552
9.86217
7.37861
5.45761
3.53481
1.4493
-0.849473
-3.33623
-5.55598
-6.56146
-6.80846
-7.11294
-7.64141
-8.41834
-9.36649
-10.1511
-10.9239
-12.1207
-13.7243
-15.2737
25.5083
19.8378
14.4315
10.4783
7.76041
5.679
3.49772
1.25048
-1.13167
-3.46915
-5.38489
-6.27812
-6.57596
-6.92092
-7.44943
-8.20647
-9.14478
-9.93175
-10.7069
-11.9008
-13.5079
-15.0589
25.8889
20.795
15.7236
11.5837
8.36212
5.82434
3.35111
0.884114
-1.60501
-3.66272
-4.98578
-5.66118
-6.06721
-6.50587
-7.06286
-7.80471
-8.71473
-9.50041
-10.2892
-11.4772
-13.0716
-14.6176
-16.1662
26.5058
22.111
17.4597
13.0199
9.04733
5.77871
3.00717
0.214364
-2.52464
-4.2393
-4.90268
-5.18769
-5.43792
-5.75832
-6.2552
-6.96881
-7.84422
-8.66872
-9.54884
-10.7748
-12.3513
-13.9071
-15.5084
27.3645
23.5955
19.2659
14.5784
9.74794
5.64978
2.32916
-1.03789
-4.10966
-5.36289
-5.40419
-5.22518
-5.10872
-5.09666
-5.30188
-5.76122
-6.4321
-7.15973
-8.12627
-9.42653
-11.006
-12.6174
-14.3636
25.2258
21.2213
16.3718
10.7537
5.65345
2.49627
-1.45472
-4.80439
-6.77363
-6.36037
-5.72762
-5.13283
-4.72354
-4.53216
-4.66125
-5.08041
-5.56293
-6.41235
-7.60381
-9.03918
-10.552
-12.3924
-14.6794
27.0501
23.4498
18.5278
12.8153
6.69307
1.34576
-3.89932
-7.55069
-8.87017
-8.12927
-6.97765
-5.78264
-4.78184
-4.07293
-3.74463
-3.78108
-4.13628
-4.83639
-5.83055
-7.06126
-8.28682
-9.88798
-11.8895
29.0363
25.6614
20.7755
14.5606
6.44927
-0.902779
-7.60347
-10.744
-11.3644
-10.43
-8.56892
-6.57413
-4.86489
-3.60013
-2.84102
-2.56425
-2.71018
-3.21104
-3.98557
-4.96839
-6.11717
-7.47123
-8.97297
31.2183
27.8206
23.0342
16.8752
6.41986
-5.07628
-13.0083
-14.1789
-15.2638
-13.5013
-10.5282
-7.41539
-4.81632
-2.94275
-1.80715
-1.32016
-1.34511
-1.74111
-2.39397
-3.23846
-4.25427
-5.42883
-6.67846
7.57104
-8.13378
-18.9235
-19.0329
-20.511
-17.3921
-12.8911
-8.54368
-4.86719
-2.26616
-0.720517
-0.107952
-0.1873
-0.682622
-1.39556
-2.26298
-3.26956
-4.34923
-5.39953
11.1721
-15.2888
-21.7691
-25.611
-25.1822
-21.8011
-16.0274
-9.96481
-5.33762
-2.30735
-0.606271
-0.0165745
-0.260628
-0.969481
-1.88209
-2.83845
-3.73336
-4.49699
-5.04741
-21.7204
-34.1412
-32.4941
-30.8285
-25.0138
-19.0495
-12.5384
-6.06189
-2.95609
-1.7946
-1.66958
-1.93617
-2.33646
-2.80858
-3.28542
-3.71108
-4.03709
-4.2066
-53.4664
-26.3673
-36.5942
-37.668
-26.2897
-22.9411
-15.0335
-8.51334
-3.22353
-1.38073
-1.33743
-1.71912
-2.10104
-2.50744
-2.93875
-3.32456
-3.56706
-3.57626
-21.9565
-14.7618
-8.46566
-1.99862
0.0770022
-0.23791
-0.982461
-1.59658
-2.14394
-2.64409
-3.01286
-3.16499
-3.03123
-19.5447
-9.64068
-4.07495
2.33079
2.87019
2.02702
1.07432
0.312072
-0.326553
-0.866721
-1.2608
-1.44744
-1.36396
-14.768
-4.17627
1.36211
3.61837
3.89053
3.38314
2.69612
2.01155
1.36182
0.776539
0.306623
0.0073299
-0.0677884
12.9664
10.668
7.67104
4.0023
0.0268536
-3.58707
-6.2707
-7.87391
-8.71631
-9.18742
-9.43461
-9.42393
-9.03916
-8.12478
-6.63546
14.5695
11.9283
8.16222
3.19006
-2.41713
-7.3726
-10.5838
-11.8289
-12.1352
-12.3137
-12.4849
-12.5145
-12.1503
-10.9496
-8.65257
16.875
13.9329
9.18365
2.15795
-5.96374
-12.9376
-16.7694
-16.8808
-16.1981
-16.0571
-16.3275
-16.7675
-16.9231
-15.4154
-11.5779
-7.12726
-3.46072
-1.01809
0.3721
1.06449
1.32356
1.30735
1.11774
20.2347
17.2655
11.5766
3.33333
-8.51907
-18.6626
-25.265
-21.831
-19.4266
-18.7597
-19.2764
-21.1689
-22.1498
-21.6635
-15.9208
-7.79405
-2.98889
-0.0706714
1.4334
2.08581
2.24075
2.10299
1.80284
25.1178
23.2422
16.8552
5.06512
-19.349
-38.7322
-39.0877
-28.986
-23.9576
-22.0852
-21.6
-24.5646
-33.4155
-36.0551
-23.1546
-10.064
-1.09008
1.95274
3.05766
3.28954
3.11118
2.72899
2.25252
31.6599
30.1487
29.1849
10.6952
-36.7253
-78.2137
-78.2984
-20.6284
-20.4995
-20.5416
-17.695
-17.2864
-55.3042
-75.3542
-34.5345
-8.82249
-0.549537
4.12734
4.9807
4.59585
3.86556
3.1111
2.38189
1.70686
38.3631
41.2174
48.4005
46.4921
-8.16728
0.470977
3.81294
5.08036
4.43679
3.35288
2.38787
1.53736
0.782545
0.178889
42.4574
48.9458
63.5163
81.5121
-13.509
-4.80305
-0.522769
1.73238
1.55232
0.789426
0.11975
-0.498518
-1.08947
-1.57337
42.8807
49.55
61.7903
77.0457
-15.3525
-8.03956
-1.91224
0.157908
0.0148003
-0.60205
-1.15979
-1.7128
-2.27174
-2.76804
-3.10233
41.3145
45.9319
52.2305
53.7385
40.2558
20.1244
27.8766
44.4285
49.827
-42.0693
-36.9238
-33.0412
-26.1936
-21.0957
-12.5846
-2.80309
0.34395
1.66295
1.69563
1.09529
0.235661
-0.764611
-1.7847
-2.69802
-3.42899
39.1598
41.6531
43.3507
44.4192
38.3587
32.2628
33.4667
39.2206
45.0071
-41.3219
-31.8016
-30.2126
-24.7355
-17.9623
-7.68258
-2.8285
-0.193047
1.56101
2.26896
1.99007
1.14479
0.0449317
-1.12614
-2.25163
-3.27279
37.3185
38.5636
39.0623
38.0138