/*--------------------------------*- C++ -*----------------------------------*\
  =========                 |
  \\      /  F ield         | OpenFOAM: The Open Source CFD Toolbox
   \\    /   O peration     | Website:  https://openfoam.org
    \\  /    A nd           | Version:  13
     \\/     M anipulation  |
\*---------------------------------------------------------------------------*/
FoamFile
{
    format      ascii;
    class       volScalarField;
    location    "900";
    object      nut;
}
// * * * * * * * * * * * * * * * * * * * * * * * * * * * * * * * * * * * * * //

dimensions      [0 2 -1 0 0 0 0];

internalField   nonuniform List<scalar> 
172836
(
0.0176273
0.0176163
0.0176053
0.0175944
0.0175834
0.0175724
0.0175615
0.0175506
0.0176429
0.017632
0.0176211
0.0176102
0.0175994
0.0175885
0.0175777
0.0175669
0.0176896
0.0176788
0.0176681
0.0176573
0.0176466
0.0176359
0.0176252
0.0176145
0.0176038
0.0177555
0.0177448
0.0177342
0.0177235
0.0177129
0.0177024
0.0176918
0.0176812
0.0176707
0.0178611
0.0178504
0.0178398
0.0178292
0.0178186
0.0178081
0.0177976
0.0177871
0.0177767
0.018013
0.0180022
0.0179915
0.0179808
0.0179702
0.0179596
0.0179491
0.0179386
0.0179281
0.0182128
0.0182018
0.0181909
0.01818
0.0181692
0.0181585
0.0181479
0.0181373
0.0181268
0.0184568
0.0184456
0.0184345
0.0184235
0.0184126
0.0184018
0.0183911
0.0183805
0.01837
0.0187156
0.0187046
0.0186938
0.018683
0.0186724
0.0186619
0.0186515
0.0186413
0.0176531
0.0176422
0.0176313
0.0176203
0.0176094
0.0175985
0.0175876
0.0175767
0.0175658
0.0175549
0.017544
0.0175332
0.0175229
0.017668
0.0176572
0.0176463
0.0176355
0.0176247
0.0176139
0.0176031
0.0175923
0.0175816
0.0175708
0.01756
0.0175493
0.0175392
0.0177029
0.0176922
0.0176815
0.0176709
0.0176602
0.0176495
0.0176388
0.0176282
0.0176176
0.0176069
0.0175963
0.0175858
0.0175757
0.0177677
0.0177571
0.0177465
0.0177359
0.0177254
0.0177148
0.0177043
0.0176938
0.0176833
0.0176728
0.0176623
0.0176519
0.017642
0.0178723
0.0178616
0.017851
0.0178405
0.0178299
0.0178194
0.017809
0.0177985
0.0177881
0.0177777
0.0177673
0.017757
0.0177473
0.0180234
0.0180126
0.0180019
0.0179912
0.0179806
0.01797
0.0179595
0.017949
0.0179385
0.0179281
0.0179178
0.0179075
0.0178978
0.0182228
0.0182117
0.0182007
0.0181898
0.018179
0.0181682
0.0181576
0.018147
0.0181364
0.018126
0.0181156
0.0181053
0.0180956
0.0184662
0.0184548
0.0184436
0.0184325
0.0184215
0.0184106
0.0183998
0.0183891
0.0183785
0.018368
0.0183576
0.0183474
0.0183377
0.0187342
0.0187229
0.0187118
0.0187008
0.0186899
0.0186792
0.0186686
0.0186581
0.0186477
0.0186374
0.0186272
0.0186173
0.0186078
0.0188759
0.0184026
0.0183899
0.0183772
0.0183644
0.0183517
0.0183389
0.0183262
0.0183135
0.0183008
0.0182881
0.0182754
0.0182628
0.0182502
0.0182376
0.018225
0.0182125
0.0182
0.0181875
0.018175
0.0181626
0.0181501
0.0181376
0.0181252
0.0181127
0.0181003
0.0180878
0.0180754
0.0180631
0.0180507
0.0180384
0.0180262
0.018014
0.0180018
0.0179898
0.0179778
0.0179658
0.017954
0.0179422
0.0179306
0.017919
0.0179075
0.017896
0.0178847
0.0178734
0.0178623
0.0178512
0.0178401
0.0178292
0.0178183
0.0178074
0.0177966
0.0177858
0.017775
0.0177643
0.0177536
0.0177429
0.0177322
0.0177215
0.0177108
0.0177
0.0176893
0.0176785
0.0176677
0.0176569
0.017646
0.0176352
0.0176243
0.0176134
0.0176026
0.0175917
0.0175809
0.01757
0.0175592
0.0175484
0.0175375
0.0175268
0.0175165
0.0184114
0.0183988
0.0183863
0.0183737
0.0183611
0.0183485
0.0183359
0.0183233
0.0183107
0.0182982
0.0182856
0.0182731
0.0182606
0.0182482
0.0182358
0.0182234
0.018211
0.0181986
0.0181863
0.0181739
0.0181616
0.0181492
0.0181369
0.0181245
0.0181122
0.0180999
0.0180875
0.0180753
0.018063
0.0180508
0.0180386
0.0180265
0.0180145
0.0180024
0.0179905
0.0179787
0.0179669
0.0179552
0.0179436
0.017932
0.0179206
0.0179092
0.017898
0.0178868
0.0178756
0.0178646
0.0178536
0.0178427
0.0178318
0.017821
0.0178103
0.0177995
0.0177888
0.0177782
0.0177675
0.0177568
0.0177462
0.0177355
0.0177249
0.0177142
0.0177035
0.0176928
0.0176821
0.0176713
0.0176605
0.0176498
0.017639
0.0176283
0.0176175
0.0176068
0.017596
0.0175853
0.0175746
0.0175638
0.0175531
0.0175425
0.0175324
0.0184355
0.0184233
0.0184111
0.0183989
0.0183866
0.0183743
0.018362
0.0183497
0.0183374
0.0183251
0.0183128
0.0183006
0.0182883
0.0182761
0.0182639
0.0182518
0.0182396
0.0182275
0.0182153
0.0182032
0.0181911
0.0181789
0.0181668
0.0181546
0.0181425
0.0181304
0.0181182
0.0181061
0.018094
0.018082
0.0180699
0.018058
0.018046
0.0180341
0.0180223
0.0180106
0.0179989
0.0179873
0.0179758
0.0179643
0.017953
0.0179417
0.0179305
0.0179194
0.0179083
0.0178974
0.0178865
0.0178756
0.0178648
0.0178541
0.0178434
0.0178327
0.0178221
0.0178115
0.0178009
0.0177903
0.0177797
0.0177692
0.0177586
0.017748
0.0177374
0.0177268
0.0177162
0.0177055
0.0176948
0.0176842
0.0176735
0.0176629
0.0176523
0.0176417
0.0176311
0.0176205
0.0176099
0.0175993
0.0175887
0.0175782
0.0175682
0.018489
0.0184774
0.0184658
0.018454
0.0184422
0.0184304
0.0184185
0.0184066
0.0183946
0.0183827
0.0183707
0.0183587
0.0183468
0.0183349
0.0183229
0.018311
0.0182992
0.0182873
0.0182754
0.0182635
0.0182516
0.0182397
0.0182277
0.0182158
0.0182039
0.0181919
0.01818
0.018168
0.0181561
0.0181442
0.0181323
0.0181204
0.0181086
0.0180969
0.0180851
0.0180735
0.0180619
0.0180504
0.0180389
0.0180275
0.0180162
0.018005
0.0179938
0.0179827
0.0179716
0.0179607
0.0179498
0.0179389
0.0179281
0.0179174
0.0179067
0.017896
0.0178854
0.0178748
0.0178642
0.0178537
0.0178431
0.0178326
0.017822
0.0178115
0.0178009
0.0177904
0.0177798
0.0177692
0.0177586
0.0177481
0.0177375
0.017727
0.0177165
0.017706
0.0176956
0.0176851
0.0176747
0.0176642
0.0176538
0.0176435
0.0176336
0.0185899
0.0185789
0.0185679
0.0185567
0.0185453
0.0185339
0.0185224
0.0185108
0.0184992
0.0184875
0.0184757
0.018464
0.0184522
0.0184405
0.0184288
0.018417
0.0184053
0.0183935
0.0183818
0.01837
0.0183582
0.0183464
0.0183346
0.0183228
0.0183109
0.018299
0.0182871
0.0182753
0.0182634
0.0182515
0.0182396
0.0182278
0.018216
0.0182042
0.0181924
0.0181807
0.0181691
0.0181575
0.0181459
0.0181344
0.018123
0.0181116
0.0181003
0.018089
0.0180778
0.0180667
0.0180556
0.0180446
0.0180336
0.0180227
0.0180118
0.0180009
0.0179901
0.0179794
0.0179686
0.0179579
0.0179472
0.0179365
0.0179258
0.0179152
0.0179045
0.0178939
0.0178832
0.0178726
0.017862
0.0178514
0.0178409
0.0178304
0.01782
0.0178095
0.0177991
0.0177887
0.0177784
0.017768
0.0177577
0.0177475
0.0177378
0.0187506
0.0187402
0.0187296
0.0187188
0.0187078
0.0186966
0.0186853
0.0186739
0.0186624
0.0186508
0.018639
0.0186273
0.0186155
0.0186038
0.018592
0.0185802
0.0185684
0.0185566
0.0185447
0.0185329
0.018521
0.0185091
0.0184972
0.0184852
0.0184733
0.0184613
0.0184493
0.0184373
0.0184252
0.0184132
0.0184012
0.0183892
0.0183772
0.0183652
0.0183532
0.0183412
0.0183293
0.0183174
0.0183055
0.0182937
0.0182819
0.0182702
0.0182585
0.0182468
0.0182352
0.0182237
0.0182122
0.0182007
0.0181893
0.0181779
0.0181666
0.0181553
0.0181441
0.0181329
0.0181217
0.0181106
0.0180995
0.0180885
0.0180774
0.0180665
0.0180555
0.0180446
0.0180337
0.0180228
0.018012
0.0180013
0.0179906
0.01798
0.0179694
0.0179589
0.0179485
0.0179381
0.0179277
0.0179174
0.0179071
0.0178969
0.0178873
0.0189681
0.0189581
0.0189478
0.0189373
0.0189265
0.0189155
0.0189042
0.0188928
0.0188813
0.0188696
0.0188578
0.018846
0.0188341
0.0188221
0.0188102
0.0187982
0.0187862
0.0187742
0.0187621
0.0187501
0.018738
0.0187259
0.0187137
0.0187016
0.0186894
0.0186772
0.018665
0.0186527
0.0186405
0.0186282
0.0186159
0.0186036
0.0185913
0.018579
0.0185667
0.0185544
0.0185421
0.0185298
0.0185175
0.0185053
0.018493
0.0184808
0.0184686
0.0184564
0.0184442
0.0184321
0.01842
0.0184079
0.0183959
0.0183839
0.018372
0.0183601
0.0183482
0.0183364
0.0183247
0.018313
0.0183014
0.0182898
0.0182782
0.0182668
0.0182553
0.018244
0.0182327
0.0182215
0.0182103
0.0181993
0.0181884
0.0181775
0.0181668
0.0181561
0.0181455
0.018135
0.0181245
0.0181141
0.0181038
0.0180937
0.018084
0.0192162
0.0192068
0.0191972
0.0191872
0.0191768
0.0191663
0.0191554
0.0191444
0.0191332
0.0191218
0.0191103
0.0190986
0.0190869
0.0190751
0.0190633
0.0190515
0.0190396
0.0190276
0.0190157
0.0190037
0.0189917
0.0189796
0.0189676
0.0189555
0.0189433
0.0189312
0.018919
0.0189068
0.0188946
0.0188823
0.0188701
0.0188578
0.0188454
0.0188331
0.0188207
0.0188083
0.0187958
0.0187833
0.0187709
0.0187584
0.0187458
0.0187333
0.0187207
0.0187082
0.0186956
0.0186831
0.0186705
0.018658
0.0186455
0.018633
0.0186206
0.0186081
0.0185958
0.0185834
0.0185712
0.018559
0.0185468
0.0185347
0.0185227
0.0185108
0.018499
0.0184872
0.0184755
0.018464
0.0184526
0.0184412
0.0184301
0.018419
0.0184081
0.0183973
0.0183866
0.018376
0.0183655
0.0183551
0.0183448
0.0183346
0.018325
0.019452
0.0194439
0.0194353
0.0194264
0.0194172
0.0194077
0.0193978
0.0193878
0.0193775
0.019367
0.0193564
0.0193456
0.0193347
0.0193238
0.0193127
0.0193016
0.0192905
0.0192793
0.019268
0.0192568
0.0192454
0.0192341
0.0192227
0.0192113
0.0191998
0.0191884
0.0191768
0.0191653
0.0191537
0.0191421
0.0191304
0.0191187
0.0191069
0.0190951
0.0190832
0.0190713
0.0190593
0.0190473
0.0190352
0.019023
0.0190108
0.0189986
0.0189863
0.018974
0.0189616
0.0189492
0.0189367
0.0189243
0.0189119
0.0188994
0.018887
0.0188746
0.0188622
0.0188498
0.0188375
0.0188253
0.0188131
0.018801
0.0187889
0.018777
0.0187651
0.0187534
0.0187417
0.0187302
0.0187188
0.0187076
0.0186965
0.0186855
0.0186747
0.0186641
0.0186536
0.0186432
0.0186329
0.0186227
0.0186127
0.0186028
0.0185934
0.0196504
0.0196438
0.0196367
0.0196292
0.0196214
0.0196132
0.0196047
0.0195959
0.0195869
0.0195777
0.0195683
0.0195587
0.0195491
0.0195393
0.0195294
0.0195195
0.0195095
0.0194994
0.0194893
0.0194792
0.019469
0.0194588
0.0194486
0.0194383
0.019428
0.0194176
0.0194072
0.0193968
0.0193863
0.0193758
0.0193652
0.0193546
0.0193438
0.0193331
0.0193222
0.0193113
0.0193002
0.0192891
0.0192779
0.0192667
0.0192553
0.0192439
0.0192324
0.0192208
0.0192092
0.0191975
0.0191857
0.0191739
0.0191621
0.0191503
0.0191384
0.0191266
0.0191147
0.0191029
0.0190911
0.0190794
0.0190677
0.019056
0.0190445
0.019033
0.0190217
0.0190104
0.0189992
0.0189882
0.0189773
0.0189666
0.018956
0.0189456
0.0189354
0.0189253
0.0189154
0.0189056
0.0188959
0.0188863
0.0188768
0.0188676
0.0188587
0.0198115
0.0198064
0.0198009
0.0197949
0.0197884
0.0197816
0.0197745
0.019767
0.0197593
0.0197513
0.0197432
0.0197348
0.0197264
0.0197178
0.0197091
0.0197004
0.0196916
0.0196828
0.019674
0.019665
0.0196561
0.0196471
0.0196381
0.0196291
0.01962
0.0196109
0.0196017
0.0195925
0.0195832
0.0195739
0.0195646
0.0195551
0.0195456
0.019536
0.0195264
0.0195166
0.0195067
0.0194967
0.0194866
0.0194765
0.0194662
0.0194558
0.0194453
0.0194347
0.019424
0.0194132
0.0194024
0.0193915
0.0193806
0.0193696
0.0193586
0.0193475
0.0193365
0.0193255
0.0193145
0.0193035
0.0192925
0.0192817
0.0192709
0.0192602
0.0192496
0.0192391
0.0192287
0.0192184
0.0192083
0.0191983
0.0191885
0.0191789
0.0191694
0.0191601
0.019151
0.019142
0.0191331
0.0191243
0.0191157
0.0191072
0.0190991
0.0199462
0.0199427
0.0199386
0.019934
0.0199289
0.0199234
0.0199174
0.0199111
0.0199045
0.0198977
0.0198906
0.0198834
0.019876
0.0198685
0.0198609
0.0198532
0.0198455
0.0198378
0.01983
0.0198222
0.0198143
0.0198065
0.0197986
0.0197907
0.0197828
0.0197749
0.0197669
0.0197589
0.0197508
0.0197427
0.0197345
0.0197263
0.019718
0.0197095
0.019701
0.0196923
0.0196836
0.0196747
0.0196656
0.0196565
0.0196472
0.0196378
0.0196283
0.0196186
0.0196088
0.0195989
0.0195889
0.0195789
0.0195688
0.0195586
0.0195483
0.0195381
0.0195278
0.0195175
0.0195072
0.019497
0.0194868
0.0194767
0.0194667
0.0194567
0.0194469
0.0194371
0.0194275
0.019418
0.0194087
0.0193995
0.0193905
0.0193817
0.0193731
0.0193646
0.0193563
0.0193482
0.0193401
0.0193322
0.0193245
0.0193169
0.0193095
0.0200672
0.0200652
0.0200626
0.0200594
0.0200556
0.0200512
0.0200464
0.0200411
0.0200355
0.0200295
0.0200234
0.020017
0.0200104
0.0200038
0.019997
0.0199902
0.0199834
0.0199765
0.0199696
0.0199627
0.0199558
0.0199489
0.019942
0.0199351
0.0199282
0.0199213
0.0199144
0.0199074
0.0199004
0.0198934
0.0198863
0.0198791
0.0198718
0.0198644
0.0198569
0.0198492
0.0198414
0.0198334
0.0198253
0.019817
0.0198086
0.0198
0.0197912
0.0197823
0.0197732
0.019764
0.0197546
0.0197452
0.0197356
0.019726
0.0197164
0.0197067
0.0196969
0.0196872
0.0196775
0.0196678
0.0196582
0.0196486
0.0196391
0.0196298
0.0196205
0.0196114
0.0196025
0.0195936
0.019585
0.0195766
0.0195683
0.0195603
0.0195524
0.0195447
0.0195372
0.0195299
0.0195227
0.0195156
0.0195087
0.019502
0.0194954
0.0201856
0.0201853
0.0201842
0.0201823
0.0201797
0.0201764
0.0201726
0.0201682
0.0201634
0.0201582
0.0201527
0.020147
0.020141
0.020135
0.0201289
0.0201227
0.0201165
0.0201103
0.0201041
0.0200979
0.0200918
0.0200857
0.0200796
0.0200736
0.0200676
0.0200616
0.0200557
0.0200497
0.0200437
0.0200376
0.0200315
0.0200253
0.020019
0.0200125
0.0200059
0.0199991
0.0199921
0.019985
0.0199776
0.01997
0.0199622
0.0199541
0.0199459
0.0199374
0.0199287
0.0199199
0.0199109
0.0199017
0.0198925
0.0198831
0.0198737
0.0198642
0.0198546
0.0198451
0.0198356
0.0198261
0.0198168
0.0198075
0.0197983
0.0197893
0.0197804
0.0197717
0.0197632
0.0197549
0.0197467
0.0197389
0.0197312
0.0197238
0.0197166
0.0197097
0.0197029
0.0196963
0.0196899
0.0196837
0.0196775
0.0196716
0.0196659
0.0203107
0.0203122
0.0203127
0.0203122
0.0203109
0.0203087
0.0203058
0.0203022
0.020298
0.0202934
0.0202884
0.0202831
0.0202777
0.020272
0.0202663
0.0202605
0.0202547
0.020249
0.0202433
0.0202377
0.0202321
0.0202267
0.0202213
0.020216
0.0202108
0.0202057
0.0202006
0.0201955
0.0201905
0.0201853
0.0201802
0.0201749
0.0201694
0.0201639
0.0201581
0.020152
0.0201458
0.0201392
0.0201324
0.0201253
0.0201179
0.0201102
0.0201022
0.020094
0.0200854
0.0200766
0.0200676
0.0200584
0.0200491
0.0200396
0.02003
0.0200204
0.0200107
0.020001
0.0199914
0.0199818
0.0199723
0.019963
0.0199538
0.0199449
0.0199361
0.0199276
0.0199193
0.0199112
0.0199034
0.0198959
0.0198887
0.0198818
0.0198752
0.0198689
0.0198628
0.0198569
0.0198513
0.0198458
0.0198405
0.0198354
0.0198304
0.02045
0.0204535
0.0204557
0.0204567
0.0204566
0.0204555
0.0204534
0.0204504
0.0204467
0.0204425
0.0204378
0.0204328
0.0204275
0.020422
0.0204164
0.0204108
0.0204052
0.0203997
0.0203943
0.0203891
0.020384
0.0203791
0.0203743
0.0203698
0.0203653
0.020361
0.0203568
0.0203527
0.0203486
0.0203444
0.0203402
0.0203359
0.0203314
0.0203267
0.0203217
0.0203165
0.0203108
0.0203049
0.0202985
0.0202918
0.0202846
0.0202771
0.0202691
0.0202608
0.020252
0.0202429
0.0202335
0.0202238
0.0202139
0.0202038
0.0201937
0.0201834
0.0201731
0.0201628
0.0201526
0.0201425
0.0201326
0.0201228
0.0201133
0.0201041
0.0200951
0.0200864
0.0200781
0.0200701
0.0200624
0.0200551
0.0200482
0.0200417
0.0200356
0.0200298
0.0200243
0.0200191
0.0200141
0.0200094
0.0200048
0.0200005
0.0199963
0.0206091
0.0206148
0.0206188
0.0206214
0.0206226
0.0206224
0.020621
0.0206185
0.0206151
0.0206111
0.0206065
0.0206014
0.0205959
0.0205903
0.0205845
0.0205787
0.0205731
0.0205675
0.0205621
0.020557
0.0205521
0.0205476
0.0205433
0.0205393
0.0205355
0.020532
0.0205286
0.0205254
0.0205222
0.0205191
0.0205159
0.0205125
0.020509
0.0205052
0.020501
0.0204965
0.0204915
0.020486
0.0204801
0.0204736
0.0204666
0.0204589
0.0204507
0.0204419
0.0204326
0.0204228
0.0204127
0.0204021
0.0203913
0.0203802
0.020369
0.0203576
0.0203463
0.020335
0.0203238
0.0203127
0.0203019
0.0202913
0.0202811
0.0202712
0.0202617
0.0202526
0.0202439
0.0202357
0.020228
0.0202207
0.0202139
0.0202076
0.0202018
0.0201963
0.0201913
0.0201866
0.0201823
0.0201782
0.0201743
0.0201708
0.0201673
0.0207903
0.0207982
0.0208041
0.0208081
0.0208103
0.0208109
0.0208099
0.0208075
0.0208042
0.0207999
0.0207948
0.0207892
0.0207831
0.0207768
0.0207704
0.0207639
0.0207577
0.0207516
0.0207458
0.0207405
0.0207355
0.0207309
0.0207269
0.0207232
0.02072
0.0207171
0.0207145
0.0207121
0.0207099
0.0207078
0.0207056
0.0207033
0.0207007
0.0206979
0.0206946
0.0206908
0.0206865
0.0206816
0.020676
0.0206696
0.0206624
0.0206545
0.0206458
0.0206363
0.0206262
0.0206154
0.0206041
0.0205923
0.0205801
0.0205677
0.020555
0.0205421
0.0205292
0.0205164
0.0205037
0.0204913
0.0204791
0.0204673
0.0204559
0.020445
0.0204345
0.0204246
0.0204152
0.0204064
0.0203982
0.0203906
0.0203836
0.0203772
0.0203714
0.0203661
0.0203613
0.0203568
0.0203528
0.0203491
0.0203456
0.0203425
0.0203395
0.0209894
0.020999
0.0210062
0.0210112
0.0210139
0.0210147
0.0210136
0.0210109
0.0210069
0.0210017
0.0209956
0.0209887
0.0209813
0.0209735
0.0209656
0.0209577
0.02095
0.0209427
0.0209357
0.0209293
0.0209234
0.0209182
0.0209136
0.0209096
0.0209063
0.0209035
0.0209011
0.0208992
0.0208975
0.020896
0.0208946
0.020893
0.0208913
0.0208893
0.0208868
0.0208837
0.02088
0.0208754
0.02087
0.0208636
0.0208563
0.0208481
0.020839
0.0208289
0.020818
0.0208063
0.0207939
0.0207809
0.0207674
0.0207534
0.0207392
0.0207248
0.0207102
0.0206957
0.0206813
0.0206672
0.0206534
0.02064
0.0206271
0.0206147
0.0206029
0.0205917
0.0205811
0.0205712
0.0205621
0.0205536
0.0205458
0.0205387
0.0205322
0.0205264
0.0205211
0.0205162
0.0205118
0.0205077
0.020504
0.0205006
0.0204972
0.0211839
0.0211936
0.0212007
0.0212053
0.0212076
0.0212077
0.0212058
0.0212021
0.0211966
0.0211897
0.0211815
0.0211723
0.0211624
0.0211521
0.0211415
0.0211309
0.0211205
0.0211105
0.021101
0.0210921
0.0210839
0.0210766
0.02107
0.0210643
0.0210595
0.0210554
0.021052
0.0210492
0.0210469
0.021045
0.0210434
0.0210418
0.0210402
0.0210384
0.0210362
0.0210334
0.0210299
0.0210257
0.0210206
0.0210147
0.0210079
0.0210001
0.0209914
0.0209816
0.020971
0.0209594
0.020947
0.0209338
0.02092
0.0209055
0.0208906
0.0208753
0.0208598
0.0208441
0.0208284
0.0208128
0.0207975
0.0207825
0.0207678
0.0207537
0.0207402
0.0207272
0.0207148
0.0207031
0.0206921
0.0206818
0.0206722
0.0206632
0.0206549
0.0206472
0.02064
0.0206333
0.020627
0.020621
0.0206153
0.02061
0.0206047
0.0213184
0.0213253
0.0213299
0.0213324
0.0213328
0.0213313
0.0213279
0.0213225
0.0213148
0.0213052
0.021294
0.0212814
0.0212677
0.0212533
0.0212383
0.0212231
0.0212079
0.0211929
0.0211782
0.021164
0.0211506
0.021138
0.0211262
0.0211155
0.0211057
0.0210969
0.0210891
0.0210822
0.0210761
0.0210709
0.0210663
0.0210622
0.0210585
0.021055
0.0210514
0.0210479
0.0210444
0.0210408
0.021037
0.0210331
0.0210288
0.0210241
0.0210187
0.0210127
0.0210058
0.0209981
0.0209896
0.02098
0.0209696
0.0209582
0.020946
0.0209329
0.0209192
0.0209049
0.02089
0.0208748
0.0208593
0.0208437
0.020828
0.0208125
0.0207971
0.0207819
0.0207671
0.0207526
0.0207384
0.0207247
0.0207113
0.0206984
0.0206859
0.0206738
0.020662
0.0206504
0.0206391
0.020628
0.020617
0.0206064
0.0205958
0.0212876
0.0212857
0.021283
0.0212796
0.0212754
0.02127
0.0212618
0.0212509
0.0212377
0.0212222
0.0212048
0.0211857
0.0211652
0.0211434
0.0211206
0.0210971
0.021073
0.0210487
0.0210244
0.0210002
0.0209765
0.0209533
0.0209309
0.0209094
0.0208891
0.0208699
0.020852
0.0208355
0.0208205
0.020807
0.0207949
0.0207842
0.0207745
0.0207666
0.0207606
0.0207568
0.020755
0.0207552
0.0207573
0.0207609
0.0207657
0.0207713
0.0207772
0.0207831
0.0207885
0.0207931
0.0207966
0.0207987
0.0207992
0.020798
0.020795
0.0207902
0.0207835
0.0207751
0.0207651
0.0207535
0.0207403
0.020726
0.0207105
0.0206941
0.0206768
0.0206588
0.0206401
0.0206208
0.020601
0.0205808
0.0205601
0.0205391
0.0205176
0.0204958
0.0204736
0.0204511
0.0204283
0.0204053
0.0203822
0.0203593
0.0208911
0.0208752
0.0208636
0.0208549
0.0208486
0.0208408
0.0208302
0.0208167
0.0208002
0.0207807
0.0207582
0.0207327
0.0207043
0.0206732
0.0206393
0.020603
0.0205644
0.0205239
0.0204816
0.020438
0.0203935
0.0203483
0.0203031
0.0202581
0.0202139
0.020171
0.0201297
0.0200905
0.0200537
0.0200199
0.0199895
0.0199615
0.0199382
0.0199206
0.0199095
0.0199053
0.0199083
0.0199183
0.0199349
0.0199574
0.019985
0.0200167
0.0200513
0.0200878
0.0201251
0.0201619
0.0201975
0.0202309
0.0202615
0.0202885
0.0203115
0.0203304
0.0203448
0.0203546
0.02036
0.0203608
0.0203572
0.0203494
0.0203377
0.0203223
0.0203035
0.0202813
0.0202561
0.0202279
0.020197
0.0201634
0.0201274
0.0200892
0.0200488
0.0200063
0.0199621
0.0199162
0.0198689
0.0198205
0.0197714
0.019723
0.0197771
0.0197549
0.0197458
0.0197433
0.0197379
0.0197305
0.0197204
0.0197069
0.0196892
0.0196669
0.0196393
0.0196062
0.0195672
0.0195221
0.019471
0.019414
0.0193514
0.0192836
0.0192111
0.0191345
0.0190547
0.0189725
0.0188887
0.0188045
0.0187208
0.0186387
0.0185597
0.0184843
0.0184145
0.0183492
0.0182923
0.0182466
0.0182144
0.0181973
0.0181961
0.018211
0.0182418
0.0182875
0.0183468
0.0184179
0.0184988
0.0185874
0.0186814
0.0187784
0.0188762
0.0189728
0.0190661
0.0191545
0.0192366
0.0193111
0.0193771
0.019434
0.0194811
0.0195183
0.0195455
0.0195624
0.0195693
0.0195668
0.0195553
0.0195351
0.0195067
0.0194703
0.0194265
0.0193758
0.0193189
0.0192562
0.0191886
0.0191168
0.0190415
0.0189637
0.0188846
0.0188051
0.0187268
0.018651
0.0185806
0.0175901
0.0175958
0.017611
0.0176262
0.0176411
0.0176537
0.0176623
0.017665
0.0176602
0.0176464
0.0176223
0.0175869
0.0175398
0.0174805
0.0174089
0.0173255
0.0172308
0.0171256
0.0170112
0.016889
0.0167606
0.0166279
0.0164933
0.016359
0.016228
0.0161024
0.0159862
0.0158812
0.0157911
0.015722
0.0156772
0.0156585
0.0156663
0.0156999
0.0157579
0.0158383
0.0159388
0.016057
0.0161903
0.0163361
0.0164919
0.0166549
0.0168226
0.0169921
0.0171608
0.0173259
0.017485
0.0176358
0.0177759
0.0179035
0.0180172
0.0181155
0.0181977
0.0182635
0.0183124
0.0183451
0.0183621
0.0183647
0.018354
0.0183316
0.0182993
0.0182592
0.0182136
0.0181649
0.0181161
0.01807
0.0180297
0.0179985
0.0179795
0.017976
0.0179909
0.0180272
0.0180869
0.0181666
0.0143585
0.0144087
0.014465
0.0145245
0.0145836
0.0146389
0.0146868
0.0147242
0.0147482
0.0147565
0.0147472
0.0147192
0.0146719
0.0146053
0.0145203
0.0144184
0.014302
0.0141743
0.0140391
0.0139015
0.0137669
0.0136416
0.0135322
0.0134451
0.0133871
0.0133635
0.0133804
0.0134399
0.0135373
0.0136655
0.0138171
0.0139846
0.0141618
0.0143435
0.0145262
0.0147074
0.0148859
0.0150614
0.015234
0.0154042
0.0155726
0.0157396
0.0159054
0.0160699
0.0162328
0.0163934
0.0165509
0.0167047
0.0168539
0.0169983
0.0171389
0.017276
0.0174099
0.0175478
0.0176896
0.0178349
0.0179844
0.0181399
0.0183036
0.0184781
0.0186665
0.0188719
0.0190974
0.019346
0.0196208
0.0199244
0.0202589
0.020626
0.0210268
0.0214617
0.0219313
0.0224335
0.022939
0.0106815
0.0107641
0.0108602
0.010966
0.0110768
0.0111872
0.0112924
0.0113879
0.0114702
0.0115366
0.0115858
0.0116178
0.0116346
0.0116401
0.0116408
0.011645
0.011663
0.0117061
0.0117859
0.0119126
0.0120944
0.0123368
0.0126398
0.0130059
0.0134272
0.0139029
0.0144249
0.0149625
0.0154904
0.0159893
0.0164463
0.0168538
0.0172089
0.0175127
0.0177685
0.0179818
0.0181591
0.0183078
0.0184352
0.0185487
0.0186552
0.0187615
0.0188734
0.0189968
0.0191372
0.0192996
0.0194885
0.0197086
0.0199629
0.0202547
0.0205899
0.0209666
0.0213887
0.0218674
0.0223888
0.0229443
0.0235279
0.0241351
0.0247622
0.0254071
0.0260684
0.0267454
0.0274377
0.0281468
0.0288748
0.0296218
0.0303871
0.031169
0.0319684
0.0327853
0.0336191
0.0344642
0.0352615
0.00769177
0.0077837
0.00789737
0.00802874
0.00817394
0.0083294
0.00849229
0.00866159
0.00883877
0.00902898
0.00924179
0.00949163
0.0097972
0.0101798
0.0106601
0.0112549
0.0119736
0.0128163
0.0137742
0.0148295
0.0159613
0.0171422
0.0183465
0.0195511
0.0207237
0.0218735
0.0229493
0.0239165
0.0247573
0.0254662
0.0260476
0.0265121
0.0268747
0.0271523
0.0273628
0.0275242
0.0276533
0.0277661
0.0278778
0.0280019
0.0281505
0.0283342
0.0285622
0.0288423
0.029182
0.0295889
0.0300635
0.0306035
0.0312083
0.0318785
0.0326041
0.0333855
0.0342255
0.0350908
0.0359712
0.0368598
0.0377523
0.0386419
0.0395214
0.0403902
0.0412484
0.0420968
0.0429375
0.0437722
0.0446033
0.045433
0.0462636
0.0470976
0.0479376
0.048786
0.0496441
0.0505055
0.0512932
0.00636342
0.00649209
0.00665581
0.00685948
0.0071109
0.00742377
0.00781928
0.0083271
0.0089841
0.00983035
0.0109024
0.012225
0.0138048
0.0156262
0.0176533
0.0198339
0.0221071
0.0244092
0.0266806
0.02887
0.0309326
0.0328444
0.0345734
0.0361265
0.0374815
0.0386188
0.0395446
0.0402781
0.0408451
0.0412752
0.0415984
0.0418437
0.0420382
0.0422064
0.0423698
0.0425469
0.0427538
0.0430036
0.043307
0.0436706
0.0440995
0.0445962
0.0451599
0.0457896
0.0464807
0.0472238
0.0480153
0.0488469
0.0496971
0.0505859
0.0514787
0.0523497
0.0532028
0.0540373
0.0548505
0.0556409
0.0564094
0.057157
0.0578863
0.0586009
0.0593044
0.0600012
0.0606939
0.0613873
0.0620852
0.0627861
0.0634923
0.0642048
0.0649293
0.0656692
0.0664161
0.0670861
0.00772272
0.00807575
0.00854927
0.00919394
0.0100633
0.011218
0.0127162
0.0146015
0.0168904
0.0195644
0.0225691
0.0258203
0.0292165
0.032651
0.0360243
0.0392517
0.0422664
0.0450241
0.0474924
0.0496657
0.0515361
0.0531201
0.054449
0.0555019
0.0563199
0.0569456
0.0574203
0.0577825
0.0580673
0.0583055
0.0585237
0.0587438
0.0589841
0.0592589
0.0595785
0.0599503
0.0603784
0.060864
0.0614053
0.0619987
0.0626404
0.0633223
0.0640349
0.0647714
0.0655248
0.0662752
0.0670315
0.0677879
0.0685002
0.069182
0.0698393
0.0704706
0.0710788
0.0716654
0.0722288
0.0727815
0.0733167
0.0738317
0.0743369
0.0748376
0.0753384
0.0758439
0.0763615
0.0768873
0.0774231
0.0779726
0.0785387
0.0791256
0.0797377
0.0803626
0.08091
0.0154644
0.0163119
0.0175251
0.0191949
0.0213729
0.0240777
0.0272828
0.0309132
0.034868
0.0390073
0.0431917
0.0472903
0.0511917
0.0548114
0.0580908
0.0610003
0.0635254
0.0656784
0.0674751
0.0689405
0.0701417
0.0710561
0.0717467
0.0722683
0.0726678
0.0729849
0.0732528
0.0734988
0.0737449
0.074008
0.0743013
0.0746338
0.0750104
0.0754322
0.0759019
0.0764145
0.076965
0.0775471
0.0781543
0.0787773
0.0794077
0.0800416
0.0806639
0.0812684
0.0818666
0.0824265
0.0829481
0.0834356
0.0838989
0.0843377
0.0847453
0.0851311
0.0855014
0.0858606
0.086213
0.0865617
0.0869093
0.0872586
0.0876128
0.0879754
0.0883471
0.0887325
0.08913
0.0895383
0.0899633
0.0904094
0.0908734
0.0913577
0.0918522
0.0922755
0.0286356
0.0300396
0.0322347
0.0351885
0.0387857
0.0428881
0.0473247
0.0519126
0.0564751
0.0608602
0.0649486
0.068659
0.0719433
0.0747872
0.0771943
0.079193
0.0808176
0.0821037
0.0831317
0.0838895
0.0844487
0.0848673
0.085192
0.0854595
0.0856992
0.085934
0.086181
0.0864526
0.0867556
0.0871
0.0874829
0.0879039
0.0883598
0.0888455
0.0893545
0.08988
0.090414
0.0909479
0.091476
0.0919919
0.0924843
0.0929519
0.0933974
0.0938036
0.0941662
0.0944985
0.0948077
0.095098
0.0953728
0.0956346
0.0958868
0.0961319
0.0963732
0.0966131
0.096854
0.0970981
0.097347
0.0976023
0.0978654
0.0981373
0.0984183
0.0987092
0.0990103
0.0993222
0.0996462
0.0999836
0.100337
0.1007
0.101003
0.0401973
0.0424494
0.0456381
0.0495562
0.05398
0.0586881
0.0634697
0.0681344
0.0725281
0.0765411
0.0801058
0.083192
0.0858018
0.0879568
0.0896998
0.0910778
0.0921374
0.0929555
0.0935418
0.0939628
0.0942728
0.094515
0.0947213
0.0949159
0.0951169
0.0953376
0.0955866
0.0958694
0.096188
0.0965417
0.0969271
0.0973398
0.0977728
0.0982191
0.0986723
0.0991237
0.0995672
0.0999972
0.100407
0.100795
0.101152
0.101479
0.101773
0.102043
0.102293
0.102525
0.102744
0.102952
0.10315
0.103341
0.103527
0.103708
0.103888
0.104067
0.104247
0.104427
0.104611
0.104797
0.104987
0.10518
0.105376
0.105576
0.105779
0.105985
0.106195
0.10641
0.106635
0.106871
0.107064
0.0555728
0.0596518
0.0641835
0.0688682
0.0735189
0.0779691
0.0820709
0.0857388
0.0889278
0.0916306
0.0938637
0.0956647
0.097083
0.0981738
0.0989865
0.0995893
0.10001
0.100302
0.100509
0.100668
0.100805
0.10094
0.101085
0.101252
0.101447
0.101673
0.101931
0.10222
0.102537
0.102877
0.103233
0.103599
0.103968
0.104333
0.104687
0.105032
0.105355
0.105656
0.105941
0.106208
0.106456
0.106688
0.106906
0.107114
0.107311
0.107499
0.107681
0.107856
0.108025
0.10819
0.10835
0.108507
0.108661
0.108812
0.10896
0.109105
0.109247
0.109387
0.109523
0.109655
0.109782
0.109905
0.110021
0.110133
0.110242
0.110355
0.110483
0.110585
0.0730482
0.0774358
0.0816379
0.0855766
0.0892381
0.0923611
0.0950035
0.0971955
0.0989626
0.100358
0.101425
0.102225
0.102799
0.103209
0.103482
0.10366
0.103771
0.103851
0.10391
0.103971
0.104038
0.104126
0.104234
0.104372
0.104538
0.104733
0.104954
0.105198
0.105459
0.105731
0.106009
0.106288
0.106564
0.106832
0.107097
0.107354
0.107608
0.107854
0.108093
0.108323
0.108548
0.108765
0.108977
0.10918
0.10938
0.109572
0.10976
0.10994
0.110116
0.110285
0.110449
0.110605
0.110755
0.110897
0.111031
0.111156
0.111272
0.111378
0.111472
0.111554
0.111624
0.11168
0.111722
0.111754
0.111786
0.111837
0.111875
0.0831706
0.0869994
0.0903881
0.0934702
0.0183956
0.0183829
0.0183702
0.0183575
0.0183447
0.018332
0.0183193
0.0183066
0.0182939
0.0182812
0.0182686
0.018256
0.0182434
0.0182308
0.0182183
0.0182058
0.0181933
0.0181808
0.0181684
0.0181559
0.0181434
0.018131
0.0181185
0.0181061
0.0180937
0.0180812
0.0180688
0.0180565
0.0180441
0.0180318
0.0180196
0.0180074
0.0179952
0.0179832
0.0179711
0.0179592
0.0179473
0.0179355
0.0179238
0.0179122
0.0179007
0.0178892
0.0178778
0.0178665
0.0178553
0.0178442
0.0178331
0.0178221
0.0178112
0.0178003
0.0177894
0.0177786
0.0177679
0.0177571
0.0177464
0.0177357
0.017725
0.0177143
0.0177036
0.0176929
0.0176821
0.0176714
0.0176606
0.0176498
0.017639
0.0176282
0.0176174
0.0176065
0.0175957
0.0175849
0.0175741
0.0175633
0.0175525
0.0175417
0.0175309
0.0175202
0.0175099
0.018404
0.0183915
0.0183789
0.0183663
0.0183538
0.0183412
0.0183286
0.018316
0.0183035
0.018291
0.0182784
0.018266
0.0182535
0.0182411
0.0182287
0.0182163
0.0182039
0.0181916
0.0181792
0.0181669
0.0181545
0.0181422
0.0181299
0.0181175
0.0181052
0.0180929
0.0180806
0.0180683
0.0180561
0.0180439
0.0180317
0.0180196
0.0180075
0.0179955
0.0179836
0.0179717
0.0179599
0.0179482
0.0179365
0.017925
0.0179135
0.0179021
0.0178908
0.0178795
0.0178684
0.0178573
0.0178463
0.0178353
0.0178244
0.0178136
0.0178028
0.017792
0.0177813
0.0177706
0.01776
0.0177493
0.0177387
0.017728
0.0177174
0.0177067
0.0176961
0.0176854
0.0176747
0.0176639
0.0176532
0.0176424
0.0176317
0.017621
0.0176103
0.0175996
0.0175889
0.0175782
0.0175675
0.0175568
0.0175461
0.0175355
0.0175255
0.0184273
0.0184151