/*--------------------------------*- C++ -*----------------------------------*\
  =========                 |
  \\      /  F ield         | OpenFOAM: The Open Source CFD Toolbox
   \\    /   O peration     | Website:  https://openfoam.org
    \\  /    A nd           | Version:  13
     \\/     M anipulation  |
\*---------------------------------------------------------------------------*/
FoamFile
{
    format      ascii;
    class       volScalarField;
    location    "900";
    object      omega;
}
// * * * * * * * * * * * * * * * * * * * * * * * * * * * * * * * * * * * * * //

dimensions      [0 0 -1 0 0 0 0];

internalField   nonuniform List<scalar> 
172836
(
11.8817
11.8442
11.8069
11.7698
11.7328
11.696
11.6594
11.623
11.8805
11.8431
11.8058
11.7687
11.7317
11.695
11.6584
11.622
11.9125
11.8748
11.8374
11.8001
11.763
11.726
11.6893
11.6527
11.6163
11.9002
11.8626
11.8252
11.7879
11.7508
11.7139
11.6772
11.6407
11.6043
11.8771
11.8396
11.8023
11.7651
11.7281
11.6913
11.6547
11.6182
11.582
11.8398
11.8025
11.7653
11.7283
11.6916
11.6549
11.6185
11.5822
11.5461
11.7863
11.7492
11.7124
11.6757
11.6392
11.6029
11.5667
11.5307
11.4948
11.7162
11.6796
11.6431
11.6068
11.5706
11.5346
11.4987
11.463
11.4275
11.6008
11.5646
11.5285
11.4925
11.4567
11.4211
11.3857
11.3504
11.9899
11.9519
11.9142
11.8766
11.8392
11.8019
11.7649
11.728
11.6913
11.6548
11.6185
11.5824
11.5467
11.9885
11.9505
11.9128
11.8753
11.8379
11.8007
11.7637
11.7269
11.6902
11.6537
11.6174
11.5813
11.5457
11.9827
11.9448
11.9071
11.8695
11.8321
11.7949
11.7579
11.7211
11.6844
11.6479
11.6116
11.5756
11.5399
11.9703
11.9324
11.8947
11.8572
11.8198
11.7827
11.7457
11.7089
11.6722
11.6358
11.5995
11.5634
11.5278
11.9468
11.909
11.8714
11.8339
11.7967
11.7596
11.7227
11.686
11.6495
11.6131
11.5769
11.5409
11.5054
11.9085
11.871
11.8336
11.7964
11.7593
11.7224
11.6857
11.6492
11.6128
11.5766
11.5406
11.5048
11.4695
11.8536
11.8164
11.7794
11.7424
11.7057
11.6691
11.6327
11.5965
11.5604
11.5244
11.4887
11.4531
11.418
11.7819
11.7451
11.7084
11.6718
11.6355
11.5992
11.5632
11.5272
11.4915
11.4559
11.4204
11.3852
11.3504
11.7014
11.6648
11.6284
11.5921
11.5559
11.5199
11.4841
11.4484
11.4129
11.3776
11.3424
11.3074
11.2729
11.1996
14.9196
14.8643
14.8093
14.7546
14.7003
14.6464
14.5927
14.5395
14.4866
14.434
14.3818
14.3299
14.2784
14.2272
14.1763
14.1257
14.0755
14.0255
13.9758
13.9264
13.8773
13.8285
13.78
13.7317
13.6837
13.6359
13.5885
13.5413
13.4944
13.4477
13.4014
13.3553
13.3095
13.264
13.2188
13.1739
13.1293
13.0849
13.0409
12.9971
12.9537
12.9105
12.8676
12.825
12.7826
12.7406
12.6988
12.6572
12.6159
12.5749
12.5341
12.4935
12.4532
12.4131
12.3732
12.3335
12.294
12.2547
12.2156
12.1767
12.1379
12.0994
12.0609
12.0227
11.9846
11.9468
11.9091
11.8715
11.8342
11.797
11.7601
11.7233
11.6866
11.6502
11.6139
11.5779
11.5422
14.9189
14.8635
14.8085
14.7538
14.6995
14.6455
14.5919
14.5386
14.4857
14.4331
14.3809
14.329
14.2774
14.2262
14.1753
14.1247
14.0744
14.0245
13.9748
13.9254
13.8763
13.8275
13.7789
13.7306
13.6826
13.6349
13.5874
13.5402
13.4933
13.4466
13.4002
13.3541
13.3083
13.2628
13.2176
13.1726
13.128
13.0836
13.0395
12.9958
12.9523
12.9091
12.8662
12.8235
12.7812
12.7391
12.6972
12.6557
12.6144
12.5733
12.5325
12.492
12.4516
12.4115
12.3716
12.3319
12.2924
12.2531
12.214
12.1751
12.1364
12.0978
12.0594
12.0212
11.9831
11.9453
11.9076
11.8701
11.8328
11.7957
11.7588
11.722
11.6854
11.649
11.6127
11.5767
11.5412
14.9144
14.859
14.8039
14.7492
14.6949
14.6409
14.5872
14.5339
14.481
14.4284
14.3762
14.3243
14.2727
14.2215
14.1705
14.1199
14.0697
14.0197
13.97
13.9206
13.8715
13.8227
13.7741
13.7258
13.6777
13.63
13.5825
13.5353
13.4883
13.4416
13.3952
13.3491
13.3033
13.2577
13.2124
13.1675
13.1228
13.0784
13.0343
12.9905
12.947
12.9038
12.8608
12.8182
12.7758
12.7337
12.6918
12.6502
12.6089
12.5678
12.527
12.4864
12.446
12.4059
12.366
12.3263
12.2867
12.2474
12.2083
12.1694
12.1306
12.0921
12.0536
12.0154
11.9773
11.9395
11.9018
11.8643
11.827
11.7899
11.7529
11.7161
11.6795
11.6431
11.6069
11.5709
11.5353
14.8992
14.8438
14.7887
14.734
14.6797
14.6257
14.5721
14.5188
14.4659
14.4134
14.3612
14.3093
14.2578
14.2066
14.1557
14.1051
14.0549
14.005
13.9553
13.906
13.8569
13.8081
13.7596
13.7113
13.6633
13.6156
13.5681
13.521
13.4741
13.4274
13.3811
13.335
13.2892
13.2437
13.1985
13.1536
13.109
13.0647
13.0206
12.9769
12.9334
12.8903
12.8474
12.8048
12.7624
12.7204
12.6786
12.6371
12.5958
12.5548
12.514
12.4734
12.4331
12.393
12.3531
12.3135
12.274
12.2347
12.1956
12.1567
12.118
12.0794
12.0411
12.0028
11.9648
11.927
11.8893
11.8519
11.8146
11.7775
11.7405
11.7038
11.6672
11.6308
11.5946
11.5586
11.523
14.8636
14.8083
14.7534
14.6988
14.6447
14.5908
14.5374
14.4843
14.4316
14.3792
14.3272
14.2756
14.2242
14.1732
14.1226
14.0722
14.0221
13.9724
13.923
13.8738
13.8249
13.7763
13.728
13.6799
13.6321
13.5846
13.5373
13.4903
13.4436
13.3972
13.3511
13.3052
13.2596
13.2143
13.1693
13.1246
13.0802
13.0361
12.9923
12.9487
12.9055
12.8626
12.8199
12.7775
12.7354
12.6935
12.6519
12.6106
12.5695
12.5287
12.4881
12.4478
12.4076
12.3677
12.328
12.2885
12.2492
12.2101
12.1711
12.1324
12.0938
12.0553
12.0171
11.979
11.9411
11.9034
11.8658
11.8285
11.7913
11.7543
11.7174
11.6808
11.6443
11.608
11.5718
11.5359
11.5004
14.7994
14.7445
14.69
14.6359
14.5821
14.5288
14.4758
14.4231
14.3709
14.319
14.2674
14.2162
14.1654
14.1148
14.0646
14.0147
13.9651
13.9158
13.8668
13.8181
13.7696
13.7214
13.6735
13.6259
13.5785
13.5314
13.4846
13.438
13.3917
13.3457
13.3
13.2545
13.2094
13.1645
13.1199
13.0756
13.0317
12.988
12.9446
12.9015
12.8586
12.8161
12.7738
12.7319
12.6902
12.6487
12.6075
12.5666
12.5259
12.4855
12.4453
12.4053
12.3655
12.3259
12.2865
12.2474
12.2084
12.1696
12.1309
12.0924
12.0541
12.016
11.9779
11.9401
11.9024
11.8649
11.8276
11.7905
11.7535
11.7167
11.68
11.6436
11.6072
11.5711
11.5351
11.4994
11.4641
14.7067
14.6525
14.5987
14.5453
14.4922
14.4395
14.3872
14.3353
14.2837
14.2325
14.1817
14.1311
14.0809
14.0311
13.9815
13.9322
13.8833
13.8347
13.7863
13.7382
13.6904
13.6428
13.5955
13.5485
13.5017
13.4552
13.409
13.363
13.3173
13.2718
13.2267
13.1818
13.1373
13.093
13.049
13.0053
12.9619
12.9188
12.8759
12.8334
12.7912
12.7492
12.7076
12.6662
12.625
12.5842
12.5435
12.5032
12.463
12.4231
12.3835
12.344
12.3047
12.2657
12.2268
12.1881
12.1495
12.1112
12.073
12.0349
11.997
11.9593
11.9216
11.8842
11.8469
11.8097
11.7727
11.7359
11.6992
11.6627
11.6263
11.5902
11.5541
11.5182
11.4825
11.447
11.412
14.5992
14.5457
14.4925
14.4397
14.3873
14.3352
14.2835
14.2321
14.1811
14.1305
14.0802
14.0302
13.9806
13.9313
13.8823
13.8336
13.7852
13.7371
13.6893
13.6418
13.5945
13.5475
13.5008
13.4543
13.4081
13.3621
13.3164
13.271
13.2258
13.1809
13.1363
13.092
13.048
13.0043
12.9608
12.9177
12.8748
12.8323
12.79
12.7481
12.7064
12.665
12.6239
12.5831
12.5425
12.5022
12.4621
12.4223
12.3827
12.3434
12.3042
12.2653
12.2265
12.188
12.1496
12.1114
12.0733
12.0355
11.9977
11.9601
11.9226
11.8853
11.8481
11.8111
11.7741
11.7374
11.7008
11.6643
11.628
11.5919
11.5559
11.52
11.4843
11.4488
11.4134
11.3782
11.3435
14.503
14.4498
14.3969
14.3444
14.2922
14.2404
14.1889
14.1377
14.0869
14.0364
13.9863
13.9365
13.887
13.8378
13.789
13.7404
13.6922
13.6443
13.5967
13.5493
13.5022
13.4554
13.4088
13.3625
13.3165
13.2707
13.2252
13.18
13.1351
13.0904
13.046
13.002
12.9582
12.9147
12.8715
12.8286
12.786
12.7437
12.7017
12.66
12.6186
12.5775
12.5366
12.4961
12.4558
12.4157
12.3759
12.3364
12.2971
12.258
12.2191
12.1805
12.142
12.1037
12.0656
12.0276
11.9898
11.9522
11.9147
11.8773
11.8401
11.803
11.7661
11.7293
11.6926
11.6561
11.6197
11.5835
11.5474
11.5115
11.4758
11.4402
11.4047
11.3694
11.3343
11.2994
11.2649
14.434
14.3809
14.3281
14.2757
14.2235
14.1716
14.1201
14.0688
14.0179
13.9673
13.917
13.867
13.8173
13.768
13.7189
13.6702
13.6218
13.5738
13.5259
13.4784
13.4312
13.3842
13.3375
13.2911
13.245
13.1991
13.1535
13.1082
13.0632
13.0184
12.974
12.9299
12.886
12.8425
12.7992
12.7563
12.7136
12.6713
12.6292
12.5874
12.546
12.5048
12.4639
12.4232
12.3828
12.3427
12.3028
12.2632
12.2238
12.1846
12.1456
12.1068
12.0682
12.0298
11.9916
11.9535
11.9157
11.8779
11.8403
11.8029
11.7656
11.7285
11.6915
11.6547
11.618
11.5814
11.545
11.5088
11.4728
11.4369
11.4012
11.3657
11.3303
11.2951
11.26
11.2252
11.1909
14.3935
14.3405
14.2878
14.2353
14.1831
14.1312
14.0794
14.028
13.9769
13.926
13.8754
13.8251
13.7751
13.7255
13.6761
13.6271
13.5784
13.5299
13.4818
13.434
13.3864
13.3392
13.2922
13.2455
13.199
13.1529
13.1071
13.0615
13.0163
12.9713
12.9267
12.8823
12.8382
12.7945
12.751
12.7078
12.665
12.6224
12.5801
12.5381
12.4963
12.4549
12.4137
12.3727
12.332
12.2916
12.2514
12.2114
12.1717
12.1321
12.0928
12.0537
12.0147
11.976
11.9374
11.899
11.8608
11.8227
11.7848
11.7471
11.7095
11.6721
11.6349
11.5978
11.5608
11.5241
11.4875
11.4511
11.4149
11.3789
11.3431
11.3074
11.2719
11.2367
11.2015
11.1667
11.1324
14.3771
14.3243
14.2717
14.2192
14.167
14.1149
14.0631
14.0114
13.96
13.9089
13.858
13.8074
13.7571
13.7071
13.6574
13.608
13.5589
13.5101
13.4616
13.4134
13.3655
13.3179
13.2706
13.2236
13.1768
13.1304
13.0843
13.0385
12.993
12.9478
12.9029
12.8583
12.814
12.77
12.7263
12.6829
12.6397
12.5969
12.5543
12.5119
12.4699
12.4281
12.3865
12.3452
12.3041
12.2632
12.2225
12.1821
12.1419
12.1019
12.0621
12.0224
11.983
11.9438
11.9047
11.8658
11.8271
11.7886
11.7502
11.712
11.674
11.6362
11.5985
11.5611
11.5238
11.4867
11.4498
11.4132
11.3767
11.3405
11.3044
11.2686
11.233
11.1975
11.1623
11.1273
11.0931
14.3803
14.3278
14.2753
14.223
14.1708
14.1187
14.0668
14.015
13.9634
13.912
13.8608
13.8099
13.7592
13.7089
13.6588
13.609
13.5595
13.5103
13.4615
13.4129
13.3647
13.3167
13.2691
13.2218
13.1748
13.1281
13.0818
13.0357
12.99
12.9445
12.8994
12.8546
12.8101
12.7659
12.7219
12.6782
12.6348
12.5917
12.5488
12.5061
12.4637
12.4215
12.3796
12.3378
12.2963
12.2549
12.2138
12.1728
12.1321
12.0916
12.0512
12.011
11.971
11.9312
11.8915
11.8521
11.8128
11.7737
11.7349
11.6962
11.6577
11.6194
11.5813
11.5434
11.5057
11.4682
11.431
11.394
11.3573
11.3207
11.2845
11.2484
11.2126
11.177
11.1416
11.1065
11.0722
14.4002
14.3481
14.296
14.2438
14.1917
14.1397
14.0877
14.0357
13.9839
13.9323
13.8808
13.8296
13.7786
13.7279
13.6774
13.6272
13.5774
13.5278
13.4786
13.4296
13.3811
13.3328
13.2849
13.2373
13.1901
13.1432
13.0966
13.0504
13.0045
12.9589
12.9136
12.8687
12.824
12.7796
12.7355
12.6916
12.6479
12.6045
12.5614
12.5184
12.4757
12.4331
12.3907
12.3485
12.3065
12.2647
12.223
12.1815
12.1402
12.099
12.058
12.0172
11.9765
11.9361
11.8958
11.8557
11.8158
11.7761
11.7366
11.6973
11.6583
11.6194
11.5808
11.5424
11.5043
11.4664
11.4288
11.3915
11.3545
11.3177
11.2811
11.2449
11.2089
11.1731
11.1376
11.1024
11.068
14.4361
14.3846
14.3329
14.2811
14.2292
14.1772
14.1252
14.0731
14.0211
13.9692
13.9175
13.8659
13.8145
13.7634
13.7125
13.6619
13.6116
13.5616
13.512
13.4627
13.4137
13.3652
13.317
13.2691
13.2217
13.1746
13.1278
13.0814
13.0354
12.9897
12.9443
12.8992
12.8545
12.8099
12.7657
12.7216
12.6778
12.6342
12.5907
12.5475
12.5044
12.4614
12.4186
12.376
12.3334
12.291
12.2488
12.2066
12.1646
12.1228
12.0811
12.0395
11.9982
11.957
11.9159
11.8751
11.8345
11.7941
11.754
11.714
11.6744
11.6349
11.5958
11.5569
11.5183
11.48
11.442
11.4043
11.3669
11.3299
11.2931
11.2566
11.2205
11.1846
11.149
11.1137
11.0793
14.4893
14.4385
14.3874
14.336
14.2844
14.2325
14.1805
14.1283
14.0761
14.0239
13.9717
13.9197
13.8679
13.8162
13.7648
13.7137
13.6629
13.6125
13.5624
13.5127
13.4634
13.4145
13.366
13.318
13.2703
13.2231
13.1762
13.1298
13.0837
13.0379
12.9925
12.9474
12.9026
12.858
12.8137
12.7695
12.7255
12.6817
12.638
12.5945
12.551
12.5076
12.4643
12.4211
12.378
12.3349
12.2919
12.2489
12.2061
12.1634
12.1208
12.0784
12.0361
11.994
11.9521
11.9104
11.8689
11.8277
11.7868
11.7461
11.7057
11.6656
11.6258
11.5864
11.5472
11.5085
11.4701
11.432
11.3944
11.357
11.3201
11.2834
11.2471
11.2112
11.1755
11.1402
11.1058
14.5635
14.5137
14.4634
14.4126
14.3613
14.3096
14.2575
14.2051
14.1526
14.0999
14.0473
13.9947
13.9423
13.89
13.838
13.7862
13.7348
13.6838
13.6331
13.5829
13.5332
13.4839
13.4351
13.3868
13.339
13.2917
13.2448
13.1983
13.1522
13.1065
13.0611
13.0161
12.9713
12.9267
12.8823
12.8381
12.794
12.7499
12.706
12.6621
12.6182
12.5743
12.5304
12.4864
12.4424
12.3984
12.3545
12.3105
12.2667
12.2229
12.1792
12.1356
12.0922
12.0489
12.0059
11.9631
11.9206
11.8784
11.8365
11.7949
11.7537
11.7128
11.6724
11.6323
11.5926
11.5533
11.5145
11.4761
11.4381
11.4006
11.3635
11.3268
11.2904
11.2545
11.2189
11.1837
11.1494
14.6648
14.6163
14.5669
14.5167
14.4658
14.4142
14.362
14.3093
14.2563
14.203
14.1497
14.0963
14.043
13.9899
13.937
13.8844
13.8323
13.7805
13.7292
13.6785
13.6283
13.5787
13.5296
13.4812
13.4333
13.386
13.3392
13.2929
13.247
13.2015
13.1564
13.1115
13.0669
13.0224
12.9781
12.9339
12.8897
12.8455
12.8012
12.7568
12.7123
12.6676
12.6228
12.5778
12.5326
12.4874
12.4421
12.3967
12.3513
12.306
12.2607
12.2156
12.1706
12.1258
12.0813
12.0371
11.9932
11.9497
11.9066
11.864
11.8217
11.78
11.7387
11.6979
11.6576
11.6178
11.5786
11.5399
11.5018
11.4641
11.427
11.3903
11.3541
11.3184
11.283
11.2482
11.2142
14.8018
14.7551
14.707
14.6578
14.6074
14.5559
14.5035
14.4502
14.3966
14.3426
14.2883
14.234
14.1796
14.1254
14.0715
14.0179
13.9648
13.9122
13.8602
13.809
13.7584
13.7085
13.6594
13.611
13.5633
13.5163
13.4699
13.424
13.3786
13.3337
13.2891
13.2447
13.2005
13.1564
13.1123
13.0682
13.024
12.9795
12.9347
12.8895
12.844
12.7981
12.7519
12.7052
12.6583
12.6111
12.5637
12.5162
12.4686
12.421
12.3735
12.3261
12.2789
12.232
12.1855
12.1394
12.0937
12.0486
12.004
11.9599
11.9165
11.8737
11.8315
11.79
11.7491
11.7089
11.6694
11.6306
11.5925
11.555
11.5181
11.4819
11.4462
11.411
11.3764
11.3422
11.3091
14.9901
14.9461
14.9001
14.8522
14.8026
14.7512
14.6984
14.6446
14.5901
14.535
14.4795
14.4238
14.3681
14.3126
14.2575
14.2028
14.1488
14.0955
14.0431
13.9915
13.941
13.8914
13.8427
13.795
13.7483
13.7023
13.6571
13.6125
13.5684
13.5248
13.4814
13.4381
13.3949
13.3516
13.3081
13.2643
13.22
13.175
13.1293
13.0827
13.0355
12.9874
12.9386
12.8891
12.8391
12.7885
12.7376
12.6865
12.6353
12.584
12.5329
12.482
12.4314
12.3813
12.3317
12.2828
12.2346
12.1872
12.1406
12.0948
12.0498
12.0058
11.9627
11.9205
11.8793
11.839
11.7996
11.7612
11.7236
11.687
11.6511
11.6161
11.5817
11.5481
11.5151
11.4829
11.4515
15.2608
15.2215
15.1788
15.1332
15.0847
15.0336
14.9802
14.9255
14.8698
14.8133
14.7562
14.699
14.6417
14.5848
14.5284
14.4728
14.4182
14.3647
14.3124
14.2615
14.212
14.1638
14.1171
14.0716
14.0273
13.984
13.9417
13.9
13.8589
13.8181
13.7774
13.7366
13.6954
13.6539
13.6116
13.5683
13.5236
13.4775
13.4298
13.3804
13.3295
13.2771
13.2233
13.1682
13.1122
13.0553
12.9979
12.9401
12.8823
12.8245
12.7671
12.7102
12.6539
12.5986
12.5441
12.4909
12.4388
12.3881
12.3386
12.2906
12.2439
12.1986
12.1548
12.1124
12.0714
12.0318
11.9936
11.9568
11.9214
11.8872
11.8543
11.8225
11.7919
11.7624
11.7338
11.7063
11.6798
15.6485
15.6115
15.5693
15.5223
15.4709
15.4161
15.3599
15.3021
15.2433
15.1838
15.1243
15.065
15.0065
14.949
14.893
14.8387
14.7863
14.736
14.6878
14.6419
14.5981
14.5564
14.5167
14.4786
14.4419
14.4064
14.3717
14.3374
14.3031
14.2686
14.2334
14.1972
14.1598
14.1202
14.078
14.0327
13.984
13.9319
13.8764
13.8176
13.7557
13.6911
13.6242
13.5555
13.4854
13.4145
13.3433
13.2722
13.2016
13.1319
13.0635
12.9966
12.9316
12.8686
12.8077
12.7493
12.6932
12.6397
12.5886
12.5401
12.494
12.4504
12.4093
12.3707
12.3345
12.3008
12.2695
12.2406
12.214
12.1896
12.1676
12.1476
12.1299
12.1142
12.1005
12.0883
16.3725
16.3443
16.3058
16.2585
16.2037
16.1455
16.0847
16.0219
15.9579
15.8936
15.8297
15.767
15.7061
15.6476
15.592
15.5398
15.4913
15.4466
15.4058
15.369
15.3361
15.3067
15.2805
15.2572
15.2362
15.2169
15.1988
15.181
15.1631
15.1442
15.1234
15.1013
15.0753
15.044
15.0064
14.9616
14.909
14.8485
14.7802
14.7045
14.6219
14.5335
14.4402
14.3432
14.2438
14.143
14.042
13.9419
13.8435
13.7478
13.6553
13.5665
13.4821
13.4022
13.3272
13.2572
13.1925
13.1331
13.0788
13.0297
12.9857
12.9467
12.913
12.8843
12.8608
12.8425
12.8294
12.8216
12.8191
12.822
12.8302
12.844
12.8633
12.8881
12.9186
12.9521
17.6825
17.6433
17.5859
17.5166
17.4449
17.3697
17.2923
17.2144
17.1372
17.0623
16.991
16.9244
16.8636
16.8094
16.7625
16.7233
16.6923
16.6694
16.6548
16.6481
16.649
16.6568
16.6709
16.6904
16.7143
16.7415
16.7705
16.8007
16.8297
16.8586
16.8826
16.8977
16.9003
16.8873
16.8562
16.8055
16.7345
16.6433
16.5331
16.4055
16.2629
16.1082
15.9445
15.775
15.6027
15.4306
15.2613
15.0972
14.9402
14.7918
14.6533
14.5259
14.4101
14.3065
14.2152
14.1372
14.0721
14.0196
13.9796
13.952
13.9367
13.9339
13.9437
13.9664
14.0022
14.0514
14.1143
14.1913
14.2827
14.3889
14.51
14.6463
14.7979
14.9644
15.1378
20.1793
20.0815
19.9695
19.8531
19.7335
19.6134
19.4956
19.383
19.2783
19.1839
19.1019
19.0343
18.9826
18.9482
18.9322
18.9354
18.9585
19.0018
19.0657
19.1498
19.2539
19.3774
19.5192
19.678
19.8513
20.0383
20.2342
20.4377
20.6447
20.8404
21.0125
21.1499
21.2433
21.2856
21.2723
21.2019
21.0752
20.8957
20.6688
20.4016
20.1021
19.7789
19.4407
19.0958
18.7521
18.4165
18.0951
17.7931
17.5149
17.2636
17.0418
16.852
16.695
16.5708
16.484
16.4326
16.415
16.4304
16.4782
16.5578
16.6691
16.8117
16.9858
17.1912
17.4277
17.6951
17.9928
18.32
18.6755
19.058
19.4653
19.8951
20.3437
20.7898
24.8077
24.5773
24.3409
24.1042
23.8736
23.655
23.4544
23.277
23.1278
23.0112
22.9315
22.8927
22.8985
22.9529
23.0595
23.2222
23.4446
23.73
24.0808
24.4988
24.9832
25.5331
26.1427
26.8059
27.5114
28.2388
28.9937
29.7279
30.4065
30.999
31.4809
31.8346
32.0496
32.1223
32.0554
31.857
31.5392
31.1177
30.6104
30.0362
29.4147
28.7649
28.1049
27.4517
26.8206
26.2247
25.6752
25.1819
24.7518
24.3895
24.1014
23.8887
23.7501
23.6908
23.7073
23.7926
23.9412
24.1477
24.407
24.7143
25.065
25.4545
25.8781
26.3313
26.8093
27.3071
27.8197
28.342
28.8689
29.3947
29.9147
30.4224
30.889
33.5861
33.0713
32.5533
32.0469
31.5666
31.1247
30.7337
30.4057
30.1523
29.9851
29.916
29.9574
30.1225
30.4249
30.8776
31.4924
32.2774
33.236
34.3653
35.6542
37.085
38.6301
40.2532
41.9215
43.5837
45.2136
46.7458
48.1229
49.3039
50.2622
50.984
51.4667
51.7166
51.7469
51.5762
51.2266
50.7224
50.0896
49.3548
48.5441
47.6831
46.796
45.9051
45.0307
44.1901
43.3978
42.6652
42.0004
41.4088
40.8936
40.4546
40.087
39.7946
39.5708
39.4043
39.2898
39.2213
39.1925
39.1972
39.23
39.2854
39.3581
39.4428
39.5366
39.6376
39.7421
39.8456
39.9434
40.0334
40.1138
40.1827
40.2369
40.2656
48.922
47.8629
46.7989
45.7734
44.8197
43.9691
43.2515
42.6964
42.3331
42.1913
42.2998
42.6849
43.3669
44.3567
45.6519
47.2353
49.0739
51.121
53.3189
55.604
57.9119
60.1778
62.348
64.3677
66.1923
67.8091
69.1621
70.2449
71.062
71.6255
71.9523
72.0619
71.9757
71.7153
71.3023
70.7577
70.1017
69.3534
68.531
67.6511
66.7287
65.7766
64.8074
63.8296
62.8535
61.8926
60.9456
60.0117
59.095
58.1979
57.3172
56.4599
55.6315
54.8147
54.0223
53.2631
52.5445
51.8663
51.2247
50.6199
50.0507
49.515
49.0101
48.5333
48.0815
47.6521
47.2426
46.8505
46.4741
46.1118
45.7621
45.4237
45.1087
71.4685
69.5521
67.73
66.0845
64.6773
63.5649
62.7971
62.4136
62.4395
62.8803
63.7187
64.9134
66.403
68.1119
69.9584
71.8627
73.7531
75.569
77.2644
78.8031
80.1623
81.3292
82.29
83.0565
83.6051
83.949
84.1082
84.1007
83.9425
83.648
83.2305
82.7024
82.0752
81.3593
80.5644
79.6994
78.7729
77.7926
76.7653
75.6968
74.5927
73.4585
72.2995
71.1215
69.9298
68.7291
67.5228
66.3217
65.1256
63.942
62.7761
61.6314
60.519
59.4456
58.4145
57.4279
56.4868
55.5906
54.7379
53.9272
53.156
52.4217
51.7215
51.0534
50.4148
49.8033
49.2169
48.6532
48.1119
47.5929
47.0969
46.6535
103.069
99.9922
97.1233
94.5978
92.4742
90.7843
89.5288
88.6793
88.1853
87.9837
88.0068
88.1904
88.4778
88.8212
89.1819
89.5281
89.8347
90.0811
90.2501
90.3307
90.309
90.1811
89.94
89.5784
89.1083
88.5395
87.8805
87.1394
86.3233
85.4397
84.496
83.4991
82.4556
81.3718
80.2533
79.1056
77.9338
76.7427
75.5359
74.3183
73.0953
71.869
70.6439
69.4225
68.2086
67.0065
65.818
64.6493
63.5076
62.3967
61.3188
60.2757
59.2683
58.2973
57.3622
56.4619
55.5955
54.762
53.9611
53.1911
52.4502
51.7373
51.0534
50.3933
49.7554
49.1397
48.5456
47.9737
47.4258
46.9041
46.4447
132.898
127.346
122.26
117.729
113.754
110.319
107.389
104.912
102.859
101.158
99.754
98.5887
97.6077
96.7598
95.9991
95.2849
94.5834
93.867
93.1118
92.3016
91.4206
90.4676
89.4473
88.3662
87.2317
86.052
84.8357
83.5913
82.3275
81.0521
79.7727
78.4957
77.2261
75.9668
74.7244
73.4989
72.2922
71.1059
69.9402
68.7963
67.6751
66.5744
65.4967
64.4421
63.4066
62.3999
61.4228
60.4738
59.5509
58.6535
57.7825
56.937
56.1164
55.3203
54.5477
53.7981
53.0707
52.3647
51.6792
51.0138
50.367
49.7396
49.1292
48.534
47.9559
47.3961
46.8522
46.3259
45.8225
45.384
134.771
129.411
124.481
120.061
116.117
112.649
109.636
107.038
104.8
102.862
101.158
99.6282
98.2171
96.8763
95.5659
94.255
92.9171
91.5392
90.1012
88.6196
87.1004
85.5535
83.9902
82.4224
80.8626
79.3222
77.8113
76.3387
74.9099
73.5338
72.2101
70.9402
69.7237
68.5589
67.4433
66.3736
65.3459
64.3577
63.4052
62.484
61.5936
60.7299
59.8886
59.0761
58.2893
57.5236
56.7766
56.0473
55.3344
54.6373
53.9555
53.2882
52.635
51.9954
51.369
50.7554
50.1541
49.5646
48.9866
48.4198
47.8637
47.3181
46.7828
46.2578
45.7432
45.2395
44.7486
44.2781
43.8709
128.124
124.335
120.673
117.246
114.062
111.139
108.483
106.074
103.876
101.845
99.9343
98.0993
96.3007
94.5082
92.6995
90.8563
88.9762
87.0468
85.0992
83.1478
81.2081
79.2974
77.4317
75.6258
73.8922
72.241
70.6788
69.2093
67.8334
66.5496
65.3537
64.24
63.2016
62.2308
61.3205
60.4629
59.6512
58.8799
58.1428
57.4352
56.7549
56.0961
55.461
54.8433
54.2397
53.648
53.0672
52.4961
51.9339
51.3798
50.8334
50.2941
49.7617
49.2356
48.7158
48.2017
47.6933
47.1903
46.6925
46.1997
45.7119
45.2289
44.7508
44.2775
43.8093
43.347
42.8933
42.4584
42.0835
117.228
114.899
112.483
110.046
107.644
105.299
103.021
100.8
98.6106
96.4335
94.2449
92.0316
89.7843
87.4998
85.1882
82.8529
80.5291
78.2447
76.0192
73.8744
71.8273
69.8932
68.0819
66.4006
64.8506
63.4309
62.136
60.9587
59.8893
58.9168
58.0301
57.2177
56.4685
55.7736
55.124
54.5109
53.9322
53.3808
52.8514
52.3375
51.8416
51.3579
50.8836
50.4165
49.9558
49.5001
49.0492
48.6019
48.158
47.7167
47.2781
46.8415
46.4068
45.9736
45.5418
45.111
44.6813
44.2524
43.8243
43.397
42.9702
42.5442
42.119
41.6948
41.2727
40.8562
40.4573
40.1147
109.502
107.522
105.363
103.086
100.678
98.2828
95.845
93.3664
90.8362
88.2667
85.6583
83.0281
80.3932
77.7773
75.2093
72.7321
70.3629
68.1263
66.0338
64.0999
62.3268
60.7177
59.2661
57.966
56.8052
55.7718
54.8509
54.0287
53.2908
52.6233
52.016
51.4563
50.9383
50.4544
49.998
49.5624
49.1448
48.7398
48.3475
47.9634
47.5864
47.2131
46.844
46.4769
46.1125
45.7488
45.3866
45.0242
44.6625
44.3
43.9375
43.5737
43.2094
42.8433
42.4762
42.1074
41.737
41.3647
40.9904
40.6143
40.236
39.8561
39.4743
39.0921
38.7134
38.3519
38.0417
103.262
101.348
99.1749
96.7541
14.9126
14.8573
14.8023
14.7477
14.6934
14.6395
14.5859
14.5327
14.4798
14.4273
14.3751
14.3233
14.2718
14.2206
14.1697
14.1192
14.069
14.0191
13.9694
13.9201
13.871
13.8222
13.7737
13.7255
13.6775
13.6298
13.5824
13.5353
13.4884
13.4418
13.3955
13.3495
13.3037
13.2583
13.2131
13.1682
13.1236
13.0793
13.0353
12.9915
12.9481
12.9049
12.862
12.8194
12.7771
12.735
12.6932
12.6517
12.6104
12.5694
12.5286
12.488
12.4477
12.4076
12.3677
12.328
12.2886
12.2493
12.2102
12.1713
12.1326
12.0941
12.0557
12.0175
11.9795
11.9416
11.904
11.8665
11.8292
11.7921
11.7552
11.7184
11.6819
11.6455
11.6093
11.5733
11.5377
14.9118
14.8565
14.8015
14.7469
14.6925
14.6386
14.585
14.5317
14.4789
14.4263
14.3741
14.3223
14.2707
14.2195
14.1687
14.1181
14.0679
14.018
13.9683
13.919
13.8699
13.8211
13.7726
13.7244
13.6764
13.6287
13.5813
13.5341
13.4873
13.4406
13.3943
13.3483
13.3025
13.257
13.2118
13.1669
13.1223
13.078
13.0339
12.9902
12.9467
12.9035
12.8606
12.818
12.7756
12.7335
12.6917
12.6502
12.6089
12.5678
12.527
12.4864
12.4461
12.406
12.3661
12.3264
12.2869
12.2477
12.2086
12.1697
12.131
12.0925
12.0541
12.0159
11.9779
11.9401
11.9025
11.8651
11.8278
11.7907
11.7538
11.7171
11.6806
11.6442
11.608
11.572
11.5366
14.9073
14.8519
14.7969
14.7422
14.6879
14.6339
14.5803
14.527
14.4741
14.4215
14.3693
14.3175
14.2659
14.2147
14.1638
14.1133
14.063
14.0131
13.9634
13.9141
13.865
13.8162
13.7677
13.7194
13.6715
13.6237
13.5763
13.5291
13.4822
13.4356
13.3892
13.3432
13.2974
13.2519
13.2067
13.1617
13.1171
13.0727
13.0287
12.9849
12.9414
12.8982
12.8552
12.8126
12.7702
12.7281
12.6863
12.6447
12.6034
12.5623
12.5215
12.4809
12.4405
12.4004
12.3604
12.3207
12.2813
12.242
12.2029
12.164
12.1252
12.0867
12.0483
12.0101
11.9721
11.9343
11.8966
11.8592
11.8219
11.7848
11.7479
11.7112
11.6747
11.6383
11.6021
11.5661
11.5306
14.8922
14.8368
14.7818
14.7271
14.6728
14.6188
14.5652
14.512
14.4591
14.4065
14.3544
14.3025
14.251
14.1998
14.149
14.0984
14.0482
13.9983
13.9487
13.8994
13.8504
13.8016
13.7531
13.7049
13.657
13.6093
13.5619
13.5148
13.4679
13.4214
13.3751
13.329
13.2833
13.2378
13.1927
13.1478
13.1032
13.0589
13.0149
12.9712
12.9277
12.8846
12.8417
12.7991
12.7568
12.7147
12.673
12.6314
12.5902
12.5491
12.5084
12.4678
12.4275
12.3874
12.3475
12.3079
12.2684
12.2292
12.1901
12.1512
12.1125
12.074
12.0357
11.9975
11.9595
11.9217
11.8841
11.8467
11.8094
11.7724
11.7355
11.6988
11.6622
11.6259
11.5897
11.5538
11.5182
14.8569
14.8016
14.7467
14.6921
14.6379
14.5841
14.5307
14.4776
14.4249
14.3725
14.3205
14.2689
14.2175
14.1665
14.1159
14.0655
14.0155
13.9658
13.9163
13.8672
13.8184
13.7698
13.7215
13.6735
13.6257
13.5782
13.531
13.4841
13.4374
13.391
13.3449
13.2991
13.2536
13.2083
13.1634
13.1187
13.0743
13.0302
12.9864
12.9429
12.8997
12.8568
12.8141
12.7717
12.7296
12.6878
12.6462
12.6049
12.5638
12.523
12.4824
12.442
12.4019
12.362
12.3223
12.2828
12.2435
12.2044
12.1654
12.1267
12.0881
12.0497
12.0115
11.9735
11.9356
11.8979
11.8604
11.8231
11.7859
11.749
11.7122
11.6755
11.6391
11.6028
11.5667
11.5308
11.4954
14.7929
14.738
14.6835
14.6293
14.5756
14.5221
14.4691
14.4165
14.3642
14.3123
14.2607
14.2095
14.1586
14.108
14.0578
14.0079
13.9583
13.909
13.86
13.8113
13.7629
13.7147
13.6668
13.6192
13.5718
13.5248
13.478
13.4314
13.3852
13.3392
13.2935
13.2481
13.203
13.1582
13.1136
13.0694
13.0254
12.9817
12.9383
12.8952
12.8524
12.8099
12.7677
12.7257
12.684
12.6425
12.6014
12.5604
12.5198
12.4793
12.4391
12.3991
12.3593
12.3198
12.2804
12.2412
12.2023
12.1635
12.1248
12.0864
12.0481
12.01
11.972
11.9342
11.8966
11.8591
11.8218
11.7847
11.7478
11.711
11.6744
11.638
11.6017
11.5656
11.5297
11.494
11.4587
14.7
14.6458
14.5919
14.5384
14.4853
14.4326
14.3802
14.3282
14.2766
14.2254
14.1745
14.1239
14.0737
14.0238
13.9742
13.9249
13.876
13.8273
13.7789
13.7308
13.683
13.6355
13.5882
13.5412
13.4944
13.4479
13.4017
13.3558
13.3101
13.2647
13.2196
13.1747
13.1302
13.0859
13.042
12.9983
12.9549
12.9118
12.869
12.8265
12.7843
12.7423
12.7007
12.6593
12.6181
12.5773
12.5366
12.4963
12.4561
12.4162
12.3766
12.3371
12.2978
12.2588
12.2199
12.1812
12.1427
12.1044
12.0662
12.0282
11.9903
11.9526
11.915
11.8776
11.8403
11.8032
11.7663
11.7295
11.6929
11.6564
11.6201
11.5839
11.5479
11.5121
11.4764
11.441
11.4059
14.5917
14.5381
14.4848
14.432
14.3795
14.3273
14.2756
14.2242
14.1731
14.1224
14.0721
14.0221
13.9724
13.923
13.874
13.8253
13.7769
13.7288
13.681
13.6334
13.5862
13.5392
13.4924
13.4459
13.3997
13.3538
13.3081
13.2627
13.2176
13.1727
13.1281
13.0839
13.0398
12.9961
12.9527
12.9096
12.8668
12.8242
12.782
12.74
12.6984
12.657
12.6159
12.575
12.5345
12.4941
12.4541
12.4143
12.3747
12.3354
12.2962
12.2573
12.2186
12.18
12.1417
12.1035
12.0655
12.0276
11.9899
11.9524
11.915
11.8777
11.8405
11.8035
11.7667
11.73
11.6934
11.657
11.6207
11.5846
11.5487
11.5129
11.4772
11.4417
11.4064
11.3712
11.3365
14.4941
14.4408
14.3879
14.3353
14.2831
14.2312
14.1796
14.1284
14.0775
14.027
13.9768
13.9269
13.8774
13.8282
13.7793
13.7308
13.6825
13.6346
13.587
13.5396
13.4925
13.4457
13.3992
13.3529
13.3069
13.2611
13.2157
13.1705
13.1256
13.081
13.0366
12.9926
12.9488
12.9053
12.8622
12.8193
12.7767
12.7344
12.6924
12.6508
12.6094
12.5682
12.5274
12.4868
12.4465
12.4065
12.3667
12.3272
12.2879
12.2488
12.2099
12.1713
12.1328
12.0946
12.0565
12.0186
11.9808
11.9432
11.9058
11.8685
11.8313
11.7943
11.7574
11.7207
11.6841
11.6476
11.6113
11.5752
11.5391
11.5033
11.4676
11.432
11.3966
11.3614
11.3263
11.2914
11.257
14.4234
14.3703
14.3174
14.2649
14.2126
14.1607
14.1091
14.0578
14.0068
13.9562
13.9058
13.8558
13.8061
13.7567
13.7077
13.659
13.6106
13.5625
13.5147
13.4672
13.42
13.373
13.3264
13.28
13.2339
13.1881
13.1425
13.0973
13.0523
13.0076
12.9632
12.9191
12.8753
12.8318
12.7886
12.7456
12.703
12.6607
12.6186
12.5769
12.5354
12.4943
12.4534
12.4127
12.3723
12.3322
12.2924
12.2527
12.2134
12.1742
12.1352
12.0965
12.0579
12.0196
11.9814
11.9434
11.9056
11.8679
11.8304
11.793
11.7558
11.7187
11.6818
11.6451
11.6084
11.572
11.5357
11.4995
11.4635
11.4277
11.3921
11.3566
11.3212
11.2861
11.2511
11.2163
11.1821
14.3809
14.3278
14.275
14.2225
14.1702
14.1181
14.0664
14.0149
13.9637
13.9128
13.8622
13.8119
13.7619
13.7122
13.6629
13.6139
13.5652
13.5168
13.4687
13.4209
13.3734
13.3262
13.2793
13.2326
13.1863
13.1402
13.0945
13.049
13.0038
12.9589
12.9143
12.8701
12.8261
12.7824
12.7389
12.6958
12.653
12.6104
12.5682
12.5262
12.4845
12.4431
12.4019
12.361
12.3203
12.2799
12.2397
12.1998
12.1601
12.1206
12.0813
12.0422
12.0033
11.9646
11.9261
11.8878
11.8496
11.8116
11.7738
11.7361
11.6986
11.6613
11.6241
11.5871
11.5503
11.5136
11.4771
11.4408
11.4047
11.3687
11.3329
11.2974
11.2619
11.2267
11.1917
11.1569
11.1227
14.362
14.3091
14.2564
14.2038
14.1515
14.0994
14.0475
13.9958
13.9444
13.8932
13.8423
13.7917
13.7414
13.6914
13.6418
13.5924
13.5434
13.4946
13.4462
13.3981
13.3503
13.3027
13.2555
13.2086
13.162
13.1157
13.0697
13.024
12.9786
12.9335
12.8887
12.8442
12.8
12.7561
12.7124
12.6691
12.626
12.5832
12.5407
12.4984
12.4564
12.4146
12.3731
12.3318
12.2908
12.25
12.2094
12.169
12.1288
12.0889