/*--------------------------------*- C++ -*----------------------------------*\
  =========                 |
  \\      /  F ield         | OpenFOAM: The Open Source CFD Toolbox
   \\    /   O peration     | Website:  https://openfoam.org
    \\  /    A nd           | Version:  13
     \\/     M anipulation  |
\*---------------------------------------------------------------------------*/
FoamFile
{
    format      ascii;
    class       volScalarField;
    location    "900";
    object      nut;
}
// * * * * * * * * * * * * * * * * * * * * * * * * * * * * * * * * * * * * * //

dimensions      [0 2 -1 0 0 0 0];

internalField   nonuniform List<scalar> 
172290
(
0.0209672
0.0209319
0.020897
0.0208624
0.0208282
0.0207943
0.0207607
0.0207275
0.0206946
0.0206619
0.0206296
0.0205976
0.0205658
0.0205344
0.0205032
0.0204724
0.0204418
0.0204114
0.0203813
0.0203515
0.020322
0.0202927
0.0202636
0.0202348
0.0202063
0.020178
0.0201499
0.020122
0.0200944
0.020067
0.0200398
0.0200128
0.0199861
0.0199596
0.0199332
0.0199071
0.0198812
0.0198555
0.01983
0.0198047
0.0197796
0.0197547
0.01973
0.0197055
0.0196812
0.0196571
0.0196332
0.0196094
0.0195859
0.0195626
0.0195395
0.0195166
0.0194939
0.0194714
0.0194491
0.0194271
0.0194054
0.0193838
0.0193626
0.0193416
0.019321
0.0193006
0.0192806
0.0192609
0.0192417
0.0192228
0.0192043
0.0191863
0.0191687
0.0191516
0.0191349
0.0191187
0.0191029
0.0190876
0.0190726
0.0190581
0.0190438
0.0209672
0.0209319
0.020897
0.0208624
0.0208282
0.0207943
0.0207607
0.0207275
0.0206946
0.0206619
0.0206296
0.0205976
0.0205658
0.0205344
0.0205032
0.0204724
0.0204418
0.0204114
0.0203813
0.0203515
0.020322
0.0202927
0.0202636
0.0202348
0.0202063
0.0201779
0.0201499
0.020122
0.0200944
0.020067
0.0200398
0.0200128
0.0199861
0.0199596
0.0199332
0.0199071
0.0198812
0.0198555
0.01983
0.0198047
0.0197796
0.0197547
0.01973
0.0197055
0.0196812
0.0196571
0.0196332
0.0196094
0.0195859
0.0195626
0.0195395
0.0195166
0.0194939
0.0194714
0.0194491
0.0194271
0.0194054
0.0193839
0.0193626
0.0193416
0.019321
0.0193006
0.0192806
0.019261
0.0192417
0.0192229
0.0192044
0.0191864
0.0191688
0.0191517
0.0191351
0.0191189
0.0191032
0.019088
0.0190731
0.0190586
0.0190444
0.0209672
0.0209319
0.020897
0.0208624
0.0208282
0.0207943
0.0207607
0.0207275
0.0206946
0.0206619
0.0206296
0.0205976
0.0205658
0.0205344
0.0205032
0.0204724
0.0204418
0.0204114
0.0203813
0.0203515
0.020322
0.0202927
0.0202636
0.0202348
0.0202063
0.0201779
0.0201499
0.020122
0.0200944
0.020067
0.0200398
0.0200128
0.0199861
0.0199595
0.0199332
0.0199071
0.0198812
0.0198555
0.01983
0.0198047
0.0197796
0.0197547
0.01973
0.0197055
0.0196812
0.0196571
0.0196331
0.0196094
0.0195859
0.0195626
0.0195395
0.0195166
0.0194939
0.0194714
0.0194491
0.0194271
0.0194054
0.0193839
0.0193626
0.0193417
0.019321
0.0193007
0.0192807
0.0192611
0.0192419
0.0192231
0.0192046
0.0191867
0.0191692
0.0191522
0.0191356
0.0191196
0.019104
0.0190888
0.0190741
0.0190597
0.0190457
0.0209672
0.0209319
0.020897
0.0208624
0.0208282
0.0207943
0.0207607
0.0207275
0.0206946
0.0206619
0.0206296
0.0205976
0.0205658
0.0205344
0.0205032
0.0204724
0.0204418
0.0204114
0.0203813
0.0203515
0.020322
0.0202927
0.0202636
0.0202348
0.0202063
0.0201779
0.0201499
0.020122
0.0200944
0.020067
0.0200398
0.0200128
0.0199861
0.0199595
0.0199332
0.0199071
0.0198812
0.0198555
0.01983
0.0198047
0.0197796
0.0197547
0.01973
0.0197055
0.0196812
0.0196571
0.0196331
0.0196094
0.0195859
0.0195626
0.0195395
0.0195166
0.0194939
0.0194714
0.0194492
0.0194272
0.0194054
0.0193839
0.0193627
0.0193418
0.0193211
0.0193008
0.0192809
0.0192613
0.0192421
0.0192234
0.019205
0.0191871
0.0191697
0.0191528
0.0191364
0.0191205
0.0191051
0.0190901
0.0190756
0.0190615
0.0190477
0.0209672
0.0209319
0.020897
0.0208624
0.0208282
0.0207943
0.0207607
0.0207275
0.0206946
0.0206619
0.0206296
0.0205976
0.0205658
0.0205344
0.0205032
0.0204724
0.0204418
0.0204114
0.0203813
0.0203515
0.020322
0.0202927
0.0202636
0.0202348
0.0202063
0.0201779
0.0201498
0.020122
0.0200944
0.020067
0.0200398
0.0200128
0.0199861
0.0199595
0.0199332
0.0199071
0.0198812
0.0198555
0.01983
0.0198047
0.0197796
0.0197547
0.01973
0.0197055
0.0196812
0.019657
0.0196331
0.0196094
0.0195859
0.0195626
0.0195395
0.0195166
0.0194939
0.0194714
0.0194492
0.0194272
0.0194054
0.019384
0.0193628
0.0193419
0.0193213
0.019301
0.0192811
0.0192616
0.0192425
0.0192238
0.0192055
0.0191878
0.0191705
0.0191538
0.0191375
0.0191218
0.0191066
0.019092
0.0190777
0.0190639
0.0190505
0.0209672
0.0209319
0.020897
0.0208624
0.0208282
0.0207943
0.0207607
0.0207275
0.0206946
0.0206619
0.0206296
0.0205976
0.0205658
0.0205344
0.0205032
0.0204724
0.0204417
0.0204114
0.0203813
0.0203515
0.020322
0.0202927
0.0202636
0.0202348
0.0202063
0.0201779
0.0201498
0.020122
0.0200944
0.020067
0.0200398
0.0200128
0.0199861
0.0199595
0.0199332
0.0199071
0.0198812
0.0198555
0.01983
0.0198047
0.0197796
0.0197547
0.01973
0.0197055
0.0196811
0.019657
0.0196331
0.0196094
0.0195859
0.0195626
0.0195395
0.0195166
0.0194939
0.0194714
0.0194492
0.0194272
0.0194055
0.0193841
0.0193629
0.019342
0.0193215
0.0193012
0.0192814
0.0192619
0.0192429
0.0192243
0.0192062
0.0191886
0.0191715
0.019155
0.019139
0.0191236
0.0191087
0.0190944
0.0190805
0.0190672
0.0190542
0.0209672
0.0209319
0.020897
0.0208624
0.0208282
0.0207943
0.0207607
0.0207275
0.0206946
0.0206619
0.0206296
0.0205976
0.0205658
0.0205344
0.0205032
0.0204724
0.0204417
0.0204114
0.0203813
0.0203515
0.020322
0.0202927
0.0202636
0.0202348
0.0202063
0.0201779
0.0201498
0.020122
0.0200943
0.0200669
0.0200398
0.0200128
0.019986
0.0199595
0.0199332
0.0199071
0.0198812
0.0198555
0.01983
0.0198047
0.0197795
0.0197546
0.0197299
0.0197054
0.0196811
0.019657
0.0196331
0.0196094
0.0195859
0.0195625
0.0195394
0.0195166
0.0194939
0.0194714
0.0194492
0.0194273
0.0194056
0.0193841
0.019363
0.0193422
0.0193217
0.0193015
0.0192817
0.0192624
0.0192434
0.019225
0.019207
0.0191896
0.0191728
0.0191565
0.0191408
0.0191258
0.0191113
0.0190975
0.0190841
0.0190713
0.019059
0.0209672
0.0209319
0.020897
0.0208624
0.0208282
0.0207943
0.0207607
0.0207275
0.0206946
0.0206619
0.0206296
0.0205976
0.0205658
0.0205344
0.0205032
0.0204724
0.0204417
0.0204114
0.0203813
0.0203515
0.020322
0.0202927
0.0202636
0.0202348
0.0202062
0.0201779
0.0201498
0.020122
0.0200943
0.0200669
0.0200397
0.0200128
0.019986
0.0199595
0.0199332
0.0199071
0.0198811
0.0198554
0.0198299
0.0198046
0.0197795
0.0197546
0.0197299
0.0197054
0.0196811
0.019657
0.0196331
0.0196093
0.0195858
0.0195625
0.0195394
0.0195165
0.0194939
0.0194715
0.0194493
0.0194273
0.0194056
0.0193842
0.0193631
0.0193424
0.0193219
0.0193018
0.0192821
0.0192629
0.0192441
0.0192258
0.019208
0.0191908
0.0191743
0.0191583
0.019143
0.0191284
0.0191145
0.0191013
0.0190887
0.0190766
0.0190651
0.0209672
0.0209319
0.020897
0.0208624
0.0208282
0.0207943
0.0207607
0.0207275
0.0206946
0.0206619
0.0206296
0.0205976
0.0205658
0.0205344
0.0205032
0.0204724
0.0204417
0.0204114
0.0203813
0.0203515
0.020322
0.0202927
0.0202636
0.0202348
0.0202062
0.0201779
0.0201498
0.020122
0.0200943
0.0200669
0.0200397
0.0200128
0.019986
0.0199595
0.0199331
0.019907
0.0198811
0.0198554
0.0198299
0.0198046
0.0197795
0.0197546
0.0197299
0.0197054
0.0196811
0.0196569
0.019633
0.0196093
0.0195858
0.0195625
0.0195394
0.0195165
0.0194939
0.0194715
0.0194493
0.0194274
0.0194057
0.0193844
0.0193633
0.0193426
0.0193222
0.0193022
0.0192826
0.0192635
0.0192448
0.0192267
0.0192092
0.0191923
0.019176
0.0191605
0.0191457
0.0191317
0.0191185
0.019106
0.0190943
0.0190832
0.0190728
0.0209672
0.0209319
0.020897
0.0208624
0.0208282
0.0207943
0.0207607
0.0207275
0.0206946
0.0206619
0.0206296
0.0205976
0.0205658
0.0205344
0.0205032
0.0204723
0.0204417
0.0204114
0.0203813
0.0203515
0.020322
0.0202927
0.0202636
0.0202348
0.0202062
0.0201779
0.0201498
0.0201219
0.0200943
0.0200669
0.0200397
0.0200127
0.019986
0.0199595
0.0199331
0.019907
0.0198811
0.0198554
0.0198299
0.0198046
0.0197795
0.0197546
0.0197298
0.0197053
0.019681
0.0196569
0.019633
0.0196093
0.0195858
0.0195625
0.0195394
0.0195165
0.0194939
0.0194715
0.0194493
0.0194274
0.0194058
0.0193845
0.0193635
0.0193428
0.0193225
0.0193026
0.0192831
0.0192641
0.0192457
0.0192278
0.0192106
0.019194
0.0191782
0.0191632
0.019149
0.0191357
0.0191233
0.0191119
0.0191013
0.0190915
0.0190825
0.0209672
0.0209319
0.020897
0.0208624
0.0208282
0.0207943
0.0207607
0.0207275
0.0206946
0.0206619
0.0206296
0.0205976
0.0205658
0.0205344
0.0205032
0.0204723
0.0204417
0.0204114
0.0203813
0.0203515
0.020322
0.0202926
0.0202636
0.0202348
0.0202062
0.0201779
0.0201498
0.0201219
0.0200943
0.0200669
0.0200397
0.0200127
0.019986
0.0199594
0.0199331
0.019907
0.0198811
0.0198553
0.0198298
0.0198045
0.0197794
0.0197545
0.0197298
0.0197053
0.019681
0.0196569
0.019633
0.0196092
0.0195857
0.0195624
0.0195394
0.0195165
0.0194939
0.0194715
0.0194494
0.0194275
0.0194059
0.0193846
0.0193637
0.0193431
0.0193229
0.0193031
0.0192837
0.0192649
0.0192467
0.0192291
0.0192122
0.019196
0.0191807
0.0191663
0.0191529
0.0191405
0.0191292
0.0191191
0.01911
0.0191019
0.0190948
0.0209672
0.0209319
0.020897
0.0208624
0.0208282
0.0207943
0.0207607
0.0207275
0.0206946
0.0206619
0.0206296
0.0205976
0.0205658
0.0205344
0.0205032
0.0204723
0.0204417
0.0204114
0.0203813
0.0203515
0.0203219
0.0202926
0.0202636
0.0202348
0.0202062
0.0201779
0.0201498
0.0201219
0.0200943
0.0200669
0.0200397
0.0200127
0.0199859
0.0199594
0.0199331
0.0199069
0.019881
0.0198553
0.0198298
0.0198045
0.0197794
0.0197545
0.0197298
0.0197053
0.0196809
0.0196568
0.0196329
0.0196092
0.0195857
0.0195624
0.0195394
0.0195165
0.0194939
0.0194715
0.0194494
0.0194276
0.019406
0.0193848
0.0193639
0.0193434
0.0193233
0.0193036
0.0192845
0.0192658
0.0192479
0.0192306
0.019214
0.0191984
0.0191837
0.01917
0.0191575
0.0191463
0.0191364
0.0191279
0.0191208
0.019115
0.0191105
0.0209672
0.0209319
0.020897
0.0208624
0.0208282
0.0207943
0.0207607
0.0207275
0.0206946
0.0206619
0.0206296
0.0205976
0.0205658
0.0205344
0.0205032
0.0204723
0.0204417
0.0204114
0.0203813
0.0203515
0.0203219
0.0202926
0.0202636
0.0202348
0.0202062
0.0201779
0.0201498
0.0201219
0.0200943
0.0200668
0.0200397
0.0200127
0.0199859
0.0199594
0.019933
0.0199069
0.019881
0.0198553
0.0198298
0.0198045
0.0197793
0.0197544
0.0197297
0.0197052
0.0196809
0.0196568
0.0196329
0.0196092
0.0195857
0.0195624
0.0195393
0.0195165
0.0194939
0.0194716
0.0194495
0.0194277
0.0194062
0.019385
0.0193642
0.0193438
0.0193238
0.0193042
0.0192853
0.0192669
0.0192492
0.0192322
0.0192162
0.0192011
0.0191871
0.0191744
0.0191631
0.0191532
0.0191451
0.0191387
0.0191342
0.0191315
0.0191305
0.0209672
0.0209319
0.020897
0.0208624
0.0208282
0.0207943
0.0207607
0.0207275
0.0206946
0.0206619
0.0206296
0.0205976
0.0205658
0.0205344
0.0205032
0.0204723
0.0204417
0.0204114
0.0203813
0.0203515
0.0203219
0.0202926
0.0202636
0.0202348
0.0202062
0.0201779
0.0201498
0.0201219
0.0200942
0.0200668
0.0200396
0.0200127
0.0199859
0.0199594
0.019933
0.0199069
0.019881
0.0198552
0.0198297
0.0198044
0.0197793
0.0197544
0.0197297
0.0197052
0.0196808
0.0196567
0.0196328
0.0196091
0.0195856
0.0195624
0.0195393
0.0195165
0.0194939
0.0194716
0.0194496
0.0194278
0.0194063
0.0193852
0.0193645
0.0193442
0.0193243
0.0193049
0.0192862
0.019268
0.0192507
0.0192342
0.0192186
0.0192042
0.0191911
0.0191795
0.0191696
0.0191615
0.0191556
0.019152
0.0191509
0.0191523
0.0191563
0.0209672
0.0209319
0.020897
0.0208624
0.0208282
0.0207943
0.0207607
0.0207275
0.0206946
0.0206619
0.0206296
0.0205976
0.0205658
0.0205344
0.0205032
0.0204723
0.0204417
0.0204114
0.0203813
0.0203515
0.0203219
0.0202926
0.0202636
0.0202347
0.0202062
0.0201778
0.0201497
0.0201219
0.0200942
0.0200668
0.0200396
0.0200126
0.0199859
0.0199593
0.019933
0.0199069
0.0198809
0.0198552
0.0198297
0.0198044
0.0197793
0.0197543
0.0197296
0.0197051
0.0196808
0.0196567
0.0196328
0.0196091
0.0195856
0.0195623
0.0195393
0.0195165
0.0194939
0.0194716
0.0194496
0.0194279
0.0194065
0.0193855
0.0193648
0.0193446
0.0193249
0.0193057
0.0192872
0.0192693
0.0192523
0.0192363
0.0192214
0.0192078
0.0191957
0.0191854
0.0191772
0.0191713
0.0191682
0.0191682
0.0191716
0.0191787
0.0191895
0.0209672
0.0209319
0.020897
0.0208624
0.0208282
0.0207943
0.0207607
0.0207275
0.0206946
0.0206619
0.0206296
0.0205976
0.0205658
0.0205344
0.0205032
0.0204723
0.0204417
0.0204114
0.0203813
0.0203515
0.0203219
0.0202926
0.0202636
0.0202347
0.0202062
0.0201778
0.0201497
0.0201219
0.0200942
0.0200668
0.0200396
0.0200126
0.0199858
0.0199593
0.019933
0.0199068
0.0198809
0.0198552
0.0198296
0.0198043
0.0197792
0.0197543
0.0197296
0.0197051
0.0196808
0.0196566
0.0196327
0.019609
0.0195856
0.0195623
0.0195393
0.0195165
0.019494
0.0194717
0.0194497
0.0194281
0.0194067
0.0193858
0.0193652
0.0193451
0.0193255
0.0193066
0.0192883
0.0192708
0.0192542
0.0192387
0.0192245
0.0192118
0.0192009
0.0191922
0.019186
0.0191829
0.0191833
0.019188
0.0191974
0.0192122
0.0192326
0.0209672
0.0209319
0.020897
0.0208624
0.0208282
0.0207943
0.0207607
0.0207275
0.0206945
0.0206619
0.0206296
0.0205976
0.0205658
0.0205344
0.0205032
0.0204723
0.0204417
0.0204114
0.0203813
0.0203515
0.0203219
0.0202926
0.0202635
0.0202347
0.0202062
0.0201778
0.0201497
0.0201218
0.0200942
0.0200668
0.0200396
0.0200126
0.0199858
0.0199593
0.0199329
0.0199068
0.0198809
0.0198551
0.0198296
0.0198043
0.0197792
0.0197542
0.0197295
0.019705
0.0196807
0.0196566
0.0196327
0.019609
0.0195855
0.0195623
0.0195393
0.0195165
0.019494
0.0194718
0.0194498
0.0194282
0.0194069
0.0193861
0.0193656
0.0193456
0.0193262
0.0193075
0.0192895
0.0192723
0.0192562
0.0192413
0.0192279
0.0192162
0.0192067
0.0191998
0.0191961
0.0191963
0.0192012
0.0192118
0.0192292
0.0192543
0.0192868
0.0209672
0.0209319
0.020897
0.0208624
0.0208282
0.0207943
0.0207607
0.0207275
0.0206945
0.0206619
0.0206296
0.0205976
0.0205658
0.0205344
0.0205032
0.0204723
0.0204417
0.0204114
0.0203813
0.0203515
0.0203219
0.0202926
0.0202635
0.0202347
0.0202061
0.0201778
0.0201497
0.0201218
0.0200942
0.0200667
0.0200395
0.0200126
0.0199858
0.0199592
0.0199329
0.0199067
0.0198808
0.0198551
0.0198296
0.0198042
0.0197791
0.0197542
0.0197295
0.019705
0.0196807
0.0196566
0.0196327
0.019609
0.0195855
0.0195623
0.0195393
0.0195165
0.019494
0.0194718
0.0194499
0.0194284
0.0194072
0.0193864
0.019366
0.0193462
0.019327
0.0193085
0.0192907
0.019274
0.0192583
0.0192441
0.0192315
0.019221
0.0192131
0.0192083
0.0192075
0.0192116
0.019222
0.0192402
0.0192678
0.0193047
0.0184806
0.0209672
0.0209319
0.020897
0.0208624
0.0208282
0.0207943
0.0207607
0.0207275
0.0206945
0.0206619
0.0206296
0.0205976
0.0205658
0.0205344
0.0205032
0.0204723
0.0204417
0.0204114
0.0203813
0.0203515
0.0203219
0.0202926
0.0202635
0.0202347
0.0202061
0.0201778
0.0201497
0.0201218
0.0200942
0.0200667
0.0200395
0.0200125
0.0199858
0.0199592
0.0199329
0.0199067
0.0198808
0.019855
0.0198295
0.0198042
0.0197791
0.0197542
0.0197294
0.0197049
0.0196806
0.0196565
0.0196326
0.0196089
0.0195855
0.0195623
0.0195393
0.0195166
0.0194941
0.0194719
0.0194501
0.0194286
0.0194074
0.0193867
0.0193665
0.0193468
0.0193278
0.0193095
0.0192921
0.0192757
0.0192606
0.0192471
0.0192354
0.0192262
0.0192199
0.0192175
0.01922
0.0192288
0.0192458
0.0192732
0.0193118
0.0177636
0.0159419
0.0209672
0.0209319
0.020897
0.0208624
0.0208282
0.0207943
0.0207607
0.0207275
0.0206945
0.0206619
0.0206296
0.0205976
0.0205658
0.0205344
0.0205032
0.0204723
0.0204417
0.0204114
0.0203813
0.0203515
0.0203219
0.0202926
0.0202635
0.0202347
0.0202061
0.0201778
0.0201497
0.0201218
0.0200941
0.0200667
0.0200395
0.0200125
0.0199857
0.0199592
0.0199328
0.0199067
0.0198807
0.019855
0.0198295
0.0198042
0.019779
0.0197541
0.0197294
0.0197049
0.0196806
0.0196565
0.0196326
0.0196089
0.0195855
0.0195622
0.0195393
0.0195166
0.0194942
0.019472
0.0194502
0.0194288
0.0194077
0.0193871
0.019367
0.0193475
0.0193286
0.0193106
0.0192935
0.0192775
0.019263
0.0192501
0.0192395
0.0192315
0.0192271
0.0192272
0.0192332
0.0192473
0.019272
0.0193092
0.0176869
0.0155421
0.0136942
0.0209672
0.0209319
0.020897
0.0208624
0.0208282
0.0207943
0.0207607
0.0207275
0.0206945
0.0206619
0.0206296
0.0205976
0.0205658
0.0205344
0.0205032
0.0204723
0.0204417
0.0204114
0.0203813
0.0203514
0.0203219
0.0202926
0.0202635
0.0202347
0.0202061
0.0201778
0.0201496
0.0201218
0.0200941
0.0200667
0.0200395
0.0200125
0.0199857
0.0199591
0.0199328
0.0199066
0.0198807
0.019855
0.0198294
0.0198041
0.019779
0.0197541
0.0197293
0.0197048
0.0196805
0.0196564
0.0196325
0.0196089
0.0195854
0.0195622
0.0195393
0.0195166
0.0194942
0.0194721
0.0194504
0.019429
0.019408
0.0193875
0.0193675
0.0193481
0.0193295
0.0193117
0.0192949
0.0192794
0.0192654
0.0192532
0.0192435
0.0192368
0.0192342
0.0192369
0.0192468
0.0192665
0.0192992
0.0182601
0.0157909
0.0136227
0.0117573
0.0209672
0.0209319
0.020897
0.0208624
0.0208282
0.0207943
0.0207607
0.0207275
0.0206945
0.0206619
0.0206296
0.0205976
0.0205658
0.0205344
0.0205032
0.0204723
0.0204417
0.0204113
0.0203813
0.0203514
0.0203219
0.0202926
0.0202635
0.0202347
0.0202061
0.0201777
0.0201496
0.0201217
0.0200941
0.0200667
0.0200394
0.0200125
0.0199857
0.0199591
0.0199328
0.0199066
0.0198807
0.0198549
0.0198294
0.0198041
0.0197789
0.019754
0.0197293
0.0197048
0.0196805
0.0196564
0.0196325
0.0196088
0.0195854
0.0195622
0.0195393
0.0195166
0.0194943
0.0194722
0.0194505
0.0194292
0.0194083
0.0193879
0.019368
0.0193488
0.0193303
0.0193128
0.0192963
0.0192812
0.0192677
0.0192562
0.0192474
0.019242
0.0192411
0.0192462
0.0192597
0.0192849
0.0193251
0.0167178
0.0142076
0.012006
0.0101129
0.0209672
0.0209319
0.020897
0.0208624
0.0208282
0.0207943
0.0207607
0.0207275
0.0206945
0.0206619
0.0206296
0.0205976
0.0205658
0.0205344
0.0205032
0.0204723
0.0204417
0.0204113
0.0203813
0.0203514
0.0203219
0.0202925
0.0202635
0.0202347
0.0202061
0.0201777
0.0201496
0.0201217
0.0200941
0.0200666
0.0200394
0.0200124
0.0199856
0.0199591
0.0199327
0.0199066
0.0198806
0.0198549
0.0198294
0.019804
0.0197789
0.019754
0.0197292
0.0197047
0.0196804
0.0196563
0.0196325
0.0196088
0.0195854
0.0195622
0.0195393
0.0195167
0.0194943
0.0194723
0.0194507
0.0194294
0.0194086
0.0193883
0.0193685
0.0193495
0.0193312
0.0193139
0.0192977
0.0192829
0.0192699
0.0192591
0.019251
0.0192466
0.0192472
0.0192544
0.019271
0.0193007
0.0183786
0.0155283
0.0129611
0.0106978
0.0209672
0.0209319
0.020897
0.0208624
0.0208282
0.0207943
0.0207607
0.0207275
0.0206945
0.0206619
0.0206296
0.0205976
0.0205658
0.0205344
0.0205032
0.0204723
0.0204417
0.0204113
0.0203813
0.0203514
0.0203219
0.0202925
0.0202635
0.0202346
0.0202061
0.0201777
0.0201496
0.0201217
0.0200941
0.0200666
0.0200394
0.0200124
0.0199856
0.019959
0.0199327
0.0199065
0.0198806
0.0198548
0.0198293
0.019804
0.0197788
0.0197539
0.0197292
0.0197047
0.0196804
0.0196563
0.0196324
0.0196088
0.0195854
0.0195622
0.0195393
0.0195167
0.0194944
0.0194724
0.0194508
0.0194296
0.0194089
0.0193887
0.019369
0.0193501
0.019332
0.019315
0.019299
0.0192846
0.019272
0.0192616
0.0192542
0.0192506
0.0192521
0.0192607
0.0192793
0.019312
0.0176747
0.0147646
0.0121111
0.00976102
0.0209672
0.0209319
0.020897
0.0208624
0.0208282
0.0207943
0.0207607
0.0207275
0.0206945
0.0206619
0.0206296
0.0205976
0.0205658
0.0205344
0.0205032
0.0204723
0.0204417
0.0204113
0.0203812
0.0203514
0.0203219
0.0202925
0.0202635
0.0202346
0.020206
0.0201777
0.0201496
0.0201217
0.020094
0.0200666
0.0200394
0.0200124
0.0199856
0.019959
0.0199327
0.0199065
0.0198806
0.0198548
0.0198293
0.0198039
0.0197788
0.0197539
0.0197292
0.0197047
0.0196804
0.0196563
0.0196324
0.0196088
0.0195854
0.0195622
0.0195394
0.0195168
0.0194945
0.0194726
0.019451
0.0194299
0.0194092
0.0193891
0.0193696
0.0193508
0.0193329
0.019316
0.0193003
0.0192861
0.0192738
0.0192638
0.0192567
0.0192535
0.0192554
0.0192645
0.0192835
0.0193168
0.0174881
0.0145084
0.0117623
0.00928846
0.0209672
0.0209319
0.020897
0.0208624
0.0208282
0.0207943
0.0207607
0.0207275
0.0206945
0.0206619
0.0206296
0.0205976
0.0205658
0.0205344
0.0205032
0.0204723
0.0204417
0.0204113
0.0203812
0.0203514
0.0203218
0.0202925
0.0202635
0.0202346
0.020206
0.0201777
0.0201496
0.0201217
0.020094
0.0200666
0.0200394
0.0200124
0.0199856
0.019959
0.0199326
0.0199065
0.0198805
0.0198548
0.0198292
0.0198039
0.0197788
0.0197538
0.0197291
0.0197046
0.0196803
0.0196562
0.0196324
0.0196088
0.0195854
0.0195622
0.0195394
0.0195168
0.0194946
0.0194727
0.0194512
0.0194301
0.0194095
0.0193894
0.01937
0.0193514
0.0193336
0.0193169
0.0193014
0.0192874
0.0192753
0.0192655
0.0192586
0.0192554
0.0192571
0.0192654
0.0192832
0.0193141
0.0179134
0.0148839
0.0120253
0.00939046
0.0209672
0.0209319
0.020897
0.0208624
0.0208282
0.0207943
0.0207607
0.0207275
0.0206945
0.0206619
0.0206296
0.0205976
0.0205658
0.0205344
0.0205032
0.0204723
0.0204417
0.0204113
0.0203812
0.0203514
0.0203218
0.0202925
0.0202634
0.0202346
0.020206
0.0201777
0.0201496
0.0201217
0.020094
0.0200666
0.0200393
0.0200123
0.0199855
0.019959
0.0199326
0.0199064
0.0198805
0.0198547
0.0198292
0.0198039
0.0197787
0.0197538
0.0197291
0.0197046
0.0196803
0.0196562
0.0196324
0.0196087
0.0195854
0.0195623
0.0195394
0.0195169
0.0194947
0.0194728
0.0194513
0.0194303
0.0194098
0.0193898
0.0193705
0.019352
0.0193343
0.0193177
0.0193024
0.0192886
0.0192765
0.0192667
0.0192597
0.0192561
0.019257
0.0192637
0.0192784
0.0193043
0.0190554
0.0160214
0.0130464
0.010205
0.0209672
0.0209319
0.020897
0.0208624
0.0208282
0.0207943
0.0207607
0.0207275
0.0206945
0.0206619
0.0206296
0.0205975
0.0205658
0.0205344
0.0205032
0.0204723
0.0204417
0.0204113
0.0203812
0.0203514
0.0203218
0.0202925
0.0202634
0.0202346
0.020206
0.0201777
0.0201495
0.0201216
0.020094
0.0200665
0.0200393
0.0200123
0.0199855
0.0199589
0.0199326
0.0199064
0.0198805
0.0198547
0.0198292
0.0198038
0.0197787
0.0197538
0.019729
0.0197045
0.0196802
0.0196562
0.0196323
0.0196087
0.0195854
0.0195623
0.0195394
0.0195169
0.0194947
0.0194729
0.0194515
0.0194305
0.0194101
0.0193902
0.019371
0.0193525
0.019335
0.0193185
0.0193033
0.0192895
0.0192775
0.0192676
0.0192602
0.0192559
0.0192554
0.0192596
0.0192701
0.019289
0.0193196
0.0180657
0.0150238
0.0119224
0.0209672
0.0209319
0.020897
0.0208624
0.0208282
0.0207943
0.0207607
0.0207275
0.0206945
0.0206619
0.0206296
0.0205975
0.0205658
0.0205344
0.0205032
0.0204723
0.0204417
0.0204113
0.0203812
0.0203514
0.0203218
0.0202925
0.0202634
0.0202346
0.020206
0.0201776
0.0201495
0.0201216
0.020094
0.0200665
0.0200393
0.0200123
0.0199855
0.0199589
0.0199325
0.0199064
0.0198804
0.0198547
0.0198291
0.0198038
0.0197787
0.0197537
0.019729
0.0197045
0.0196802
0.0196562
0.0196323
0.0196087
0.0195854
0.0195623
0.0195395
0.019517
0.0194948
0.019473
0.0194517
0.0194307
0.0194103
0.0193905
0.0193714
0.019353
0.0193356
0.0193192
0.019304
0.0192903
0.0192782
0.0192681
0.0192602
0.019255
0.0192528
0.0192542
0.0192599
0.0192711
0.0192897
0.0193191
0.0181775
0.0147936
0.0209672
0.0209319
0.020897
0.0208624
0.0208282
0.0207943
0.0207607
0.0207275
0.0206945
0.0206619
0.0206296
0.0205975
0.0205658
0.0205344
0.0205032
0.0204723
0.0204417
0.0204113
0.0203812
0.0203514
0.0203218
0.0202925
0.0202634
0.0202346
0.020206
0.0201776
0.0201495
0.0201216
0.020094
0.0200665
0.0200393
0.0200123
0.0199855
0.0199589
0.0199325
0.0199064
0.0198804
0.0198547
0.0198291
0.0198038
0.0197786
0.0197537
0.019729
0.0197045
0.0196802
0.0196561
0.0196323
0.0196087
0.0195854
0.0195623
0.0195395
0.019517
0.0194949
0.0194731
0.0194518
0.0194309
0.0194106
0.0193908
0.0193718
0.0193535
0.0193361
0.0193198
0.0193047
0.0192909
0.0192787
0.0192683
0.0192599
0.0192536
0.0192497
0.0192482
0.0192493
0.0192533
0.0192608
0.0192739
0.019297
0.0189418
0.0209672
0.0209319
0.020897
0.0208624
0.0208282
0.0207943
0.0207607
0.0207275
0.0206945
0.0206619
0.0206296
0.0205975
0.0205658
0.0205344
0.0205032
0.0204723
0.0204417
0.0204113
0.0203812
0.0203514
0.0203218
0.0202925
0.0202634
0.0202346
0.020206
0.0201776
0.0201495
0.0201216
0.0200939
0.0200665
0.0200393
0.0200123
0.0199855
0.0199589
0.0199325
0.0199063
0.0198804
0.0198546
0.0198291
0.0198037
0.0197786
0.0197537
0.019729
0.0197045
0.0196802
0.0196561
0.0196323
0.0196087
0.0195854
0.0195623
0.0195395
0.0195171
0.019495
0.0194732
0.0194519
0.0194311
0.0194108
0.0193911
0.0193721
0.0193539
0.0193366
0.0193203
0.0193052
0.0192914
0.0192791
0.0192684
0.0192594
0.0192521
0.0192465
0.0192424
0.0192395
0.0192374
0.0192362
0.0192367
0.0192421
0.0192605
0.0209672
0.0209319
0.020897
0.0208624
0.0208282
0.0207943
0.0207607
0.0207275
0.0206945
0.0206619
0.0206296
0.0205975
0.0205658
0.0205343
0.0205032
0.0204723
0.0204417
0.0204113
0.0203812
0.0203514
0.0203218
0.0202925
0.0202634
0.0202346
0.020206
0.0201776
0.0201495
0.0201216
0.0200939
0.0200665
0.0200392
0.0200122
0.0199854
0.0199589
0.0199325
0.0199063
0.0198804
0.0198546
0.0198291
0.0198037
0.0197786
0.0197536
0.0197289
0.0197044
0.0196801
0.0196561
0.0196323
0.0196087
0.0195854
0.0195623
0.0195396
0.0195171
0.019495
0.0194733
0.0194521
0.0194313
0.019411
0.0193914
0.0193724
0.0193543
0.019337
0.0193208
0.0193057
0.0192919
0.0192794
0.0192684
0.0192589
0.0192507
0.0192437
0.0192374
0.0192313
0.0192247
0.0192172
0.0192092
0.0192036
0.0192072
0.0209672
0.0209319
0.020897
0.0208624
0.0208282
0.0207943
0.0207607
0.0207275
0.0206945
0.0206619
0.0206296
0.0205975
0.0205658
0.0205343
0.0205032
0.0204723
0.0204417
0.0204113
0.0203812
0.0203514
0.0203218
0.0202925
0.0202634
0.0202346
0.020206
0.0201776
0.0201495
0.0201216
0.0200939
0.0200665
0.0200392
0.0200122
0.0199854
0.0199588
0.0199325
0.0199063
0.0198803
0.0198546
0.019829
0.0198037
0.0197786
0.0197536
0.0197289
0.0197044
0.0196801
0.0196561
0.0196323
0.0196087
0.0195854
0.0195623
0.0195396
0.0195172
0.0194951
0.0194734
0.0194522
0.0194314
0.0194112
0.0193916
0.0193727
0.0193546
0.0193374
0.0193212
0.0193061
0.0192922
0.0192797
0.0192684
0.0192584
0.0192495
0.0192413
0.0192334
0.0192249
0.0192153
0.0192039
0.0191912
0.0191801
0.0191769
0.0209672
0.0209319
0.020897
0.0208624
0.0208282
0.0207943
0.0207607
0.0207275
0.0206945
0.0206619
0.0206296
0.0205975
0.0205658
0.0205343
0.0205032
0.0204723
0.0204417
0.0204113
0.0203812
0.0203514
0.0203218
0.0202925
0.0202634
0.0202346
0.020206
0.0201776
0.0201495
0.0201216
0.0200939
0.0200665
0.0200392
0.0200122
0.0199854
0.0199588
0.0199324
0.0199063
0.0198803
0.0198546
0.019829
0.0198037
0.0197785
0.0197536
0.0197289
0.0197044
0.0196801
0.0196561
0.0196322
0.0196087
0.0195854
0.0195623
0.0195396
0.0195172
0.0194952
0.0194735
0.0194523
0.0194316
0.0194114
0.0193918
0.019373
0.0193549
0.0193378
0.0193216
0.0193065
0.0192926
0.0192799
0.0192684
0.019258
0.0192486
0.0192396
0.0192305
0.0192206
0.0192092
0.019196
0.0191817
0.0191693
0.0191657
0.0209672
0.0209319
0.020897
0.0208624
0.0208282
0.0207943
0.0207607
0.0207275
0.0206945
0.0206619
0.0206296
0.0205975
0.0205658
0.0205343
0.0205032
0.0204723
0.0204417
0.0204113
0.0203812
0.0203514
0.0203218
0.0202925
0.0202634
0.0202346
0.020206
0.0201776
0.0201495
0.0201216
0.0200939
0.0200664
0.0200392
0.0200122
0.0199854
0.0199588
0.0199324
0.0199063
0.0198803
0.0198545
0.019829
0.0198037
0.0197785
0.0197536
0.0197289
0.0197044
0.0196801
0.0196561
0.0196322
0.0196087
0.0195854
0.0195624
0.0195396
0.0195173
0.0194952
0.0194736
0.0194524
0.0194317
0.0194115
0.019392
0.0193732
0.0193552
0.019338
0.0193219
0.0193068
0.0192929
0.0192801
0.0192685
0.0192579
0.019248
0.0192385
0.0192288
0.0192182
0.0192062
0.0191927
0.0191792
0.0191693
0.0191701
0.0209672
0.0209319
0.020897
0.0208624
0.0208282
0.0207943
0.0207607
0.0207275
0.0206945
0.0206619
0.0206296
0.0205975
0.0205658
0.0205343
0.0205032
0.0204723
0.0204417
0.0204113
0.0203812
0.0203514
0.0203218
0.0202925
0.0202634
0.0202346
0.020206
0.0201776
0.0201495
0.0201216
0.0200939
0.0200664
0.0200392
0.0200122
0.0199854
0.0199588
0.0199324
0.0199062
0.0198803
0.0198545
0.019829
0.0198036
0.0197785
0.0197536
0.0197289
0.0197044
0.0196801
0.019656
0.0196322
0.0196087
0.0195854
0.0195624
0.0195397
0.0195173
0.0194953
0.0194736
0.0194525
0.0194318
0.0194117
0.0193922
0.0193734
0.0193554
0.0193383
0.0193222
0.0193071
0.0192931
0.0192803
0.0192686
0.0192578
0.0192477
0.019238
0.019228
0.0192173
0.0192055
0.0191932
0.0191824
0.0191777
0.0191873
0.0209672
0.0209319
0.020897
0.0208624
0.0208282
0.0207943
0.0207607
0.0207275
0.0206945
0.0206619
0.0206296
0.0205975
0.0205658
0.0205343
0.0205032
0.0204723
0.0204417
0.0204113
0.0203812
0.0203514
0.0203218
0.0202925
0.0202634
0.0202345
0.020206
0.0201776
0.0201495
0.0201216
0.0200939
0.0200664
0.0200392
0.0200122
0.0199854
0.0199588
0.0199324
0.0199062
0.0198803
0.0198545
0.019829
0.0198036
0.0197785
0.0197536
0.0197289
0.0197044
0.0196801
0.019656
0.0196322
0.0196087
0.0195854
0.0195624
0.0195397
0.0195173
0.0194953
0.0194737
0.0194525
0.0194319
0.0194118
0.0193923
0.0193736
0.0193556
0.0193385
0.0193224
0.0193073
0.0192934
0.0192805
0.0192687
0.0192579
0.0192477
0.0192379
0.0192279
0.0192175
0.0192066
0.0191963
0.0209672
0.0209319
0.020897
0.0208624
0.0208282
0.0207943
0.0207607
0.0207275
0.0206945
0.0206619
0.0206296
0.0205975
0.0205658
0.0205343
0.0205032
0.0204723
0.0204416
0.0204113
0.0203812
0.0203514
0.0203218
0.0202925
0.0202634
0.0202345
0.0202059
0.0201776
0.0201495
0.0201216
0.0200939
0.0200664
0.0200392
0.0200122
0.0199854
0.0199588
0.0199324
0.0199062
0.0198803
0.0198545
0.019829
0.0198036
0.0197785
0.0197536
0.0197288
0.0197043
0.0196801
0.019656
0.0196322
0.0196087
0.0195854
0.0195624
0.0195397
0.0195173
0.0194953
0.0194737
0.0194526
0.0194319
0.0194119
0.0193924
0.0193737
0.0193557
0.0193387
0.0193226
0.0193075
0.0192936
0.0192807
0.0192689
0.019258
0.0192478
0.019238
0.0192282
0.0192183
0.0209672
0.0209319
0.020897
0.0208624
0.0208282
0.0207943
0.0207607
0.0207275
0.0206945
0.0206619
0.0206296
0.0205975
0.0205658
0.0205343
0.0205032
0.0204723
0.0204416
0.0204113
0.0203812
0.0203514
0.0203218
0.0202925
0.0202634
0.0202345
0.0202059
0.0201776
0.0201495
0.0201216
0.0200939
0.0200664
0.0200392
0.0200122
0.0199854
0.0199588
0.0199324
0.0199062
0.0198803
0.0198545
0.019829
0.0198036
0.0197785
0.0197536
0.0197288
0.0197043
0.0196801
0.019656
0.0196322
0.0196087
0.0195854
0.0195624
0.0195397
0.0195173
0.0194954
0.0194738
0.0194526
0.019432
0.0194119