/*--------------------------------*- C++ -*----------------------------------*\
  =========                 |
  \\      /  F ield         | OpenFOAM: The Open Source CFD Toolbox
   \\    /   O peration     | Website:  https://openfoam.org
    \\  /    A nd           | Version:  13
     \\/     M anipulation  |
\*---------------------------------------------------------------------------*/
FoamFile
{
    format      ascii;
    class       volScalarField;
    location    "400";
    object      nut;
}
// * * * * * * * * * * * * * * * * * * * * * * * * * * * * * * * * * * * * * //

dimensions      [0 2 -1 0 0 0 0];

internalField   nonuniform List<scalar> 
171634
(
0.0190296
0.0190158
0.0190022
0.0189886
0.018975
0.0189614
0.0189478
0.0189341
0.0189202
0.0189063
0.0188923
0.0188782
0.018864
0.0188498
0.0188356
0.0188214
0.0188072
0.0187931
0.0187791
0.0187652
0.0187514
0.0187377
0.0190303
0.0190166
0.019003
0.0189894
0.0189759
0.0189624
0.0189488
0.0189352
0.0189214
0.0189075
0.0188935
0.0188794
0.0188652
0.018851
0.0188368
0.0188225
0.0188083
0.0187942
0.0187802
0.0187662
0.0187524
0.0187387
0.0190318
0.0190182
0.0190047
0.0189914
0.018978
0.0189646
0.0189511
0.0189376
0.0189238
0.01891
0.018896
0.0188819
0.0188677
0.0188535
0.0188392
0.0188249
0.0188107
0.0187965
0.0187824
0.0187684
0.0187545
0.0187408
0.019034
0.0190207
0.0190075
0.0189943
0.0189812
0.018968
0.0189547
0.0189412
0.0189276
0.0189138
0.0188999
0.0188858
0.0188716
0.0188573
0.018843
0.0188287
0.0188143
0.0188001
0.0187859
0.0187719
0.018758
0.0187442
0.0190372
0.0190242
0.0190114
0.0189986
0.0189858
0.0189728
0.0189598
0.0189465
0.0189331
0.0189194
0.0189055
0.0188914
0.0188772
0.0188629
0.0188485
0.0188341
0.0188197
0.0188053
0.0187911
0.0187769
0.018763
0.0187492
0.0190414
0.0190289
0.0190166
0.0190042
0.0189919
0.0189794
0.0189666
0.0189537
0.0189404
0.0189269
0.0189131
0.0188991
0.0188849
0.0188705
0.0188561
0.0188415
0.018827
0.0188126
0.0187982
0.018784
0.01877
0.0187561
0.0190468
0.019035
0.0190233
0.0190117
0.0189999
0.018988
0.0189757
0.0189632
0.0189503
0.018937
0.0189234
0.0189094
0.0188952
0.0188808
0.0188663
0.0188517
0.0188371
0.0188225
0.0188081
0.0187938
0.0187797
0.0187658
0.0190538
0.0190429
0.0190321
0.0190213
0.0190104
0.0189992
0.0189877
0.0189757
0.0189633
0.0189503
0.018937
0.0189232
0.0189091
0.0188947
0.0188801
0.0188654
0.0188507
0.0188361
0.0188216
0.0188072
0.0187931
0.0187792
0.0190626
0.0190529
0.0190434
0.0190338
0.0190241
0.019014
0.0190034
0.0189923
0.0189805
0.0189681
0.0189552
0.0189417
0.0189277
0.0189134
0.0188989
0.0188842
0.0188695
0.0188548
0.0188402
0.0188259
0.0188118
0.0187979
0.0190739
0.0190659
0.019058
0.0190502
0.019042
0.0190335
0.0190243
0.0190144
0.0190036
0.0189921
0.0189798
0.0189668
0.0189532
0.0189391
0.0189247
0.0189101
0.0188955
0.0188808
0.0188664
0.0188521
0.0188381
0.0188244
0.0190884
0.0190826
0.0190771
0.0190716
0.0190658
0.0190595
0.0190523
0.0190442
0.0190351
0.0190248
0.0190136
0.0190014
0.0189884
0.0189748
0.0189607
0.0189464
0.018932
0.0189175
0.0189032
0.0188892
0.0188754
0.018862
0.019107
0.0191044
0.0191022
0.0191002
0.0190978
0.0190947
0.0190906
0.0190852
0.0190784
0.0190702
0.0190606
0.0190497
0.0190378
0.019025
0.0190115
0.0189977
0.0189837
0.0189696
0.0189557
0.018942
0.0189287
0.0189158
0.0191311
0.0191329
0.0191356
0.0191386
0.0191413
0.0191431
0.0191436
0.0191423
0.0191391
0.0191339
0.0191268
0.019118
0.0191076
0.019096
0.0190835
0.0190704
0.019057
0.0190435
0.0190301
0.019017
0.0190043
0.018992
0.0191626
0.0191709
0.0191807
0.0191912
0.0192015
0.0192105
0.0192177
0.0192225
0.0192244
0.0192236
0.0192199
0.0192138
0.0192055
0.0191954
0.019184
0.0191716
0.0191588
0.0191458
0.0191328
0.0191201
0.0191078
0.019096
0.019204
0.0192218
0.0192419
0.0192631
0.019284
0.0193031
0.0193193
0.0193318
0.0193402
0.0193444
0.0193446
0.0193413
0.0193349
0.0193259
0.019315
0.0193029
0.0192899
0.0192767
0.0192634
0.0192504
0.0192378
0.0192257
0.0192584
0.0192887
0.0193216
0.0193551
0.0193872
0.0194163
0.0194411
0.0194607
0.0194747
0.019483
0.0194859
0.0194841
0.0194782
0.019469
0.0194572
0.0194438
0.0194293
0.0194144
0.0193994
0.0193846
0.0193702
0.0193563
0.0193255
0.0187629
0.0180082
0.0176157
0.0176225
0.018061
0.018955
0.019547
0.0195635
0.0195735
0.0195773
0.0195755
0.0195689
0.0195582
0.0195445
0.0195286
0.0195113
0.0194934
0.0194753
0.0194572
0.0194393
0.0194218
0.0169959
0.0158218
0.0149714
0.0144713
0.0143583
0.0146638
0.0154024
0.0165655
0.0181578
0.0194898
0.0194947
0.0194934
0.0194866
0.0194751
0.0194599
0.0194422
0.0194226
0.019402
0.0193806
0.0193587
0.0193365
0.019314
0.0144067
0.0131766
0.0122553
0.0116648
0.0114419
0.0116255
0.0122711
0.0133556
0.0148363
0.0167314
0.0191051
0.0191021
0.0190947
0.0190829
0.0190672
0.0190483
0.0190268
0.0190032
0.0189776
0.01895
0.0189204
0.0188884
0.0181531
0.0181362
0.0181147
0.0180872
0.0180528
0.01801
0.0179569
0.0178912
0.0164666
0.0164457
0.0164035
0.0163335
0.0162285
0.0160823
0.0158899
0.0156487
0.0191894
0.0191921
0.0192135
0.0183623
0.0192083
0.0192004
0.019198
0.0192085
0.0192419
0.0163008
0.01301
0.0192101
0.0192041
0.0192055
0.0192225
0.0192654
0.0149812
0.0120603
0.0192114
0.0192066
0.0192102
0.0192309
0.018486
0.0143387
0.0115818
0.00989563
0.0192113
0.0192066
0.0192101
0.0192308
0.0184896
0.0143414
0.0115848
0.00989951
0.0192379
0.0192283
0.0192188
0.01921
0.019204
0.0192054
0.0192224
0.0192652
0.0149866
0.0120663
0.0102707
0.0192476
0.0192378
0.019228
0.019218
0.0192082
0.0192002
0.0191979
0.0192083
0.0192417
0.016308
0.0130178
0.0109858
0.0192475
0.0192376
0.0192276
0.0192171
0.0192062
0.0191959
0.0191891
0.0191918
0.0192132
0.0183717
0.0144387
0.0119679
0.0192475
0.0192377
0.0192277
0.0192169
0.0192051
0.0191928
0.019182
0.0191774
0.0191873
0.0192218
0.0161045
0.0130062
0.0192478
0.0192382
0.0192285
0.0192178
0.0192057
0.0191922
0.0191786
0.0191687
0.0191699
0.0191926
0.0176376
0.0138005
0.011466
0.0192579
0.0192484
0.0192393
0.0192302
0.0192202
0.0192087
0.0191953
0.0191809
0.0191686
0.019165
0.0191812
0.0184784
0.0140559
0.011372
0.0192683
0.0192582
0.0192493
0.019241
0.019233
0.0192245
0.0192147
0.0192031
0.0191903
0.0191791
0.0191759
0.0191924
0.0181191
0.0135856
0.0108126
0.0192683
0.0192587
0.0192505
0.0192434
0.019237
0.0192308
0.019224
0.0192163
0.0192081
0.0192023
0.0192057
0.0192309
0.0165017
0.012386
0.00980328
0.0192683
0.0192593
0.0192519
0.0192463
0.0192421
0.019239
0.0192367
0.0192352
0.0192354
0.0192405
0.0192587
0.0188201
0.0139773
0.0105429
0.00836227
0.00697008
0.00615516
0.0053876
0.00495302
0.0192683
0.0192598
0.0192535
0.0192494
0.0192479
0.0192488
0.0192525
0.0192598
0.0192725
0.0192951
0.0190103
0.0147612
0.0109749
0.00813804
0.0063251
0.00505165
0.00519214
0.00634059
0.00439219
0.019268
0.0192601
0.0192549
0.0192526
0.0192539
0.0192594
0.0192704
0.0192887
0.0193177
0.0182552
0.0148455
0.0113556
0.00822669
0.00570298
0.00433991
0.00552489
0.00368344
0.00345679
0.00318997
0.00277485
0.0192676
0.0192602
0.0192558
0.0192552
0.0192594
0.0192697
0.0192883
0.0193187
0.0181297
0.0150769
0.0119605
0.00898603
0.00632166
0.00425637
0.00462674
0.0024492
0.00198555
0.00178968
0.00342729
0.00245991
0.00211368
0.0192667
0.0192597
0.019256
0.0192568
0.0192634
0.019278
0.0193037
0.0191036
0.0160648
0.013082
0.0102316
0.00761932
0.00535122
0.00363867
0.00317236
0.00169361
0.00115286
0.00134103
0.000678192
0.00179932
0.00152011
0.001936
0.0192655
0.0192586
0.0192553
0.019257
0.0192653
0.0192829
0.0193137
0.0179458
0.014913
0.0120501
0.00941109
0.00706807
0.00509138
0.00365645
0.00291206
0.0017767
0.00131873
0.00102479
0.000959361
0.000907968
0.00108388
0.00100651
0.0192638
0.0192567
0.0192535
0.0192555
0.0192644
0.0192834
0.0193165
0.0175089
0.0145277
0.0117801
0.00930525
0.00715338
0.00536075
0.00396874
0.0030835
0.00285509
0.00208249
0.00230832
0.00176114
0.0016733
0.00165922
0.00161736
0.00151047
0.00179224
0.00202524
0.0192617
0.0192542
0.0192506
0.0192521
0.0192607
0.0192793
0.0193119
0.0176859
0.0147755
0.0121222
0.009773
0.00775464
0.0061008
0.00480302
0.00402158
0.00357225
0.00311278
0.00242931
0.0021801
0.00241798
0.00297228
0.00362577
0.00344249
0.00331958
0.00341189
0.00330493
0.00319234
0.00309326
0.00299893
0.00291424
0.00284202
0.00278358
0.00273931
0.00270903
0.00269222
0.00268595
0.00269105
0.00270761
0.00273565
0.00277539
0.00282699
0.00289028
0.0192592
0.0192511
0.0192468
0.0192473
0.0192545
0.0192711
0.0193008
0.0183807
0.0155309
0.0129647
0.010703
0.0087693
0.00717228
0.00590216
0.00494725
0.00446889
0.00403425
0.00476123
0.00328502
0.00366785
0.00460064
0.00616657
0.00750027
0.00786175
0.00779076
0.00743377
0.00701923
0.00698897
0.00660796
0.00622483
0.00586205
0.0055294
0.0052298
0.00496359
0.00472895
0.004523
0.00434251
0.00418433
0.00404568
0.00392423
0.00381825
0.00372678
0.00365031
0.0192564
0.0192475
0.0192421
0.0192412
0.0192464
0.01926
0.0192852
0.0193253
0.0167116
0.0142029
0.0120032
0.010112
0.00853464
0.00725674
0.0062592
0.00559864
0.00545771
0.00511195
0.0056523
0.00649073
0.00773441
0.00938891
0.0113564
0.0134888
0.0134472
0.0133701
0.0128261
0.0124813
0.012199
0.0119
0.0115909
0.0112772
0.0108285
0.0102821
0.00974557
0.00922949
0.00873927
0.00827641
0.0078397
0.0074264
0.00703303
0.00665622
0.00629485
0.0192655
0.0192534
0.0192437
0.019237
0.0192344
0.0192372
0.0192471
0.0192668
0.0192997
0.0182446
0.0157771
0.0136109
0.0117477
0.0101811
0.00890459
0.00791456
0.00723376
0.00698019
0.00727625
0.00783129
0.0087319
0.0100484
0.0118454
0.0141371
0.0164111
0.0163961
0.0163845
0.0163663
0.0163324
0.0162748
0.0161858
0.0160581
0.0158852
0.0156632
0.0153905
0.0150677
0.0146971
0.0142819
0.0138254
0.0133305
0.0127994
0.0122196
0.0110413
0.00999272
0.0192631
0.0192503
0.0192396
0.0192317
0.0192273
0.0192275
0.0192336
0.0192477
0.0192725
0.0193099
0.0176636
0.0155207
0.0136751
0.0121242
0.0108633
0.00989523
0.00924121
0.00894072
0.00902977
0.00955442
0.0105557
0.0120344
0.0140062
0.0165625
0.0181488
0.0181355
0.0181215
0.0181048
0.0180836
0.0180568
0.0180233
0.0179818
0.0179305
0.0178672
0.0177892
0.0176932
0.0175757
0.0174326
0.017259
0.0170491
0.0167963
0.0164928
0.0161309
0.0155416
0.0192608
0.0192473
0.0192356
0.0192264
0.0192202
0.0192178
0.0192203
0.0192292
0.0192464
0.0192739
0.0193127
0.017732
0.0159122
0.0143854
0.0131575
0.0122368
0.0116443
0.0114173
0.0115951
0.0122356
0.0133247
0.0148345
0.0167945
0.0190919
0.0190858
0.0190755
0.019061
0.0190428
0.0190216
0.0189977
0.0189716
0.0189434
0.0189131
0.0188803
0.0188447
0.0188056
0.018762
0.0187128
0.0186563
0.0185905
0.0185125
0.0184185
0.0183035
0.0181612
0.0192585
0.0192443
0.0192318
0.0192213
0.0192134
0.0192086
0.0192079
0.0192121
0.0192226
0.019241
0.0192687
0.0193058
0.0184397
0.0169647
0.015793
0.0149435
0.0144425
0.0143273
0.0146305
0.0153703
0.0165449
0.0181721
0.0194859
0.0194895
0.0194866
0.0194782
0.0194652
0.0194486
0.0194295
0.0194087
0.0193868
0.0193641
0.019341
0.0193175
0.0192936
0.0192692
0.0192443
0.0192187
0.0191922
0.0191647
0.0191358
0.0191051
0.0190717
0.0190345
0.0192564
0.0192415
0.0192281
0.0192165
0.019207
0.0192002
0.0191965
0.0191968
0.0192018
0.0192125
0.0192301
0.0192553
0.0192881
0.019327
0.0187238
0.0179702
0.017578
0.0175846
0.0180242
0.0189244
0.0195474
0.0195636
0.0195731
0.0195762
0.0195736
0.0195661
0.0195546
0.0195401
0.0195235
0.0195056
0.019487
0.0194683
0.0194495
0.0194311
0.0194129
0.0193951
0.0193778
0.0193609
0.0193444
0.0193286
0.0193136
0.0192996
0.0192867
0.0192749
0.0192544
0.0192389
0.0192247
0.0192121
0.0192012
0.0191925
0.0191864
0.0191834
0.0191839
0.0191887
0.0191982
0.0192132
0.0192338
0.0192599
0.0192904
0.0193234
0.019357
0.0193893
0.0194184
0.0194432
0.0194628
0.0194766
0.0194846
0.0194872
0.019485
0.0194786
0.0194689
0.0194567
0.0194429
0.019428
0.0194128
0.0193974
0.0193823
0.0193677
0.0193535
0.0193399
0.019327
0.0193147
0.0193032
0.0192926
0.019283
0.0192745
0.0192674
0.0192618
0.0192525
0.0192365
0.0192216
0.0192081
0.019196
0.0191858
0.0191776
0.0191718
0.0191688
0.0191689
0.0191724
0.0191796
0.0191906
0.0192054
0.0192233
0.0192436
0.019265
0.019286
0.0193052
0.0193216
0.0193341
0.0193425
0.0193466
0.0193467
0.0193432
0.0193365
0.0193273
0.0193162
0.0193038
0.0192907
0.0192773
0.0192639
0.0192507
0.019238
0.0192258
0.0192143
0.0192034
0.0191933
0.0191839
0.0191753
0.0191677
0.0191611
0.0191556
0.0191513
0.0192509
0.0192344
0.0192189
0.0192045
0.0191914
0.0191799
0.01917
0.019162
0.0191562
0.0191526
0.0191516
0.0191531
0.0191573
0.0191638
0.0191723
0.0191823
0.0191929
0.0192033
0.0192125
0.0192198
0.0192246
0.0192266
0.0192257
0.019222
0.0192158
0.0192074
0.0191972
0.0191857
0.0191733
0.0191603
0.0191472
0.0191342
0.0191215
0.0191091
0.0190973
0.0190861
0.0190755
0.0190656
0.0190564
0.0190479
0.0190403
0.0190334
0.0190275
0.0190225
0.0192494
0.0192325
0.0192164
0.0192014
0.0191874
0.0191748
0.0191635
0.0191537
0.0191456
0.0191393
0.0191349
0.0191323
0.0191314
0.0191322
0.0191342
0.019137
0.0191401
0.0191429
0.0191449
0.0191454
0.0191442
0.019141
0.0191359
0.0191288
0.0191199
0.0191095
0.0190979
0.0190854
0.0190722
0.0190588
0.0190453
0.0190319
0.0190188
0.019006
0.0189938
0.0189821
0.0189709
0.0189604
0.0189504
0.0189412
0.0189326
0.0189247
0.0189175
0.0189111
0.019248
0.0192308
0.0192143
0.0191986
0.019184
0.0191704
0.0191579
0.0191468
0.0191369
0.0191285
0.0191214
0.0191157
0.0191113
0.019108
0.0191055
0.0191034
0.0191015
0.0190992
0.0190962
0.0190922
0.0190869
0.0190802
0.019072
0.0190624
0.0190515
0.0190396
0.0190268
0.0190134
0.0189995
0.0189855
0.0189715
0.0189576
0.018944
0.0189307
0.0189179
0.0189055
0.0188936
0.0188823
0.0188715
0.0188613
0.0188516
0.0188425
0.018834
0.018826
0.0192469
0.0192293
0.0192124
0.0191963
0.019181
0.0191666
0.0191533
0.0191409
0.0191297
0.0191196
0.0191106
0.0191026
0.0190956
0.0190893
0.0190836
0.0190782
0.0190729
0.0190672
0.0190609
0.0190538
0.0190458
0.0190367
0.0190265
0.0190153
0.0190031
0.0189902
0.0189766
0.0189626
0.0189483
0.0189339
0.0189195
0.0189052
0.0188912
0.0188775
0.0188642
0.0188513
0.0188388
0.0188269
0.0188153
0.0188043
0.0187937
0.0187836
0.018774
0.0187648
0.0192459
0.019228
0.0192108
0.0191943
0.0191785
0.0191635
0.0191494
0.0191361
0.0191238
0.0191124
0.0191019
0.0190922
0.0190832
0.0190748
0.0190669
0.0190591
0.0190513
0.0190433
0.0190348
0.0190257
0.0190158
0.0190052
0.0189937
0.0189814
0.0189685
0.0189549
0.0189409
0.0189266
0.018912
0.0188974
0.0188828
0.0188684
0.0188542
0.0188402
0.0188266
0.0188134
0.0188005
0.0187881
0.018776
0.0187644
0.0187531
0.0187423
0.0187318
0.0187216
0.019245
0.0192269
0.0192094
0.0191926
0.0191763
0.0191609
0.0191461
0.0191321
0.0191189
0.0191065
0.0190949
0.0190839
0.0190734
0.0190635
0.0190539
0.0190444
0.0190349
0.0190252
0.0190152
0.0190047
0.0189936
0.018982
0.0189696
0.0189567
0.0189433
0.0189294
0.0189152
0.0189007
0.0188861
0.0188714
0.0188568
0.0188423
0.018828
0.018814
0.0188002
0.0187868
0.0187736
0.0187609
0.0187485
0.0187364
0.0187247
0.0187133
0.0187022
0.0186913
0.0192443
0.019226
0.0192083
0.0191911
0.0191745
0.0191586
0.0191434
0.0191288
0.019115
0.0191018
0.0190892
0.0190772
0.0190657
0.0190546
0.0190438
0.0190331
0.0190224
0.0190115
0.0190004
0.0189889
0.018977
0.0189646
0.0189518
0.0189385
0.0189248
0.0189107
0.0188964
0.0188819
0.0188673
0.0188526
0.0188381
0.0188236
0.0188093
0.0187953
0.0187815
0.0187679
0.0187547
0.0187417
0.0187291
0.0187167
0.0187046
0.0186928
0.0186812
0.0186699
0.0192436
0.0192252
0.0192073
0.0191899
0.019173
0.0191568
0.0191412
0.0191262
0.0191117
0.0190979
0.0190847
0.0190719
0.0190596
0.0190476
0.0190359
0.0190243
0.0190127
0.019001
0.0189891
0.0189769
0.0189644
0.0189516
0.0189384
0.0189248
0.0189109
0.0188968
0.0188825
0.018868
0.0188535
0.0188389
0.0188245
0.0188101
0.0187959
0.0187818
0.018768
0.0187545
0.0187411
0.0187281
0.0187153
0.0187027
0.0186904
0.0186783
0.0186664
0.0186546
0.0192431
0.0192245
0.0192064
0.0191889
0.0191718
0.0191553
0.0191393
0.019124
0.0191091
0.0190948
0.0190811
0.0190677
0.0190548
0.0190421
0.0190297
0.0190174
0.0190052
0.0189929
0.0189804
0.0189678
0.0189549
0.0189417
0.0189283
0.0189146
0.0189006
0.0188864
0.0188721
0.0188577
0.0188433
0.0188289
0.0188145
0.0188002
0.0187861
0.0187721
0.0187583
0.0187448
0.0187314
0.0187183
0.0187054
0.0186927
0.0186802
0.0186679
0.0186557
0.0186436
0.0192427
0.019224
0.0192058
0.019188
0.0191708
0.0191541
0.0191379
0.0191222
0.0191071
0.0190924
0.0190782
0.0190645
0.019051
0.0190379
0.019025
0.0190122
0.0189995
0.0189867
0.0189739
0.0189609
0.0189477
0.0189343
0.0189207
0.0189069
0.0188929
0.0188787
0.0188645
0.0188501
0.0188358
0.0188215
0.0188072
0.018793
0.0187789
0.018765
0.0187513
0.0187378
0.0187244
0.0187112
0.0186983
0.0186855
0.0186728
0.0186603
0.018648
0.0186357
0.0192423
0.0192236
0.0192053
0.0191874
0.01917
0.0191532
0.0191368
0.0191209
0.0191055
0.0190906
0.0190761
0.019062
0.0190482
0.0190347
0.0190215
0.0190083
0.0189953
0.0189822
0.018969
0.0189558
0.0189424
0.0189289
0.0189151
0.0189013
0.0188872
0.0188731
0.0188589
0.0188446
0.0188304
0.0188161
0.0188019
0.0187878
0.0187738
0.01876
0.0187463
0.0187328
0.0187194
0.0187062
0.0186932
0.0186804
0.0186676
0.018655
0.0186425
0.01863
0.0192421
0.0192233
0.0192049
0.019187
0.0191695
0.0191525
0.019136
0.0191199
0.0191044
0.0190893
0.0190746
0.0190602
0.0190462
0.0190325
0.019019
0.0190056
0.0189923
0.018979
0.0189657
0.0189522
0.0189387
0.0189251
0.0189113
0.0188974
0.0188833
0.0188692
0.018855
0.0188408
0.0188266
0.0188124
0.0187983
0.0187843
0.0187703
0.0187566
0.0187429
0.0187294
0.018716
0.0187028
0.0186898
0.0186769
0.0186641
0.0186514
0.0186388
0.0186262
0.0192419
0.0192231
0.0192046
0.0191867
0.0191691
0.019152
0.0191354
0.0191193
0.0191036
0.0190884
0.0190735
0.0190591
0.0190449
0.019031
0.0190173
0.0190038
0.0189903
0.0189769
0.0189634
0.0189499
0.0189363
0.0189226
0.0189088
0.0188948
0.0188808
0.0188667
0.0188525
0.0188384
0.0188242
0.0188101
0.018796
0.018782
0.0187681
0.0187544
0.0187407
0.0187273
0.0187139
0.0187007
0.0186876
0.0186747
0.0186619
0.0186491
0.0186364
0.0186238
0.0192419
0.019223
0.0192046
0.0191865
0.019169
0.0191519
0.0191352
0.0191191
0.0191033
0.019088
0.0190731
0.0190586
0.0190443
0.0190304
0.0190166
0.019003
0.0189895
0.0189759
0.0189624
0.0189488
0.0189352
0.0189214
0.0189076
0.0188936
0.0188796
0.0188655
0.0188513
0.0188372
0.018823
0.0188089
0.0187949
0.0187809
0.0187671
0.0187533
0.0187397
0.0187262
0.0187129
0.0186997
0.0186866
0.0186737
0.0186608
0.0186481
0.0186354
0.0186227
0.0190294
0.0190156
0.0190019
0.0189883
0.0189748
0.0189612
0.0189475
0.0189338
0.01892
0.0189061
0.0188921
0.018878
0.0188639
0.0188497
0.0188355
0.0188213
0.0188072
0.0187931
0.0187791
0.0187651
0.0187514
0.0187377
0.0190301
0.0190163
0.0190027
0.0189892
0.0189757
0.0189622
0.0189486
0.0189349
0.0189212
0.0189073
0.0188933
0.0188792
0.0188651
0.0188509
0.0188367
0.0188224
0.0188083
0.0187941
0.0187801
0.0187662
0.0187524
0.0187387
0.0190316
0.019018
0.0190045
0.0189912
0.0189778
0.0189644
0.018951
0.0189374
0.0189237
0.0189098
0.0188959
0.0188818
0.0188676
0.0188534
0.0188391
0.0188249
0.0188107
0.0187965
0.0187824
0.0187685
0.0187546
0.0187409
0.0190339
0.0190205
0.0190073
0.0189942
0.0189811
0.0189679
0.0189546
0.0189411
0.0189275
0.0189138
0.0188999
0.0188858
0.0188716
0.0188574
0.0188431
0.0188287
0.0188145
0.0188002
0.0187861
0.0187721
0.0187582
0.0187445
0.0190372
0.0190242
0.0190114
0.0189986
0.0189858
0.0189729
0.0189598
0.0189466
0.0189331
0.0189195
0.0189056
0.0188916
0.0188774
0.0188631
0.0188487
0.0188344
0.01882
0.0188057
0.0187915
0.0187774
0.0187634
0.0187497
0.0190415
0.0190291
0.0190167
0.0190044
0.018992
0.0189795
0.0189668
0.0189539
0.0189407
0.0189272
0.0189134
0.0188995
0.0188853
0.0188709
0.0188565
0.018842
0.0188276
0.0188132
0.0187989
0.0187847
0.0187707
0.0187569
0.0190471
0.0190353
0.0190236
0.019012
0.0190002
0.0189883
0.018976
0.0189635
0.0189506
0.0189374
0.0189238
0.0189099
0.0188957
0.0188814
0.0188669
0.0188523
0.0188378
0.0188233
0.0188089
0.0187947
0.0187806
0.0187668
0.0190541
0.0190432
0.0190324
0.0190216
0.0190107
0.0189995
0.018988
0.018976
0.0189636
0.0189507
0.0189374
0.0189237
0.0189096
0.0188952
0.0188807
0.0188661
0.0188515
0.0188369
0.0188225
0.0188082
0.0187941
0.0187803
0.019063
0.0190533
0.0190437
0.0190341
0.0190244
0.0190142
0.0190037
0.0189925
0.0189808
0.0189684
0.0189555
0.018942
0.0189281
0.0189139
0.0188994
0.0188848
0.0188701
0.0188555
0.0188411
0.0188268
0.0188127
0.018799
0.0190742
0.0190661
0.0190582
0.0190503
0.0190422
0.0190336
0.0190244
0.0190144
0.0190037
0.0189922
0.0189799
0.0189669
0.0189534
0.0189394
0.018925
0.0189105
0.0188959
0.0188814
0.018867
0.0188528
0.0188389
0.0188253
0.0190886
0.0190827
0.0190772
0.0190717
0.0190658
0.0190594
0.0190522
0.019044
0.0190348
0.0190246
0.0190133
0.0190012
0.0189882
0.0189747
0.0189607
0.0189464
0.0189321
0.0189177
0.0189036
0.0188896
0.018876
0.0188627
0.0191071
0.0191044
0.0191021
0.0191
0.0190975
0.0190943
0.0190901
0.0190846
0.0190777
0.0190694
0.0190598
0.0190489
0.019037
0.0190243
0.019011
0.0189972
0.0189833
0.0189694
0.0189556
0.0189421
0.018929
0.0189162
0.0191311
0.0191328
0.0191354
0.0191382
0.0191407
0.0191423
0.0191425
0.0191411
0.0191377
0.0191324
0.0191253
0.0191164
0.0191061
0.0190947
0.0190823
0.0190694
0.0190561
0.0190428
0.0190297
0.0190168
0.0190042
0.0189922
0.0191625
0.0191707
0.0191803
0.0191905
0.0192004
0.0192092
0.019216
0.0192204
0.0192221
0.0192211
0.0192174
0.0192113
0.0192031
0.0191932
0.0191821
0.01917
0.0191575
0.0191448
0.0191322
0.0191199
0.019108
0.0190966
0.0192039
0.0192215
0.0192414
0.0192622
0.0192826
0.0193011
0.0193168
0.0193288
0.0193368
0.0193409
0.0193412
0.019338
0.0193319
0.0193233
0.019313
0.0193014
0.0192891
0.0192765
0.0192639
0.0192516
0.0192397
0.0192283
0.0192585
0.0192886
0.0193213
0.0193543
0.0193859
0.0194142
0.0194384
0.0194575
0.019471
0.0194791
0.0194823
0.019481
0.0194759
0.0194677
0.0194571
0.0194448
0.0194316
0.0194179
0.0194042
0.0193907
0.0193776
0.019365
0.0193261
0.018783
0.0180585
0.017712
0.017779
0.0182841
0.0192346
0.019546
0.0195616
0.0195713
0.0195756
0.0195749
0.0195699
0.0195613
0.0195499
0.0195365
0.0195218
0.0195065
0.0194908
0.0194752
0.0194598
0.0194447
0.0169497
0.0157907
0.014971
0.014524
0.014487
0.0148792
0.0156867
0.0168749
0.0184114
0.0194849
0.0194906
0.0194919
0.019489
0.0194824
0.0194725
0.0194601
0.0194458
0.0194302
0.0194136
0.0193964
0.0193788
0.0193607
0.0142967
0.0130773
0.0121841
0.0116509
0.011524
0.0118486
0.0126123
0.0137479
0.0151618
0.016807
0.0187293
0.019076
0.0190786
0.0190785
0.0190722
0.0190616
0.0190483
0.0190337
0.0190184
0.0190006
0.0189805
0.0189583
0.0180721
0.0180703
0.0180651
0.0180568
0.0180461
0.01803
0.0180063
0.0179745
0.0160878
0.0161112
0.016127
0.0161343
0.0161312
0.0161005
0.016043
0.0159576
0.0192088
0.0192195
0.0192514
0.0168455
0.0192192
0.019216
0.0192206
0.0192411
0.0191328
0.0148645
0.0119395
0.0192219
0.0192212
0.0192305
0.0192585
0.017437
0.0135972
0.0109789
0.0192236
0.0192244
0.0192365
0.0192686
0.0166431
0.0130009
0.0105214
0.00899607
0.0192236
0.0192244
0.0192364
0.0192685
0.016646
0.0130032
0.010524
0.00899977
0.019242
0.0192341
0.019227
0.0192218
0.0192211
0.0192304
0.0192584
0.0174419
0.013601
0.0109835
0.00936926
0.0192504
0.0192416
0.0192334
0.0192257
0.0192192
0.0192159
0.0192205
0.0192409
0.0191397
0.0148684
0.0119439
0.0101257
0.0192501
0.0192412
0.0192327
0.0192242
0.0192161
0.0192097
0.0192086
0.0192193
0.0192512
0.0168486
0.0133767
0.0111826
0.01925
0.0192411
0.0192323
0.0192232
0.0192138
0.0192046
0.0191981
0.0191995
0.0192175
0.0192608
0.0151661
0.0123622
0.01925
0.0192413
0.0192326
0.0192233
0.0192131
0.0192021
0.0191916
0.0191858
0.0191922
0.0192215
0.0169353
0.0133586
0.0111625
0.0192594
0.0192503
0.019242
0.0192338
0.019225
0.019215
0.0192035
0.0191914
0.0191817
0.0191813
0.0192014
0.0180658
0.0138054
0.0111913
0.0192693
0.0192596
0.019251
0.0192434
0.0192362
0.0192287
0.0192202
0.0192101
0.019199
0.0191897
0.0191887
0.019208
0.0178074
0.0133797
0.0106639
0.0192692
0.0192599
0.0192521
0.0192455
0.0192398
0.0192345
0.0192289
0.0192226
0.0192161
0.0192123
0.0192186
0.0192477
0.0159242
0.0119836
0.00955851
0.0192692
0.0192603
0.0192534
0.0192482
0.0192446
0.0192424
0.0192414
0.0192414
0.0192438
0.0192523
0.0192756
0.0175038
0.0129081
0.00973077
0.00785402
0.00664539
0.00605819
0.00543179
0.00456457
0.019269
0.0192608
0.0192547
0.0192512
0.0192502
0.0192521
0.0192572
0.0192665
0.0192827
0.0193109
0.0174291
0.0131801
0.0095692
0.0069404
0.00556546
0.00669725
0.00536201
0.00471692
0.00427035
0.0192687
0.019261
0.019256
0.0192541
0.0192561
0.0192626
0.0192753
0.0192964
0.0193301
0.0169798
0.0133399
0.00981616
0.00677471
0.00479574
0.00582033
0.00341395
0.00346414
0.00378177
0.00382311
0.00317759
0.0192682
0.0192609
0.0192568
0.0192566
0.0192614
0.0192728
0.0192935
0.0193273
0.0172336
0.0139303
0.0106366
0.00759785
0.00491697
0.00339879
0.00298696
0.00196619
0.00225583
0.00158214
0.00126442
0.000788464
0.0192673
0.0192604
0.019257
0.0192581
0.0192654
0.0192811
0.019309
0.0184767
0.0152634
0.0120895
0.00910158
0.00637065
0.00442069
0.00399021
0.00190798
0.00125706
0.00117149
0.000160243
0.019266
0.0192592
0.0192561
0.0192581
0.0192671
0.0192858
0.0193187
0.0174007
0.0142321
0.0112226
0.008479
0.00607045
0.00432575
0.00344519
0.00194062
0.0015409
0.000925044
0.0192643
0.0192573
0.0192542
0.0192564
0.019266
0.019286
0.0193211
0.0170513
0.0139658
0.0111074
0.00854615
0.00635546
0.00446988
0.00322855
0.00270112
0.00170877
0.00146472
0.00086965
0.00127188
0.00166872
0.0192621
0.0192547
0.0192512
0.019253
0.019262
0.0192814
0.0193156
0.0173115
0.0143167
0.0115866
0.00916334
0.00709681
0.00537972
0.0041511
0.00338894
0.00289134
0.00220375
0.0020467
0.00225623
0.00183758
0.00175589
0.00178884
0.00188152
0.00212857
0.00230995
0.00291127
0.00300261
0.00305051
0.0030699
0.00307034
0.00306165
0.00305197
0.0030455
0.00304479
0.00305126
0.00306557
0.00308814
0.00311936
0.00316014
0.00321165
0.00327668
0.00336106
0.0192596
0.0192516
0.0192473
0.019248
0.0192555
0.0192727
0.0193036
0.018086
0.0151725
0.0125458
0.0102318
0.00825136
0.00661819
0.00530741
0.00458773
0.00408552
0.00469214
0.00325755
0.00359284
0.00445689
0.00540108
0.00520386
0.00520777
0.00530667
0.00624004
0.00636509
0.00646727
0.00653415
0.00651654
0.00642359
0.00628464
0.00612009
0.00594557
0.00577183
0.00560598
0.00544983
0.00530421
0.00516923
0.00504429
0.00492806
0.00481702
0.00471425
0.00460683
0.0192567
0.019248
0.0192426
0.0192418
0.0192472
0.0192612
0.0192872
0.0192906
0.016444
0.0138905
0.0116507
0.00972722
0.00812252
0.00682247
0.00587609
0.00561353
0.00514398
0.00542089
0.00608694
0.00710386
0.00841685
0.00975675
0.0107852
0.0112276
0.0108522
0.0108654
0.0109501
0.0111517
0.0113612
0.0115346
0.0116703
0.0117542
0.0117383
0.011447
0.0111274
0.0107886
0.0104368
0.0100757
0.00970596
0.00932665
0.00871687
0.00804202
0.00740517
0.0192658
0.0192537
0.019244
0.0192375
0.0192349
0.0192378
0.019248
0.0192682
0.0193018
0.0180533
0.0155526
0.013359
0.0114726
0.00988849
0.008604
0.00763051
0.00711459
0.00722161
0.00760587
0.00826324
0.00925481
0.0105773
0.0121086
0.0136131
0.0148635
0.0158948
0.0159445
0.0159687
0.0159876
0.0159986
0.0160001
0.0159771
0.0159252
0.0158434
0.015731
0.0155871
0.0154106
0.0151997
0.0149521
0.014664
0.0143304
0.0139457
0.0128423
0.0117665
0.0192635
0.0192507
0.01924
0.0192321
0.0192277
0.0192279
0.0192342
0.0192486
0.0192739
0.0193119
0.0175127
0.01535
0.0134909
0.0119328
0.0106747
0.0097293
0.00914488
0.00899111
0.00926022
0.00996154
0.0110849
0.012553
0.0142602
0.0161326
0.0180029
0.0180139
0.0180175
0.0180168
0.0180126
0.0180049
0.0179943
0.0179792
0.0179556
0.0179234
0.017882
0.0178303
0.017767
0.0176901
0.0175967
0.0174832
0.0173446
0.0171744
0.016965
0.0167068
0.0192611
0.0192476
0.019236
0.0192268
0.0192206
0.0192182
0.0192208
0.0192298
0.0192472
0.0192752
0.0193144
0.0176292
0.0158019
0.0142757
0.0130584
0.0121651
0.0116293
0.0114975
0.011816
0.012574
0.0137148
0.0151606
0.0168785
0.0189092
0.0190568
0.019056
0.0190532
0.0190458
0.0190342
0.0190202
0.0190046
0.0189863
0.0189655
0.0189422
0.0189164
0.018888
0.0188567
0.0188219
0.018783
0.018739
0.0186887
0.0186302
0.0185609
0.0184775
0.0192589
0.0192446
0.0192321
0.0192216
0.0192137
0.019209
0.0192083
0.0192125
0.0192231
0.0192416
0.0192696
0.019307
0.0183893
0.016919
0.0157624
0.0149434
0.0144952
0.0144558
0.0148459
0.015655
0.0168554
0.0184296
0.0194805
0.0194847
0.0194842
0.0194797
0.0194714
0.01946
0.0194461
0.0194304
0.0194134
0.0193955
0.019377
0.019358
0.0193386
0.0193187
0.0192985
0.0192777
0.0192564
0.0192346
0.0192122
0.0191891
0.0191652
0.0191401
0.0192567
0.0192418
0.0192285
0.0192168
0.0192074
0.0192005
0.0191969
0.0191971
0.0192022
0.0192129
0.0192305
0.0192559
0.0192887
0.0193276
0.0187446
0.0180213
0.0176751
0.0177421
0.0182487
0.0192062
0.0195463
0.0195616
0.0195707
0.0195742
0.0195727
0.0195668
0.0195574
0.0195451
0.0195309
0.0195154
0.0194993
0.019483
0.0194667
0.0194506
0.0194348
0.0194194
0.0194043
0.0193898
0.0193757
0.0193622
0.0193495
0.0193378
0.0193272
0.019318
0.0192547
0.0192393
0.0192251
0.0192124
0.0192016
0.0191929
0.0191868
0.0191837
0.0191842
0.0191889
0.0191985
0.0192134
0.0192339
0.01926
0.0192903
0.019323
0.0193562
0.0193879
0.0194163
0.0194405
0.0194594
0.0194728
0.0194806
0.0194834
0.0194817
0.0194761
0.0194674
0.0194563
0.0194436
0.01943
0.0194159
0.0194019
0.019388
0.0193746
0.0193616
0.0193493
0.0193376
0.0193265
0.0193163
0.0193068
0.0192983
0.0192909
0.0192848
0.0192802
0.0192529
0.0192369
0.019222
0.0192084
0.0191964
0.0191861
0.0191779
0.0191721
0.0191691
0.0191691
0.0191726
0.0191797
0.0191907
0.0192053
0.019223
0.019243
0.019264
0.0192846
0.0193032
0.019319
0.019331
0.019339
0.019343
0.0193431
0.0193397
0.0193333
0.0193246
0.019314
0.0193022
0.0192896
0.0192768
0.0192641
0.0192516
0.0192395
0.019228
0.0192171
0.0192069
0.0191974
0.0191886
0.0191807
0.0191737
0.0191676
0.0191626
0.0191588
0.0192512
0.0192347
0.0192192
0.0192049
0.0191918
0.0191802
0.0191703
0.0191623
0.0191564
0.0191529
0.0191518
0.0191533
0.0191573
0.0191637
0.019172
0.0191818
0.0191922
0.0192022
0.0192111
0.019218