/*--------------------------------*- C++ -*----------------------------------*\
  =========                 |
  \\      /  F ield         | OpenFOAM: The Open Source CFD Toolbox
   \\    /   O peration     | Website:  https://openfoam.org
    \\  /    A nd           | Version:  13
     \\/     M anipulation  |
\*---------------------------------------------------------------------------*/
FoamFile
{
    format      ascii;
    class       volScalarField;
    location    "400";
    object      p;
}
// * * * * * * * * * * * * * * * * * * * * * * * * * * * * * * * * * * * * * //

dimensions      [0 2 -2 0 0 0 0];

internalField   nonuniform List<scalar> 
171634
(
8.82893
8.31849
7.79981
7.27585
6.7496
6.22385
5.70112
5.18357
4.67297
4.17057
3.67707
3.19262
2.71692
2.24919
1.78828
1.33271
0.880771
0.430686
-0.0192991
-0.470808
-0.925266
-1.38389
8.829
8.31483
7.79239
7.26479
6.73513
6.20633
5.68102
5.16147
4.64948
4.14632
3.6527
3.16872
2.69401
2.22771
1.76856
1.31496
0.865129
0.417174
-0.0307549
-0.480373
-0.933193
-1.39049
8.83158
8.30986
7.77981
7.24479
6.70815
6.17308
5.64245
5.11868
4.60372
4.0989
3.6049
3.12176
2.64897
2.18549
1.72984
1.28022
0.834614
0.390931
-0.0528809
-0.498719
-0.948258
-1.40291
8.8354
8.30196
7.76009
7.21353
6.66606
6.12125
5.58235
5.05209
4.53259
4.02526
3.53078
3.04908
2.57942
2.12047
1.67042
1.22712
0.788216
0.351266
-0.0860836
-0.526008
-0.970425
-1.42094
8.84096
8.29125
7.7329
7.17025
6.60766
6.04929
5.49891
4.95967
4.43397
3.92335
3.42843
2.94898
2.48395
2.03159
1.58962
1.15539
0.72602
0.298614
-0.129619
-0.561231
-0.99846
-1.44317
8.84803
8.27686
7.69672
7.11272
6.53007
5.95374
5.38821
4.83723
4.30355
3.78888
3.2938
2.81779
2.35936
1.91621
1.48539
1.06356
0.647168
0.232663
-0.183311
-0.603792
-1.03142
-1.46836
8.85682
8.2582
7.65003
7.03852
6.42998
5.83053
5.24561
4.67973
4.13617
3.61682
3.12215
2.65126
2.20207
1.77149
1.3557
0.950413
0.551182
0.153624
-0.246345
-0.652366
-1.06755
-1.49444
8.86761
8.23443
7.59081
6.94436
6.30293
5.67413
5.06475
4.48033
3.92479
3.40025
2.90701
2.44363
2.0072
1.59355
1.19771
0.814161
0.437269
0.0615896
-0.317866
-0.705462
-1.10486
-1.51898
8.88103
8.20481
7.5167
6.82622
6.14328
5.47752
4.83753
4.23024
3.66041
3.13042
2.64026
2.18772
1.76874
1.37775
1.00818
0.652914
0.304792
-0.042978
-0.39649
-0.760951
-1.14062
-1.53882
8.89827
8.16867
7.42495
6.67911
5.94387
5.23165
4.55349
3.91815
3.33147
2.79609
2.31151
1.87444
1.47922
1.11837
0.783218
0.464535
0.153186
-0.159305
-0.480356
-0.816121
-1.17148
-1.55011
8.92135
8.12571
7.31247
6.49697
5.69573
4.92499
4.19915
3.52945
2.9231
2.38293
1.90768
1.49247
1.12947
0.808619
0.518418
0.246849
-0.0177644
-0.285996
-0.566815
-0.867397
-1.19319
-1.54811
8.95362
8.07627
7.17594
6.27244
5.38752
4.54272
3.75714
3.04535
2.41623
1.8727
1.41225
1.02774
0.708346
0.440478
0.208875
-0.00219511
-0.207697
-0.420793
-0.652228
-0.910182
-1.20052
-1.52718
9.00046
8.0219
7.01206
5.99674
5.00494
4.06574
3.20481
2.44131
1.78615
1.24201
0.804356
0.46281
0.20239
0.00473867
-0.150516
-0.284068
-0.415148
-0.560078
-0.731532
-0.938543
-1.18705
-1.48061
9.07033
7.96625
6.818
5.65951
4.53
3.4694
2.51277
1.68549
1.00093
0.460821
0.0574744
-0.224119
-0.404668
-0.509097
-0.564785
-0.599137
-0.636931
-0.698274
-0.797763
-0.94487
-1.14498
-1.40063
9.17632
7.91631
6.59199
5.24826
3.93906
2.72039
1.64129
0.73564
0.0190771
-0.508984
-0.861312
-1.05941
-1.13167
-1.1121
-1.03784
-0.945513
-0.867102
-0.827058
-0.841546
-0.919595
-1.06503
-1.27835
9.33837
7.8851
6.33646
4.75134
3.20439
1.77576
0.536113
-0.467372
-1.21703
-1.7191
-1.995
-2.0758
-2.00027
-1.8148
-1.57039
-1.31657
-1.09461
-0.933452
-0.849768
-0.850572
-0.936495
-1.10456
9.59051
7.90049
6.06526
4.16228
2.29699
0.586692
-0.865684
-1.99484
-2.78029
-3.23657
-3.39906
-3.3138
-3.03485
-2.62624
-2.15876
-1.69988
-1.30242
-0.999056
-0.804625
-0.721555
-0.744995
-0.866581
9.98515
8.0048
5.79995
3.47193
1.17183
-0.924023
-2.66085
-3.94685
-4.76352
-5.14419
-5.14179
-4.8199
-4.25672
-3.54429
-2.78376
-2.06751
-1.46094
-0.99732
-0.685007
-0.517601
-0.481431
-0.560218
10.5917
8.25743
5.57258
2.66585
-0.243921
-2.88121
-5.00197
-6.47782
-7.3067
-7.55859
-7.31454
-6.65762
-5.69471
-4.56346
-3.41444
-2.37565
-1.52341
-0.883872
-0.451319
-0.204833
-0.117675
-0.162417
-3.9774
-2.56246
-1.44728
-0.635641
-0.0977282
0.2083
0.326902
0.29983
-4.28047
-2.44967
-1.08146
-0.128382
0.476016
0.80147
0.91496
0.875386
32.8844
32.9342
32.6195
31.8414
32.1833
32.691
32.9897
33.0006
32.63
31.776
30.349
32.2905
32.7902
33.0754
33.0648
32.6618
31.7628
30.2754
32.3425
32.8388
33.1179
33.0973
32.6788
31.7584
30.2404
28.055
32.3388
32.8347
33.1133
33.092
32.6726
31.7511
30.2317
28.0446
30.0897
30.8887
31.6321
32.2793
32.7778
33.0613
33.0487
32.6431
31.7409
30.2495
28.1016
29.1534
29.9737
30.7707
31.5144
32.1648
32.6704
32.9665
32.9741
32.5994
31.7404
30.3074
28.2374
28.9897
29.8063
30.6025
31.3495
32.009
32.531
32.8528
32.8984
32.5786
31.7941
30.4541
28.4979
28.778
29.5917
30.3903
31.1467
31.8247
32.3772
32.7445
32.8536
32.6196
31.9464
30.7375
28.9265
28.5214
29.3345
30.1403
30.9143
31.624
32.2258
32.6641
32.8695
32.7595
32.239
31.2035
29.5672
27.2797
27.4247
28.2219
29.0369
29.8551
30.6564
31.4125
32.0855
32.6247
32.9649
33.0247
32.7055
31.8901
30.4619
28.3302
26.3301
27.0878
27.8792
28.6976
29.533
30.3702
31.1872
31.9532
32.6248
33.1423
33.4253
33.3668
32.8306
31.6569
29.6896
25.9634
26.7065
27.4903
28.312
29.1664
30.0447
30.9332
31.8103
32.6431
33.3806
33.9457
34.2237
34.0504
33.2071
31.4342
25.5538
26.2783
27.0505
27.8716
28.7419
29.6602
30.6225
31.6194
32.6324
33.6251
34.5311
35.237
35.5495
35.1678
33.686
30.6561
25.8811
19.2434
11.3132
25.1
25.7997
26.5531
27.3652
28.2418
29.1895
30.215
31.3233
32.5148
33.7755
35.0652
36.2906
37.2487
37.5599
36.6147
33.5918
28.1476
21.336
11.829
24.6012
25.268
25.9919
26.7813
27.6467
28.6013
29.6618
30.8478
32.1801
33.6748
35.3346
37.1174
38.8726
40.2315
40.4035
37.9491
32.4237
22.5422
9.271
-5.49704
24.0578
24.6815
25.3626
26.1111
26.9401
27.8672
28.9152
30.1144
31.5011
33.117
35.009
37.2081
39.6861
42.2286
43.2029
42.6398
37.7292
25.8521
10.1915
-14.2408
-35.5259
23.4722
24.042
24.6652
25.3516
26.1144
26.9709
27.9445
29.0658
30.3715
31.9081
33.7285
35.879
38.3607
41.0562
43.3451
44.4601
41.1497
32.6753
9.89993
-26.533
-75.5373
-71.02
22.8493
23.3549
23.9054
24.5089
25.1753
25.9171
26.7513
27.6965
28.7717
29.9924
31.3562
32.8165
34.2125
35.141
36.996
34.4744
23.921
6.93459
-44.2129
-154.372
-85.0322
-44.5785
22.197
22.6295
23.0953
23.5986
24.144
24.7359
25.3784
26.0719
26.8043
27.537
28.1809
28.543
28.2165
26.354
21.6082
18.0928
-0.0272643
-30.8936
-61.7101
-99.4599
-107.017
-63.6001
-42.7192
-22.4752
-9.30291
21.5251
21.8788
22.252
22.6442
23.054
23.4763
23.901
24.3096
24.6604
24.8687
24.7826
24.1304
22.438
18.9139
12.4257
1.82955
-9.00593
-28.9312
-45.2738
-54.1183
-51.7298
-43.1369
-32.8435
-22.0465
-11.0607
-5.52051
-1.83375
0.351697
1.67313
2.38037
2.60243
2.49083
2.18806
1.79958
1.39907
1.04148
0.770155
0.618417
0.606796
0.736515
0.976474
1.23963
20.8449
21.1176
21.3952
21.6733
21.9441
22.1949
22.4036
22.5377
22.5384
22.3013
21.6598
20.3567
18.0106
14.1061
8.06667
-0.39999
-10.6143
-20.5262
-29.5433
-33.9
-33.9728
-30.687
-25.5276
-17.2305
-11.8699
-7.16614
-3.52365
-1.02219
0.577615
1.51977
1.97769
2.09451
1.99204
1.76337
1.47618
1.18197
0.920301
0.717857
0.585117
0.509105
0.443538
0.291278
-0.118679
20.1679
20.3609
20.5451
20.7127
20.8516
20.9433
20.9593
20.8582
20.5785
20.0208
19.037
17.4276
14.9403
11.2991
6.29657
-0.0254249
-6.98871
-13.3054
-18.1221
-20.6797
-21.1743
-20.0336
-17.6966
-14.5711
-10.9162
-7.33459
-4.32583
-2.07075
-0.513776
0.485954
1.05948
1.31493
1.34532
1.22752
1.02119
0.771862
0.512716
0.263556
0.0280869
-0.2111
-0.500352
-0.927333
-1.62775
19.3744
19.505
19.6223
19.7193
19.7856
19.8064
19.7606
19.6177
19.3338
18.8518
18.0906
16.9341
15.2419
12.8618
9.66251
5.59883
0.806592
-4.28159
-8.93549
-12.5227
-14.579
-15.2308
-14.772
-13.4578
-11.4948
-9.09368
-6.60024
-4.34692
-2.52138
-1.1672
-0.238509
0.337441
0.633665
0.71769
0.648893
0.475559
0.234532
-0.0484019
-0.359476
-0.699164
-1.08559
-1.55867
-2.18498
-3.05911
18.796
18.8654
18.9136
18.9321
18.9094
18.8297
18.6715
18.4052
17.991
17.3781
16.504
15.2882
13.6378
11.4667
8.72261
5.4279
1.72902
-2.06551
-5.51292
-8.19869
-9.91142
-10.6947
-10.6934
-10.0492
-8.88892
-7.36397
-5.67998
-4.05437
-2.65133
-1.55038
-0.758352
-0.243886
0.0370448
0.129865
0.0766793
-0.0866947
-0.332314
-0.641065
-1.00383
-1.42314
-1.91518
-2.51168
-3.2594
-4.21959
18.2426
18.2566
18.2432
18.1936
18.0957
17.9341
17.6885
17.3324
16.832
16.1455
15.225
14.0184
12.4707
10.5378
8.20785
5.52705
2.62278
-0.288023
-2.93116
-5.06191
-6.54859
-7.38429
-7.63491
-7.38444
-6.72339
-5.76373
-4.64256
-3.50633
-2.48041
-1.64256
-1.02059
-0.608474
-0.383996
-0.319563
-0.387461
-0.562855
-0.825856
-1.16301
-1.56851
-2.04532
-2.60618
-3.27403
-4.08103
-5.06532
17.7188
17.6839
17.6173
17.5101
17.3507
17.125
16.8145
16.3969
15.8449
15.1263
14.2057
13.0489
11.627
9.92275
7.9445
5.74135
3.41389
1.11219
-0.987994
-2.73148
-4.02472
-4.84675
-5.22895
-5.22545
-4.90351
-4.34417
-3.63974
-2.88987
-2.18569
-1.59269
-1.14471
-0.850022
-0.701583
-0.685208
-0.784379
-0.983186
-1.26842
-1.63114
-2.06774
-2.58081
-3.17942
-3.87899
-4.69977
-5.66375
17.2281
17.1509
17.0392
16.8846
16.6765
16.4022
16.0461
15.5897
15.0116
14.2884
13.3956
12.311
11.02
9.52107
7.83163
5.9966
4.093
2.22573
0.511807
-0.945559
-2.08012
-2.87011
-3.32927
-3.4936
-3.41078
-3.13646
-2.73516
-2.2772
-1.82935
-1.44428
-1.15503
-0.97623
-0.909873
-0.950791
-1.09045
-1.31954
-1.62989
-2.01588
-2.47533
-3.0101
-3.62603
-4.33262
-5.14183
-6.06496
16.7725
16.6593
16.5103
16.3176
16.072
15.7625
15.376
14.8979
14.3121
13.6017
12.7507
11.7462
10.5822
9.26314
7.80939
6.25995
4.67343
3.12419
1.69224
0.448426
-0.559586
-1.3135
-1.81925
-2.09851
-2.18318
-2.11289
-1.93445
-1.69879
-1.45511
-1.24454
-1.09607
-1.0262
-1.04173
-1.14304
-1.327
-1.58902
-1.9246
-2.33052
-2.80554
-3.35085
-3.96994
-4.66811
-5.45136
-6.32428
16.3529
16.2097
16.0303
15.8078
15.5341
15.2
14.795
14.3078
13.7263
13.0391
12.2358
11.3101
10.261
9.09635
7.83514
6.50933
5.16367
3.85192
2.63003
1.54711
0.637304
-0.0834686
-0.615643
-0.972146
-1.1749
-1.2528
-1.24011
-1.17404
-1.0911
-1.02314
-0.994519
-1.02132
-1.11244
-1.27151
-1.49884
-1.79303
-2.15212
-2.57453
-3.05964
-3.60804
-4.22149
-4.90237
-5.65281
-6.4733
15.9695
15.8015
15.5978
15.3524
15.0583
14.7081
14.2935
13.8058
13.2364
12.5774
11.823
10.9705
10.022
8.98642
7.88064
6.73044
5.56965
4.43737
3.37351
2.41317
1.58184
0.89304
0.348583
-0.0593705
-0.346042
-0.532397
-0.643567
-0.706986
-0.750015
-0.797356
-0.869041
-0.979594
-1.13836
-1.35058
-1.61858
-1.94294
-2.32336
-2.75932
-3.25057
-3.79726
-4.39989
-5.05896
-5.77422
-6.54385
15.6216
15.4335
15.2107
14.9481
14.6399
14.28
13.862
13.3795
12.8264
12.1977
11.4902
10.7037
9.84181
8.91326
7.93264
6.9205
5.90259
4.90783
3.9653
3.10066
2.33312
1.67369
1.12503
0.682565
0.335769
0.0695099
-0.134695
-0.297266
-0.438881
-0.57872
-0.733048
-0.914464
-1.1319
-1.39115
-1.69559
-2.04694
-2.44589
-2.89261
-3.38703
-3.92899
-4.51822
-5.15397
-5.83465
-6.55718
15.3082
15.104
14.8665
14.5912
14.2736
13.9088
13.4918
13.018
12.4832
11.8844
11.2203
10.492
9.70378
8.86367
7.98398
7.0811
6.17479
5.28675
4.43852
3.64918
2.93334
2.2999
1.75178
1.28643
0.896634
0.571461
0.297256
0.0587235
-0.159861
-0.373425
-0.595082
-0.835511
-1.1028
-1.40268
-1.73891
-2.11378
-2.52853
-2.98367
-3.47925
-4.01491
-4.58984
-5.20262
-5.85089
-6.531
15.028
14.811
14.5622
14.278
13.9546
13.5882
13.175
12.7118
12.1958
11.6253
11.0003
10.3225
9.59637
8.82909
8.03091
7.21492
6.39644
5.59195
4.81768
4.08803
3.41425
2.80355
2.25877
1.77861
1.35814
0.989486
0.662526
0.365759
0.0871674
-0.184892
-0.460949
-0.749914
-1.05888
-1.39315
-1.75649
-2.15137
-2.57926
-3.04084
-3.53619
-4.06479
-4.62558
-5.21673
-5.83556
-6.47822
14.7794
14.5524
14.2952
14.0049
13.6783
13.3126
12.9049
12.453
11.9552
11.4107
10.8201
10.1856
9.51153
8.80407
8.07178
7.32516
6.57621
5.83761
5.12177
4.43974
3.80029
3.20926
2.66927
2.17982
1.73757
1.33683
0.970119
0.628738
0.303475
-0.0147746
-0.334445
-0.662898
-1.00621
-1.36912
-1.75515
-2.16673
-2.60535
-3.07174
-3.56595
-4.0874
-4.63483
-5.20629
-5.79897
-6.4091
14.5609
14.3262
14.0628
13.7684
13.4406
13.077
12.6757
12.235
11.7541
11.2328
10.6721
10.0745
9.44367
8.7852
8.10617
7.41505
6.72134
6.03495
5.3655
4.72162
4.1102
3.53603
3.00146
2.50647
2.04886
1.62452
1.2279
0.852406
0.490955
0.136411
-0.217975
-0.578242
-0.949518
-1.33594
-1.74066
-2.16593
-2.61316
-3.08304
-3.57558
-4.09012
-4.62537
-5.17932
-5.74919
-6.3314
14.371
14.1303
13.8626
13.5657
13.2378
12.8772
12.4824
12.0524
11.5867
11.0858
10.5507
9.98396
9.38893
8.77042
8.13434
7.48761
6.83785
6.1929
5.56037
4.94706
4.3585
3.79863
3.26956
2.77157
2.30323
1.86159
1.44253
1.04104
0.651654
0.268756
-0.113052
-0.498704
-0.892487
-1.29794
-1.71782
-2.15414
-2.60817
-3.0805
-3.57108
-4.07924
-4.60364
-5.14232
-5.69263
-6.25117
14.2083
13.9631
13.6922
13.394
13.0669
12.7096
12.3211
11.9007
11.4485
10.965
10.4516
9.91038
9.34465
8.75849
8.15689
7.54555
6.93067
6.31857
5.71535
5.12648
4.55647
4.0086
3.48476
2.98541
2.50967
2.05543
1.61962
1.19843
0.787606
0.382725
-0.0205455
-0.426234
-0.837905
-1.25855
-1.69056
-2.13565
-2.59494
-3.06892
-3.55748
-4.0599
-4.57488
-5.10052
-5.63429
-6.17307
14.0713
13.8229
13.5499
13.251
12.9251
12.5711
12.1883
11.7765
11.3358
10.8669
10.3713
9.85106
9.309
8.74875
8.17455
7.59119
7.00379
6.41754
5.83743
5.26795
4.71284
4.17487
3.65576
3.15607
2.6753
2.21195
1.76374
1.32774
0.900625
0.478878
0.0590074
-0.362287
-0.787966
-1.22056
-1.66208
-2.11402
-2.57732
-3.05235
-3.53895
-4.03638
-4.54338
-5.0581
-5.57818
-6.10071
13.9591
13.7082
13.4338
13.1348
12.8102
12.4592
12.0815
11.6769
11.2457
10.7888
10.3076
9.80409
9.28078
8.7409
8.18812
7.62654
7.06046
6.49426
5.9321
5.37776
4.8344
4.30444
3.78941
3.28995
2.80583
2.336
1.87872
1.43174
0.992424
0.557944
0.125453
-0.307772
-0.744209
-1.18599
-1.63484
-2.09201
-2.55829
-3.03396
-3.51878
-4.01203
-4.51245
-5.01829
-5.52731
-6.03679
13.8705
13.618
13.3427
13.0438
12.7204
12.3721
11.9985
11.5997
11.1761
10.7287
10.2587
9.76802
9.25909
8.73473
8.19821
7.65308
7.1031
6.55201
6.0034
5.46054
4.92617
4.40242
3.89073
3.39175
2.90545
2.43109
1.96734
1.51242
1.06419
0.620351
0.178534
-0.263549
-0.707998
-1.15663
-1.61094
-2.07198
-2.54041
-3.01642
-3.49974
-3.98961
-4.48483
-4.98371
-5.48411
-5.98349
13.8049
13.5512
13.2754
12.9768
12.6545
12.3083
11.9379
11.5434
11.1255
10.685
10.2233
9.74206
9.24357
8.73045
8.20563
7.67234
7.1339
6.59365
6.05477
5.52017
4.9923
4.47312
3.96395
3.46549
2.97782
2.50041
2.03222
1.57178
1.11734
0.666927
0.218535
-0.229814
-0.679946
-1.13345
-1.59162
-2.05539
-2.52531
-3.00149
-3.48363
-3.97098
-4.46235
-4.95609
-5.45018
-5.94218
13.7616
13.5072
13.2312
12.9327
12.6112
12.2664
11.8981
11.5067
11.0925
10.6566
10.2002
9.72513
9.23342
8.72756
8.2103
7.68463
7.15361
6.62033
6.08771
5.55843
5.03479
4.51858
4.0111
3.51306
3.02459
2.54532
2.07436
1.61048
1.15212
0.697555
0.244993
-0.207339
-0.661087
-1.11769
-1.57832
-2.04382
-2.51465
-2.9909
-3.47224
-3.95791
-4.44672
-4.93709
-5.42704
-5.91421
13.7404
13.4858
13.2096
12.9113
12.5903
12.2463
11.8793
11.4893
11.0771
10.6435
10.1899
9.71793
9.22962
8.72737
8.21386
7.69193
7.16456
6.63468
6.1051
5.57839
5.05676
4.54196
4.03526
3.53736
3.04845
2.56821
2.09585
1.63023
1.16991
0.71328
0.258643
-0.195667
-0.65121
-1.10935
-1.5712
-2.03754
-2.50883
-2.98511
-3.46604
-3.95087
-4.43841
-4.92711
-5.41501
-5.89981
8.83475
8.3252
7.80737
7.28425
6.75877
6.23374
5.71164
5.19465
4.68451
4.18247
3.6892
3.20489
2.72922
2.26144
1.80037
1.34456
0.892311
0.441863
-0.00853272
-0.460478
-0.915396
-1.37446
8.83494
8.32168
7.80013
7.27338
6.74452
6.21645
5.69179
5.1728
4.66127
4.15847
3.66508
3.18123
2.70655
2.24017
1.78084
1.32698
0.876818
0.428473
-0.0198919
-0.469974
-0.92327
-1.38104
8.83774
8.31696
7.78785
7.25372
6.71793
6.18363
5.65368
5.1305
4.61602
4.11155
3.61778
3.13476
2.66197
2.19838
1.74252
1.2926
0.846618
0.402495
-0.041802
-0.488152
-0.938219
-1.39339
8.84188
8.30946
7.76859
7.223
6.67643
6.13246
5.5943
5.06466
4.54566
4.0387
3.54445
3.06284
2.59314
2.13403
1.68371
1.24005
0.800689
0.363225
-0.0746862
-0.5152
-0.960216
-1.41133
8.84785
8.29926
7.74202
7.18044
6.61885
6.0614
5.51183
4.97327
4.44811
3.93786
3.44317
2.96378
2.49865
2.04606
1.60374
1.16905
0.739127
0.311104
-0.117796
-0.550101
-0.988033
-1.43343
8.85546
8.28554
7.70664
7.12384
6.54232
5.96702
5.40241
4.85218
4.31908
3.80481
3.30993
2.83393
2.37534
1.93186
1.50058
1.07816
0.661087
0.245829
-0.170949
-0.59226
-1.02072
-1.45848
8.86488
8.26767
7.66092
7.05078
6.44355
5.84528
5.2614
4.69638
4.15346
3.63453
3.14004
2.6691
2.21965
1.78862
1.37221
0.96618
0.566098
0.167614
-0.233332
-0.640354
-1.05654
-1.4844
8.87639
8.24485
7.60286
6.958
6.31809
5.69068
5.08251
4.49907
3.94426
3.42016
2.92707
2.46357
2.02674
1.61248
1.21583
0.831332
0.453378
0.0765569
-0.304091
-0.692901
-1.0935
-1.5088
8.89062
8.21628
7.53008
6.84146
6.16031
5.4962
4.85766
4.25153
3.68254
3.15303
2.66297
2.21019
1.79064
1.39882
1.02821
0.67174
0.322295
-0.026879
-0.381844
-0.747774
-1.1289
-1.52852
8.9087
8.18129
7.43979
6.69616
5.96306
5.25283
4.57641
3.94249
3.35681
2.82196
2.33743
1.89995
1.50393
1.14197
0.805471
0.48527
0.172285
-0.141921
-0.464733
-0.802273
-1.15938
-1.53973
8.93261
8.13948
7.32883
6.51596
5.7173
4.949
4.22535
3.55743
2.9523
2.41274
1.93744
1.5216
1.15748
0.835135
0.543202
0.269738
0.00312289
-0.267181
-0.550115
-0.852823
-1.18072
-1.5377
8.96559
8.09109
7.19375
6.29335
5.41156
4.56984
3.78707
3.0776
2.45007
1.90724
1.4466
1.0611
0.740114
0.470259
0.236444
0.0230424
-0.184863
-0.40042
-0.634358
-0.894835
-1.18767
-1.51679
9.01285
8.03743
7.03096
6.01926
5.0313
4.09606
3.23892
2.47858
1.82558
1.28229
0.844168
0.501054
0.238334
0.0380062
-0.120046
-0.2564
-0.390283
-0.538055
-0.71241
-0.922367
-1.17382
-1.4703
9.08258
7.98177
6.83715
5.68277
4.55798
3.50263
2.55132
1.72864
1.04714
0.508086
0.103765
-0.180385
-0.364357
-0.472434
-0.531606
-0.569195
-0.610099
-0.674583
-0.777333
-0.92781
-1.13135
-1.39043
9.18749
7.9305
6.60967
5.27036
3.96699
2.75561
1.68445
0.78582
0.0738041
-0.45307
-0.807437
-1.00985
-1.08737
-1.0728
-1.00273
-0.913838
-0.838551
-0.801724
-0.81971
-0.901515
-1.05087
-1.26818
9.34691
7.89553
6.34924
4.76808
3.22809
1.81
0.583254
-0.408418
-1.15085
-1.65182
-1.93224
-2.02084
-1.95376
-1.77525
-1.53552
-1.28464
-1.06506
-0.906678
-0.826464
-0.831305
-0.921613
-1.09427
9.59419
7.90319
6.06707
4.1658
2.30828
0.613803
-0.816994
-1.92538
-2.69817
-3.15369
-3.32602
-3.25572
-2.99097
-2.59195
-2.12866
-1.67049
-1.27309
-0.971059
-0.779568
-0.700583
-0.728804
-0.855603
9.98104
7.99363
5.78035
3.44773
1.15496
-0.916012
-2.61429
-3.86201
-4.6566
-5.03858
-5.05725
-4.76494
-4.22672
-3.5273
-2.76781
-2.04641
-1.43502
-0.969959
-0.659392
-0.495746
-0.464532
-0.54909
10.5763
8.22294
5.51294
2.58534
-0.321291
-2.91553
-4.96279
-6.3668
-7.15856
-7.41954
-7.2205
-6.62065
-5.70119
-4.58538
-3.42655
-2.36841
-1.50135
-0.855709
-0.423313
-0.180088
-0.0979619
-0.148994
-4.04441
-2.58175
-1.43483
-0.610073
-0.0702414
0.23288
0.345746
0.311205
-4.4302
-2.49156
-1.06557
-0.0924298
0.515597
0.837605
0.94316
0.892901
33.1487
33.2518
32.9831
32.2334
32.3662
32.9277
33.286
33.3567
33.0393
32.2167
30.7713
32.4876
33.0457
33.3959
33.4517
33.1089
32.2434
30.7309
32.5471
33.1042
33.4511
33.5005
33.1456
32.2592
30.7122
28.4028
32.5434
33.1001
33.4465
33.4951
33.1393
32.2516
30.7031
28.3917
30.1658
30.9964
31.7799
32.4764
33.0333
33.3818
33.4354
33.0899
32.2209
30.704
28.442
29.201
30.0441
30.8706
31.6515
32.3476
32.907
33.2626
33.33
33.0084
32.1804
30.7284
28.5637
29.0316
29.8688
30.6916
31.4721
32.1724
32.7423
33.1171
33.2159
32.9417
32.1854
30.8362
28.8125
28.813
29.6449
30.4668
31.2525
31.9662
32.5603
32.9736
33.1295
32.9363
32.29
31.0841
29.2365
28.549
29.3776
30.2033
31.0025
31.7428
32.3807
32.8593
33.1069
33.0365
32.5464
31.5271
29.885
27.563
27.4348
28.2419
29.0699
29.9051
30.7277
31.5103
32.215
32.7907
33.1712
33.2725
32.992
32.2091
30.8037
28.6793
26.3287
27.0924
27.8919
28.7213
29.5709
30.4265
31.267
32.0622
32.7693
33.3289
33.6597
33.6529
33.1696
32.0465
30.1189
25.9582
26.706
27.4965
28.3273
29.1939
30.0887
30.9991
31.9052
32.7759
33.5621
34.1882
34.5396
34.4488
33.6862
31.9716
25.5452
26.2734
27.0509
27.8797
28.761
29.6948
30.6791
31.7073
32.7646
33.8195
34.8105
35.6285
36.0733
35.819
34.3984
31.2722
26.5276
20.1422
12.2407
25.0885
25.7911
26.5489
27.3676
28.2543
29.2174
30.2663
31.4106
32.6571
34.0017
35.4179
36.8225
38.01
38.564
37.7189
34.1278
29.1566
22.0296
12.922
24.5875
25.2563
25.9839
26.7793
27.6543
28.6247
29.7108
30.9386
32.3398
33.9481
35.7917
37.8598
40.0341
41.9475
40.7729
39.1756
32.3505
22.0104
9.82254
-3.67848
24.0423
24.6676
25.3517
26.1055
26.9439
27.887
28.9624
30.2087
31.6768
33.4347
35.5703
38.1824
41.3407
45.0415
45.7731
45.5942
38.3029
25.1423
6.3755
-8.27583
23.4555
24.0264
24.6521
25.3433
26.1148
26.9867
27.9879
29.158
30.5504
32.2414
34.3349
36.9634
40.2134
43.0575
47.609
49.3714
46.3851
54.093
22.8319
23.3382
23.8907
24.4982
25.1723
25.9281
26.7874
27.7775
28.9318
30.2901
31.8913
33.7515
35.7357
38.2612
40.9335
39.1775
29.1483
22.1793
22.6122
23.0795
23.586
24.1378
24.7412
25.4042
26.1337
26.9267
27.7585
28.5579
29.147
29.0735
27.3955
27.1295
16.9859
0.216684
-74.8239
-25.1524
-7.95672
21.5075
21.8614
22.2355
22.6302
23.0448
23.4759
23.9156
24.3494
24.7398
25.0061
24.9959
24.42
22.7309
18.9245
11.697
4.66673
-15.273
-37.2188
-53.0412
-55.5288
-53.2308
-45.5363
-37.2551
-24.9955
-14.5619
-6.35881
-1.68755
0.82272
2.09909
2.72274
2.8822
2.717
2.36621
1.93487
1.49668
1.10858
0.816812
0.657956
0.656696
0.820495
1.12946
1.50415
20.8277
21.1004
21.3786
21.6584
21.9327
22.1896
22.4082
22.5583
22.5821
22.3735
21.7596
20.4618
18.0483
13.8937
7.30675
-2.00854
-10.7632
-23.123
-30.2995
-32.9222
-32.3555
-29.6579
-25.9448
-20.7205
-13.0645
-8.08055
-3.88877
-1.00268
0.742503
1.71046
2.14803
2.22566
2.07994
1.81215
1.49301
1.17475
0.89713
0.688228
0.561222
0.508608
0.487248
0.396257
0.0505508
20.1515
20.3443
20.5288
20.6976
20.8388
20.9346
20.957
20.8654
20.5982
20.0531
19.0759
17.4527
14.9047
11.1129
5.82124
-0.83023
-7.94705
-14.1658
-18.2437
-20.1672
-20.4578
-19.5693
-17.7617
-15.0311
-11.6311
-7.92989
-4.62116
-2.13532
-0.473766
0.554817
1.12616
1.36844
1.38205
1.24674
1.02347
0.758623
0.486119
0.225932
-0.0178153
-0.26134
-0.550385
-0.973462
-1.67312
19.3594
19.4895
19.6067
19.7038
19.7708
19.7933
19.7502
19.6112
19.3329
18.8575
18.1019
16.9454
15.2392
12.8188
9.53657
5.33565
0.379117
-4.78055
-9.33742
-12.5468
-14.2763
-14.8169
-14.4649
-13.3907
-11.6622
-9.38952
-6.85599
-4.48273
-2.55293
-1.14219
-0.192595
0.387186
0.679094
0.7543
0.673972
0.488117
0.234139
-0.0619888
-0.386259
-0.73906
-1.13862
-1.62573
-2.26756
-3.16163
18.7821
18.8511
18.899
18.9176
18.8955
18.817
18.6607
18.3971
17.9863
17.377
16.5058
15.289
13.6293
11.4349
8.64823
5.29166
1.52859
-2.28338
-5.64993
-8.17341
-9.74157
-10.4678
-10.5051
-9.96273
-8.9148
-7.4611
-5.78164
-4.11614
-2.66658
-1.53474
-0.729429
-0.212344
0.0657629
0.152774
0.092043
-0.0800905
-0.335312
-0.654264
-1.02774
-1.45827
-1.96229
-2.57216
-3.336
-4.31643
18.2298
18.2435
18.23
18.1804
18.083
17.9224
17.6782
17.3241
16.8261
16.1421
15.2236
14.0168
12.4646
10.5202
8.17074
5.46452
2.53927
-0.368399
-2.96843
-5.0257
-6.4408
-7.23981
-7.49901
-7.29215
-6.68656
-5.76907
-4.66271
-3.51687
-2.47225
-1.61998
-0.991654
-0.579087
-0.357529
-0.298035
-0.372266
-0.554972
-0.825925
-1.17147
-1.58578
-2.07195
-2.64289
-3.32187
-4.14147
-5.14058
17.7071
17.6721
17.6054
17.4983
17.3394
17.1145
16.8053
16.3894
15.8394
15.123
14.2042
13.0484
11.6253
9.9169
7.93131
5.71952
3.38736
1.09303
-0.982192
-2.68705
-3.94196
-4.7419
-5.12529
-5.14229
-4.84913
-4.31419
-3.62242
-2.8734
-2.16413
-1.56639
-1.11694
-0.823875
-0.679089
-0.667604
-0.77247
-0.977502
-1.26933
-1.6389
-2.08267
-2.60324
-3.20985
-3.91799
-4.74805
-5.72213
17.2175
17.1403
17.0286
16.8742
16.6667
16.3931
16.0382
15.5833
15.0072
14.2861
13.3954
12.3125
11.0225
9.52339
7.83278
5.99672
4.09476
2.23528
0.537267
-0.898399
-2.01208
-2.78932
-3.24762
-3.42157
-3.35342
-3.09305
-2.70115
-2.24728
-1.80023
-1.41538
-1.12741
-0.95139
-0.888957
-0.934496
-1.0792
-1.31363
-1.62953
-2.02122
-2.48652
-3.0273
-3.64952
-4.36277
-5.17878
-6.1088
16.763
16.6499
16.501
16.3086
16.0635
15.7548
15.3694
14.8929
14.3089
13.6006
12.7519
11.7497
10.5878
9.27062
7.81865
6.27147
4.68886
3.14659
1.72526
0.494428
-0.501673
-1.24828
-1.75287
-2.03655
-2.12891
-2.06695
-1.89538
-1.66434
-1.42359
-1.2154
-1.06964
-1.00314
-1.02258
-1.12815
-1.31657
-1.58317
-1.9234
-2.33402
-2.81379
-3.36386
-3.98775
-4.69075
-5.47876
-6.35627
16.3445
16.2014
16.0221
15.8
15.5269
15.1936
14.7898
14.304
13.7243
13.0391
12.2383
11.315
10.2686
9.1067
7.84843
6.52606
5.18479
3.87887
2.66431
1.5894
0.686672
-0.0295022
-0.560443
-0.918937
-1.12596
-1.20905
-1.20132
-1.13939
-1.05984
-0.994946
-0.969492
-0.999727
-1.09451
-1.25739
-1.48862
-1.78673
-2.14973
-2.57603
-3.06497
-3.61715
-4.23426
-4.91867
-5.67245
-6.49603
15.962
15.7942
15.5907
15.3457
15.0523
14.7029
14.2894
13.8031
13.2354
12.5784
11.8264
10.9764
10.0307
8.99805
7.89549
6.74886
5.59215
4.46461
3.40602
2.45103
1.62434
0.938636
0.395246
-0.0136483
-0.30284
-0.492587
-0.607371
-0.674238
-0.720466
-0.770873
-0.845648
-0.959396
-1.12146
-1.33702
-1.60837
-1.93606
-2.31975
-2.75891
-3.25325
-3.80292
-4.40839
-5.07009
-5.78775
-6.55948
15.615
15.4271
15.2046
14.9424
14.6348
14.2758
13.8589
13.3777
12.8262
12.1994
11.4941
10.71
9.85082
8.92516
7.94765
6.93884
5.92453
4.93362
3.99505
3.13421
2.36987
1.71261
1.16483
0.721906
0.373562
0.105023
-0.101834
-0.267174
-0.411557
-0.554159
-0.711279
-0.895538
-1.11586
-1.37799
-1.68528
-2.03944
-2.44111
-2.89046
-3.38738
-3.93171
-4.52313
-5.16087
-5.84329
-6.56725
15.3024
15.0984
14.8611
14.5864
14.2694
13.9054
13.4895
13.0169
12.4837
11.8867
11.2246
10.4985
9.71271
8.87525
7.99839
7.09847
6.19525
5.31034
4.46519
3.67867
2.96516
2.33332
1.78593
1.32039
0.929614
0.602862
0.326689
0.0859677
-0.134919
-0.350851
-0.574925
-0.817805
-1.08756
-1.38989
-1.72854
-2.10575
-2.52276
-2.98006
-3.47767
-4.01521
-4.59185
-5.20614
-5.85569
-6.53681
15.0228
14.8061
14.5576
14.2739
13.9511
13.5855
13.1734
12.7113
12.1967
11.6279
11.0046
10.3289
9.60496
8.84004
8.04435
7.23094
6.41507
5.61316
4.84133
4.11386
3.44187
2.83241
2.28824
1.80804
1.38695
1.01718
0.688746
0.390265
0.109804
-0.164225
-0.442315
-0.73335
-1.04439
-1.38073
-1.74609
-2.14293
-2.57269
-3.03604
-3.53304
-4.06315
-4.62528
-5.2176
-5.83738
-6.48078
14.7748
14.5481
14.2912
14.0014
13.6754
13.3105
12.9038
12.453
11.9564
11.4134
10.8244
10.1918
9.51963
8.81425
8.08413
7.33972
6.59297
5.85651
5.14265
4.46237
3.82434
3.23431
2.69486
2.20546
1.76281
1.36128
0.993468
0.650756
0.323997
0.00413828
-0.317214
-0.64739
-0.992433
-1.35707
-1.74478
-2.15798
-2.59815
-3.066
-3.56156
-4.08422
-4.63273
-5.2051
-5.79851
-6.40918
14.5568
14.3223
14.0594
13.7655
13.4382
13.0754
12.6749
12.2353
11.7555
11.2356
10.6764
10.0803
9.45123
8.79458
8.11743
7.42821
6.73636
6.05176
5.38396
4.7415
4.13125
3.55791
3.02382
2.52895
2.07109
1.6462
1.24875
0.872235
0.509599
0.153756
-0.202006
-0.563693
-0.936405
-1.32425
-1.73037
-2.15699
-2.6055
-3.07658
-3.57022
-4.08575
-4.62186
-5.17653
-5.74699
-6.32961
14.3673
14.1269
13.8595
13.5632
13.2359
12.8759
12.482
12.0529
11.5883
11.0885
10.5548
9.98945
9.39595
8.77902
8.14457
7.49948
6.85132
6.20788
5.57673
4.96462
4.37705
3.8179
3.28927
2.79143
2.32296
1.88094
1.46127
1.05899
0.668667
0.284728
-0.0981965
-0.485012
-0.879979
-1.28661
-1.70766
-2.14509
-2.60018
-3.0735
-3.56499
-4.07396
-4.59907
-5.13834
-5.6891
-6.24799
14.2049
13.9601
13.6896
13.3918
13.0652
12.7086
12.3208
11.9014
11.4501
10.9677
10.4554
9.91554
9.35116
8.7664
8.16622
7.5563
6.94279
6.33199
5.72995
5.14212
4.57296
4.02572
3.50229
3.00313
2.52734
2.07284
1.63659
1.21479
0.803235
0.397522
-0.00665317
-0.413293
-0.82594
-1.24757
-1.68053
-2.12656
-2.58674
-3.06154
-3.55085
-4.05394
-4.5695
-5.09563
-5.62978
-6.16883
14.0682
13.8201
13.5475
13.2491
12.9237
12.5703
12.1882
11.7772
11.3374
10.8696
10.375
9.85591
9.31506
8.75605
8.1831
7.60099
7.01479
6.42967
5.85059
5.28201
4.72765
4.19026
3.67154
3.17205
2.69129
2.22779
1.77925
1.34279
0.915103
0.492691
0.0720858
-0.349989
-0.776475
-1.20988
-1.65221
-2.10493
-2.56897
-3.0447
-3.53192
-4.02992
-4.5374
-5.05253
-5.57294
-6.0957
13.9562
13.7057
13.4317
13.1331
12.809
12.4586
12.0816
11.6777
11.2474
10.7914
10.3112
9.80867
9.28645
8.74768
8.19603
7.63555
7.07054
6.50535
5.9441
5.39057
4.84789
4.31845
3.80379
3.30455
2.82049
2.35057
1.89307
1.44574
1.00597
0.570952
0.137862
-0.296009
-0.733119
-1.17558
-1.62511
-2.08295
-2.54986
-3.02611
-3.51148
-4.0052
-4.50604
-5.01223
-5.52153
-6.03122
13.8679
13.6156
13.3407
13.0422
12.7194
12.3716
11.9987
11.6006
11.1778
10.7312
10.2621
9.77238
9.26444
8.7411
8.2056
7.66148
7.11246
6.56229
6.01451
5.47238
4.93863
4.41538
3.90405
3.4053
2.9191
2.44469
1.98079
1.52559
1.07701
0.632731
0.190415
-0.252211
-0.69723
-1.14645
-1.60134
-2.06295
-2.53192
-3.00845
-3.49223
-3.98253
-4.47811
-4.9773
-5.47795
-5.97752
13.8024
13.549
13.2736
12.9753
12.6535
12.3078
11.9381
11.5443
11.1272
10.6875
10.2266
9.74624
9.24869
8.73651
8.21264
7.68028
7.14274
6.60333
6.06522
5.5313
5.00402
4.48531
3.9765
3.47828
2.99072
2.51331
2.045
1.58436
1.12962
0.678842
0.230023
-0.218795
-0.669424
-1.12344
-1.58212
-2.0464
-2.5168
-2.99344
-3.476
-3.96373
-4.45542
-4.94944
-5.44375
-5.93593
13.7592
13.5051
13.2294
12.9313
12.6103
12.266
11.8984
11.5076
11.0941
10.659
10.2034
9.7292
9.23838
8.73342
8.21706
7.69227
7.1621
6.62962
6.09774
5.56912
5.04603
4.53028
4.02315
3.52535
3.03701
2.55775
2.08672
1.62266
1.16404
0.709159
0.256217
-0.196536
-0.650735
-1.10781
-1.5689
-2.03486
-2.50614
-2.98281
-3.46453
-3.95055
-4.43966
-4.93029
-5.42045
-5.90779
13.738
13.4837
13.2079
12.91
12.5895
12.246
11.8795
11.4902