/*--------------------------------*- C++ -*----------------------------------*\
  =========                 |
  \\      /  F ield         | OpenFOAM: The Open Source CFD Toolbox
   \\    /   O peration     | Website:  https://openfoam.org
    \\  /    A nd           | Version:  13
     \\/     M anipulation  |
\*---------------------------------------------------------------------------*/
FoamFile
{
    format      ascii;
    class       volScalarField;
    location    "1000";
    object      nut;
}
// * * * * * * * * * * * * * * * * * * * * * * * * * * * * * * * * * * * * * //

dimensions      [0 2 -1 0 0 0 0];

internalField   nonuniform List<scalar> 
172836
(
0.0176273
0.0176168
0.0176064
0.0175959
0.0175854
0.0175748
0.0175643
0.0175538
0.0176428
0.0176324
0.017622
0.0176115
0.0176011
0.0175906
0.0175801
0.0175696
0.0176894
0.0176791
0.0176687
0.0176584
0.017648
0.0176376
0.0176272
0.0176167
0.0176063
0.017756
0.0177457
0.0177353
0.0177249
0.0177146
0.0177042
0.0176938
0.0176834
0.017673
0.0178629
0.0178524
0.0178419
0.0178314
0.0178209
0.0178104
0.0178
0.0177895
0.017779
0.0180169
0.0180061
0.0179952
0.0179844
0.0179736
0.0179628
0.0179521
0.0179413
0.0179307
0.0182195
0.0182081
0.0181968
0.0181855
0.0181742
0.018163
0.0181519
0.0181408
0.0181297
0.0184666
0.0184548
0.0184429
0.0184312
0.0184195
0.0184079
0.0183963
0.0183848
0.0183734
0.0187272
0.0187153
0.0187035
0.0186917
0.01868
0.0186684
0.0186568
0.0186454
0.0176513
0.0176409
0.0176305
0.01762
0.0176096
0.0175991
0.0175887
0.0175782
0.0175677
0.0175572
0.0175467
0.0175363
0.0175263
0.0176664
0.017656
0.0176456
0.0176352
0.0176248
0.0176144
0.017604
0.0175936
0.0175832
0.0175727
0.0175623
0.0175519
0.0175421
0.0177019
0.0176915
0.0176812
0.0176709
0.0176606
0.0176502
0.0176399
0.0176295
0.0176191
0.0176088
0.0175984
0.0175881
0.0175783
0.0177676
0.0177573
0.0177469
0.0177366
0.0177263
0.017716
0.0177056
0.0176953
0.017685
0.0176746
0.0176643
0.017654
0.0176444
0.0178739
0.0178634
0.0178529
0.0178424
0.0178319
0.0178215
0.017811
0.0178006
0.0177902
0.0177798
0.0177694
0.0177591
0.0177494
0.0180277
0.0180168
0.0180059
0.0179951
0.0179843
0.0179736
0.0179628
0.0179521
0.0179414
0.0179308
0.0179202
0.0179096
0.0178998
0.0182305
0.0182191
0.0182077
0.0181964
0.0181851
0.0181739
0.0181627
0.0181515
0.0181405
0.0181294
0.0181185
0.0181076
0.0180975
0.0184778
0.0184658
0.018454
0.0184421
0.0184304
0.0184187
0.0184071
0.0183955
0.018384
0.0183726
0.0183613
0.0183502
0.0183397
0.018749
0.018737
0.018725
0.0187131
0.0187012
0.0186894
0.0186777
0.0186661
0.0186546
0.0186431
0.0186318
0.0186206
0.0186102
0.018878
0.0184013
0.0183884
0.0183755
0.0183625
0.0183496
0.0183366
0.0183237
0.0183109
0.0182981
0.0182853
0.0182726
0.01826
0.0182475
0.018235
0.0182226
0.0182103
0.018198
0.0181858
0.0181737
0.0181615
0.0181494
0.0181373
0.0181253
0.0181132
0.0181012
0.0180891
0.018077
0.018065
0.0180529
0.0180408
0.0180287
0.0180166
0.0180044
0.0179923
0.0179802
0.0179682
0.0179561
0.0179441
0.0179321
0.0179202
0.0179083
0.0178965
0.0178847
0.0178731
0.0178615
0.01785
0.0178385
0.0178272
0.0178159
0.0178047
0.0177936
0.0177826
0.0177716
0.0177607
0.0177499
0.0177391
0.0177284
0.0177178
0.0177072
0.0176966
0.0176861
0.0176755
0.017665
0.0176545
0.0176441
0.0176336
0.0176232
0.0176128
0.0176024
0.017592
0.0175815
0.0175711
0.0175607
0.0175502
0.0175398
0.0175293
0.0175195
0.0184102
0.0183975
0.0183847
0.0183719
0.0183591
0.0183463
0.0183335
0.0183208
0.0183081
0.0182955
0.0182829
0.0182704
0.018258
0.0182456
0.0182333
0.0182211
0.0182089
0.0181968
0.0181848
0.0181728
0.0181608
0.0181488
0.0181369
0.0181249
0.018113
0.0181011
0.0180891
0.0180772
0.0180652
0.0180532
0.0180412
0.0180292
0.0180172
0.0180052
0.0179932
0.0179812
0.0179693
0.0179573
0.0179454
0.0179336
0.0179218
0.01791
0.0178984
0.0178868
0.0178752
0.0178638
0.0178524
0.0178411
0.0178299
0.0178188
0.0178077
0.0177967
0.0177858
0.017775
0.0177642
0.0177535
0.0177428
0.0177322
0.0177217
0.0177112
0.0177007
0.0176902
0.0176797
0.0176692
0.0176588
0.0176484
0.0176381
0.0176277
0.0176173
0.0176069
0.0175966
0.0175862
0.0175758
0.0175654
0.017555
0.0175447
0.0175349
0.0184344
0.018422
0.0184096
0.0183972
0.0183847
0.0183721
0.0183596
0.0183472
0.0183347
0.0183223
0.01831
0.0182977
0.0182855
0.0182733
0.0182612
0.0182492
0.0182373
0.0182253
0.0182135
0.0182017
0.0181899
0.0181781
0.0181664
0.0181547
0.018143
0.0181312
0.0181195
0.0181077
0.018096
0.0180842
0.0180724
0.0180606
0.0180487
0.0180369
0.0180251
0.0180133
0.0180015
0.0179897
0.017978
0.0179662
0.0179546
0.017943
0.0179314
0.01792
0.0179085
0.0178972
0.0178859
0.0178747
0.0178636
0.0178526
0.0178416
0.0178307
0.0178199
0.0178091
0.0177984
0.0177878
0.0177772
0.0177667
0.0177562
0.0177457
0.0177353
0.0177249
0.0177144
0.017704
0.0176937
0.0176833
0.017673
0.0176627
0.0176524
0.0176421
0.0176318
0.0176214
0.0176111
0.0176008
0.0175905
0.0175802
0.0175705
0.018488
0.0184762
0.0184643
0.0184524
0.0184403
0.0184282
0.0184161
0.018404
0.0183919
0.0183798
0.0183677
0.0183556
0.0183436
0.0183317
0.0183198
0.018308
0.0182963
0.0182846
0.0182729
0.0182613
0.0182497
0.0182382
0.0182266
0.0182151
0.0182036
0.0181921
0.0181805
0.018169
0.0181574
0.0181458
0.0181342
0.0181226
0.018111
0.0180994
0.0180878
0.0180761
0.0180645
0.0180529
0.0180413
0.0180298
0.0180183
0.0180068
0.0179954
0.017984
0.0179727
0.0179615
0.0179503
0.0179392
0.0179281
0.0179172
0.0179063
0.0178954
0.0178846
0.0178739
0.0178632
0.0178526
0.017842
0.0178315
0.017821
0.0178106
0.0178001
0.0177897
0.0177793
0.0177689
0.0177585
0.0177482
0.0177379
0.0177275
0.0177172
0.017707
0.0176967
0.0176864
0.0176761
0.0176658
0.0176555
0.0176453
0.0176357
0.018589
0.0185778
0.0185665
0.0185551
0.0185435
0.0185318
0.01852
0.0185082
0.0184963
0.0184844
0.0184725
0.0184606
0.0184487
0.0184369
0.0184251
0.0184134
0.0184017
0.01839
0.0183784
0.0183669
0.0183553
0.0183439
0.0183324
0.0183209
0.0183095
0.018298
0.0182866
0.0182751
0.0182636
0.0182521
0.0182406
0.0182291
0.0182176
0.0182061
0.0181946
0.018183
0.0181715
0.01816
0.0181485
0.018137
0.0181256
0.0181142
0.0181028
0.0180915
0.0180802
0.0180689
0.0180577
0.0180466
0.0180355
0.0180245
0.0180135
0.0180025
0.0179917
0.0179808
0.01797
0.0179593
0.0179486
0.0179379
0.0179272
0.0179166
0.017906
0.0178954
0.0178848
0.0178743
0.0178637
0.0178532
0.0178428
0.0178323
0.0178219
0.0178115
0.0178011
0.0177907
0.0177803
0.0177699
0.0177596
0.0177494
0.0177397
0.0187499
0.0187393
0.0187285
0.0187175
0.0187062
0.0186947
0.0186831
0.0186714
0.0186596
0.0186477
0.0186357
0.0186237
0.0186117
0.0185997
0.0185877
0.0185758
0.0185639
0.0185521
0.0185402
0.0185285
0.0185168
0.0185051
0.0184934
0.0184818
0.0184702
0.0184585
0.018447
0.0184354
0.0184238
0.0184122
0.0184006
0.0183891
0.0183775
0.0183659
0.0183543
0.0183427
0.0183311
0.0183196
0.018308
0.0182965
0.018285
0.0182735
0.018262
0.0182506
0.0182391
0.0182278
0.0182164
0.0182051
0.0181938
0.0181825
0.0181713
0.0181601
0.0181489
0.0181378
0.0181266
0.0181156
0.0181045
0.0180935
0.0180824
0.0180714
0.0180604
0.0180494
0.0180385
0.0180275
0.0180166
0.0180058
0.0179949
0.0179841
0.0179733
0.0179626
0.0179519
0.0179412
0.0179306
0.01792
0.0179094
0.017899
0.0178892
0.0189677
0.0189575
0.018947
0.0189362
0.0189252
0.0189138
0.0189023
0.0188906
0.0188787
0.0188666
0.0188545
0.0188423
0.01883
0.0188177
0.0188054
0.0187932
0.0187809
0.0187687
0.0187565
0.0187444
0.0187323
0.0187203
0.0187083
0.0186963
0.0186844
0.0186725
0.0186606
0.0186488
0.0186369
0.0186251
0.0186134
0.0186016
0.0185899
0.0185781
0.0185664
0.0185547
0.018543
0.0185313
0.0185196
0.018508
0.0184963
0.0184847
0.018473
0.0184614
0.0184498
0.0184382
0.0184266
0.018415
0.0184034
0.0183918
0.0183803
0.0183687
0.0183571
0.0183455
0.018334
0.0183224
0.0183109
0.0182993
0.0182878
0.0182762
0.0182647
0.0182532
0.0182416
0.0182301
0.0182187
0.0182073
0.0181959
0.0181846
0.0181734
0.0181621
0.018151
0.0181399
0.0181288
0.0181178
0.0181069
0.0180962
0.0180861
0.019216
0.0192065
0.0191966
0.0191864
0.0191758
0.019165
0.0191538
0.0191424
0.0191309
0.0191191
0.0191072
0.0190951
0.019083
0.0190707
0.0190585
0.0190462
0.0190339
0.0190216
0.0190094
0.0189971
0.0189849
0.0189728
0.0189607
0.0189486
0.0189366
0.0189246
0.0189127
0.0189008
0.018889
0.0188772
0.0188654
0.0188537
0.018842
0.0188303
0.0188187
0.018807
0.0187954
0.0187838
0.0187722
0.0187606
0.018749
0.0187374
0.0187258
0.0187142
0.0187026
0.018691
0.0186793
0.0186676
0.0186559
0.0186441
0.0186324
0.0186205
0.0186087
0.0185968
0.018585
0.0185731
0.0185611
0.0185492
0.0185372
0.0185252
0.0185132
0.0185011
0.0184891
0.0184771
0.0184652
0.0184532
0.0184414
0.0184296
0.0184178
0.0184061
0.0183945
0.018383
0.0183715
0.0183602
0.0183489
0.0183378
0.0183274
0.0194519
0.0194437
0.019435
0.0194259
0.0194165
0.0194067
0.0193966
0.0193862
0.0193755
0.0193647
0.0193537
0.0193425
0.0193311
0.0193197
0.0193081
0.0192965
0.0192849
0.0192732
0.0192616
0.0192499
0.0192383
0.0192267
0.0192151
0.0192036
0.0191921
0.0191807
0.0191693
0.019158
0.0191467
0.0191355
0.0191243
0.0191132
0.019102
0.019091
0.0190799
0.0190688
0.0190578
0.0190468
0.0190358
0.0190247
0.0190137
0.0190027
0.0189916
0.0189805
0.0189693
0.0189581
0.0189469
0.0189356
0.0189242
0.0189128
0.0189013
0.0188898
0.0188782
0.0188665
0.0188548
0.018843
0.0188312
0.0188193
0.0188073
0.0187953
0.0187833
0.0187712
0.0187591
0.018747
0.0187349
0.0187229
0.018711
0.018699
0.0186872
0.0186754
0.0186637
0.0186521
0.0186406
0.0186292
0.0186179
0.0186068
0.0185964
0.0196505
0.0196438
0.0196366
0.019629
0.019621
0.0196126
0.0196039
0.0195948
0.0195855
0.0195759
0.0195661
0.0195562
0.019546
0.0195358
0.0195254
0.0195149
0.0195043
0.0194938
0.0194832
0.0194726
0.019462
0.0194514
0.0194409
0.0194304
0.0194199
0.0194095
0.0193992
0.0193889
0.0193786
0.0193684
0.0193582
0.0193481
0.019338
0.0193279
0.0193179
0.0193078
0.0192978
0.0192878
0.0192778
0.0192678
0.0192577
0.0192476
0.0192375
0.0192274
0.0192171
0.0192068
0.0191965
0.019186
0.0191755
0.0191649
0.0191542
0.0191434
0.0191325
0.0191216
0.0191105
0.0190993
0.0190881
0.0190767
0.0190653
0.0190538
0.0190423
0.0190307
0.019019
0.0190074
0.0189957
0.0189841
0.0189725
0.018961
0.0189495
0.0189382
0.0189268
0.0189156
0.0189045
0.0188935
0.0188827
0.018872
0.018862
0.0198117
0.0198066
0.0198011
0.019795
0.0197885
0.0197815
0.0197742
0.0197665
0.0197585
0.0197503
0.0197418
0.0197331
0.0197241
0.0197151
0.0197059
0.0196965
0.0196872
0.0196777
0.0196683
0.0196588
0.0196493
0.0196399
0.0196305
0.0196211
0.0196118
0.0196025
0.0195933
0.0195842
0.0195751
0.019566
0.019557
0.019548
0.0195391
0.0195302
0.0195213
0.0195124
0.0195035
0.0194947
0.0194858
0.0194769
0.019468
0.0194591
0.0194501
0.019441
0.0194319
0.0194226
0.0194133
0.0194039
0.0193944
0.0193848
0.0193751
0.0193653
0.0193553
0.0193453
0.0193351
0.0193248
0.0193144
0.0193038
0.0192932
0.0192825
0.0192717
0.0192608
0.01925
0.019239
0.0192281
0.0192172
0.0192063
0.0191955
0.0191847
0.019174
0.0191633
0.0191528
0.0191424
0.0191321
0.0191219
0.019112
0.0191026
0.0199465
0.0199431
0.0199392
0.0199346
0.0199296
0.019924
0.019918
0.0199116
0.0199048
0.0198977
0.0198903
0.0198827
0.0198748
0.0198668
0.0198586
0.0198503
0.0198419
0.0198334
0.0198249
0.0198164
0.0198079
0.0197994
0.019791
0.0197827
0.0197744
0.0197661
0.019758
0.0197498
0.0197418
0.0197338
0.0197259
0.019718
0.0197102
0.0197024
0.0196947
0.019687
0.0196793
0.0196715
0.0196638
0.0196561
0.0196483
0.0196405
0.0196326
0.0196247
0.0196166
0.0196085
0.0196002
0.0195919
0.0195834
0.0195747
0.019566
0.0195571
0.0195481
0.0195389
0.0195296
0.0195201
0.0195105
0.0195008
0.0194909
0.019481
0.0194709
0.0194608
0.0194505
0.0194404
0.0194301
0.0194199
0.0194097
0.0193995
0.0193895
0.0193795
0.0193696
0.0193598
0.0193501
0.0193405
0.0193311
0.0193218
0.0193132
0.0200676
0.0200659
0.0200636
0.0200606
0.0200569
0.0200527
0.0200479
0.0200427
0.020037
0.0200309
0.0200244
0.0200177
0.0200106
0.0200034
0.019996
0.0199884
0.0199807
0.019973
0.0199652
0.0199574
0.0199497
0.0199419
0.0199343
0.0199267
0.0199192
0.0199118
0.0199044
0.0198972
0.0198901
0.019883
0.019876
0.0198692
0.0198623
0.0198556
0.0198489
0.0198422
0.0198356
0.0198289
0.0198223
0.0198156
0.0198089
0.0198021
0.0197953
0.0197884
0.0197813
0.0197742
0.0197669
0.0197594
0.0197519
0.0197441
0.0197362
0.0197282
0.0197199
0.0197114
0.0197028
0.019694
0.019685
0.0196758
0.0196666
0.0196571
0.0196476
0.019638
0.0196284
0.0196186
0.0196089
0.0195992
0.0195896
0.0195799
0.0195704
0.0195609
0.0195516
0.0195424
0.0195333
0.0195244
0.0195156
0.0195071
0.0194991
0.020186
0.0201862
0.0201856
0.0201842
0.020182
0.0201791
0.0201755
0.0201714
0.0201666
0.0201614
0.0201557
0.0201496
0.0201432
0.0201365
0.0201296
0.0201225
0.0201152
0.0201079
0.0201006
0.0200932
0.0200859
0.0200786
0.0200715
0.0200644
0.0200575
0.0200506
0.020044
0.0200374
0.020031
0.0200248
0.0200186
0.0200126
0.0200067
0.0200009
0.0199952
0.0199895
0.0199839
0.0199783
0.0199727
0.0199671
0.0199614
0.0199557
0.0199498
0.0199439
0.0199378
0.0199315
0.0199251
0.0199185
0.0199117
0.0199047
0.0198975
0.01989
0.0198823
0.0198743
0.0198662
0.0198577
0.0198491
0.0198403
0.0198312
0.0198221
0.0198128
0.0198034
0.0197938
0.0197844
0.0197748
0.0197653
0.0197558
0.0197464
0.0197372
0.0197281
0.0197191
0.0197103
0.0197016
0.0196931
0.0196848
0.0196767
0.0196693
0.0203109
0.0203132
0.0203145
0.0203148
0.0203142
0.0203127
0.0203104
0.0203073
0.0203034
0.0202989
0.0202939
0.0202883
0.0202823
0.020276
0.0202693
0.0202624
0.0202554
0.0202482
0.020241
0.0202338
0.0202266
0.0202195
0.0202126
0.0202058
0.0201992
0.0201927
0.0201865
0.0201805
0.0201747
0.020169
0.0201636
0.0201584
0.0201533
0.0201484
0.0201436
0.0201389
0.0201343
0.0201297
0.0201251
0.0201206
0.0201159
0.0201112
0.0201064
0.0201014
0.0200962
0.0200908
0.0200851
0.0200793
0.0200732
0.0200667
0.02006
0.0200529
0.0200455
0.0200378
0.0200297
0.0200214
0.0200128
0.0200039
0.0199948
0.0199856
0.0199761
0.0199665
0.0199569
0.0199471
0.0199375
0.0199278
0.0199183
0.0199088
0.0198995
0.0198904
0.0198815
0.0198728
0.0198643
0.019856
0.0198479
0.0198402
0.0198331
0.0204497
0.0204544
0.0204579
0.0204602
0.0204613
0.0204613
0.0204602
0.0204582
0.0204552
0.0204513
0.0204467
0.0204415
0.0204357
0.0204295
0.0204228
0.0204159
0.0204087
0.0204013
0.0203939
0.0203865
0.0203792
0.020372
0.020365
0.0203582
0.0203516
0.0203453
0.0203393
0.0203336
0.0203283
0.0203232
0.0203184
0.0203139
0.0203097
0.0203057
0.0203018
0.0202982
0.0202946
0.0202911
0.0202877
0.0202842
0.0202807
0.020277
0.0202733
0.0202693
0.020265
0.0202605
0.0202556
0.0202505
0.0202449
0.0202389
0.0202325
0.0202256
0.0202183
0.0202105
0.0202023
0.0201937
0.0201848
0.0201755
0.0201659
0.0201561
0.020146
0.0201359
0.0201255
0.0201153
0.0201049
0.0200947
0.0200845
0.0200747
0.020065
0.0200556
0.0200464
0.0200375
0.0200289
0.0200206
0.0200126
0.0200049
0.019998
0.0206077
0.0206151
0.0206211
0.0206255
0.0206285
0.0206301
0.0206304
0.0206294
0.0206272
0.020624
0.0206197
0.0206146
0.0206089
0.0206024
0.0205955
0.0205881
0.0205805
0.0205726
0.0205646
0.0205567
0.0205488
0.0205411
0.0205336
0.0205265
0.0205197
0.0205133
0.0205073
0.0205017
0.0204965
0.0204918
0.0204876
0.0204837
0.0204802
0.020477
0.0204741
0.0204714
0.020469
0.0204666
0.0204643
0.0204621
0.0204597
0.0204572
0.0204545
0.0204516
0.0204483
0.0204446
0.0204405
0.0204359
0.0204308
0.0204251
0.0204188
0.0204119
0.0204043
0.0203962
0.0203876
0.0203784
0.0203687
0.0203586
0.0203482
0.0203374
0.0203264
0.0203152
0.0203039
0.0202924
0.0202812
0.0202699
0.020259
0.0202482
0.0202377
0.0202276
0.0202178
0.0202083
0.0201993
0.0201906
0.0201824
0.0201746
0.0201677
0.0207869
0.0207974
0.0208059
0.0208126
0.0208175
0.0208207
0.0208223
0.0208223
0.0208208
0.0208179
0.0208138
0.0208087
0.0208026
0.0207957
0.020788
0.0207798
0.0207712
0.0207623
0.0207532
0.0207442
0.0207353
0.0207266
0.0207182
0.0207102
0.0207027
0.0206957
0.0206892
0.0206834
0.0206781
0.0206735
0.0206694
0.020666
0.020663
0.0206605
0.0206584
0.0206567
0.0206553
0.020654
0.0206529
0.0206518
0.0206506
0.0206493
0.0206477
0.0206458
0.0206435
0.0206406
0.0206372
0.0206331
0.0206283
0.0206227
0.0206163
0.0206092
0.0206013
0.0205926
0.0205832
0.0205732
0.0205625
0.0205513
0.0205396
0.0205276
0.0205152
0.0205026
0.0204898
0.0204771
0.0204642
0.0204517
0.0204392
0.0204272
0.0204156
0.0204043
0.0203935
0.0203832
0.0203733
0.0203639
0.0203551
0.0203469
0.0203395
0.0209824
0.0209952
0.0210058
0.0210143
0.0210208
0.0210252
0.0210278
0.0210285
0.0210275
0.0210249
0.0210208
0.0210154
0.0210087
0.0210009
0.0209922
0.0209827
0.0209726
0.0209622
0.0209515
0.0209407
0.0209301
0.0209197
0.0209097
0.0209001
0.0208911
0.0208828
0.0208752
0.0208683
0.0208622
0.0208568
0.0208522
0.0208484
0.0208453
0.0208428
0.0208409
0.0208395
0.0208385
0.0208378
0.0208373
0.0208369
0.0208365
0.0208359
0.0208351
0.0208339
0.0208322
0.0208299
0.0208268
0.0208229
0.0208182
0.0208127
0.0208062
0.0207989
0.0207906
0.0207815
0.0207715
0.0207607
0.0207492
0.020737
0.0207243
0.0207111
0.0206974
0.0206834
0.0206693
0.0206549
0.0206408
0.0206266
0.0206128
0.0205992
0.0205861
0.0205734
0.0205612
0.0205496
0.0205384
0.0205279
0.0205179
0.0205087
0.0205004
0.02117
0.0211833
0.0211943
0.0212032
0.0212101
0.021215
0.0212179
0.021219
0.0212184
0.021216
0.021212
0.0212063
0.021199
0.0211903
0.0211803
0.0211693
0.0211574
0.0211449
0.021132
0.0211189
0.0211057
0.0210928
0.0210801
0.0210679
0.0210563
0.0210453
0.0210351
0.0210258
0.0210172
0.0210096
0.0210029
0.0209971
0.0209921
0.0209879
0.0209845
0.0209817
0.0209796
0.0209778
0.0209765
0.0209754
0.0209744
0.0209734
0.0209722
0.0209706
0.0209686
0.0209661
0.0209628
0.0209589
0.0209543
0.0209489
0.0209428
0.0209359
0.0209282
0.0209196
0.0209102
0.0209
0.020889
0.0208772
0.0208648
0.0208517
0.020838
0.0208238
0.0208092
0.0207944
0.0207793
0.0207643
0.0207492
0.0207345
0.02072
0.0207058
0.0206921
0.0206788
0.0206659
0.0206535
0.0206417
0.0206306
0.0206204
0.0212914
0.0213006
0.0213085
0.0213147
0.0213195
0.0213231
0.0213255
0.0213268
0.021327
0.0213258
0.0213228
0.0213178
0.0213108
0.0213021
0.0212917
0.0212798
0.0212665
0.0212523
0.0212372
0.0212214
0.0212052
0.0211888
0.0211723
0.0211559
0.0211398
0.021124
0.0211087
0.0210941
0.0210801
0.0210668
0.0210544
0.0210428
0.0210321
0.0210223
0.0210133
0.0210051
0.0209976
0.0209909
0.0209849
0.0209793
0.0209743
0.0209695
0.020965
0.0209606
0.0209561
0.0209516
0.0209471
0.0209428
0.0209387
0.0209346
0.0209306
0.0209266
0.0209224
0.0209178
0.0209129
0.0209074
0.0209012
0.0208942
0.0208863
0.0208776
0.020868
0.0208574
0.020846
0.0208336
0.0208206
0.020807
0.0207929
0.0207784
0.0207636
0.0207487
0.0207337
0.0207186
0.0207036
0.0206886
0.0206738
0.0206594
0.0206458
0.02123
0.0212267
0.0212239
0.0212221
0.0212215
0.0212222
0.0212242
0.021227
0.0212297
0.0212306
0.0212294
0.021226
0.0212203
0.0212124
0.0212023
0.0211901
0.0211759
0.02116
0.0211424
0.0211233
0.0211028
0.0210812
0.0210587
0.0210353
0.0210113
0.0209868
0.020962
0.020937
0.0209121
0.0208873
0.0208629
0.0208389
0.0208156
0.020793
0.0207712
0.0207503
0.0207305
0.0207118
0.0206943
0.0206779
0.0206628
0.0206491
0.0206362
0.0206249
0.0206155
0.0206083
0.0206037
0.0206017
0.0206022
0.020605
0.0206099
0.0206166
0.0206244
0.0206331
0.020642
0.0206507
0.0206588
0.0206658
0.0206714
0.0206753
0.0206773
0.0206771
0.020675
0.0206705
0.020664
0.0206555
0.0206452
0.0206332
0.0206196
0.0206045
0.0205881
0.0205704
0.0205516
0.0205319
0.0205114
0.0204912
0.0207541
0.0207239
0.0207015
0.0206861
0.0206779
0.0206772
0.0206833
0.0206949
0.0207093
0.0207222
0.0207332
0.020742
0.0207481
0.0207511
0.0207507
0.0207467
0.0207391
0.0207275
0.0207122
0.0206929
0.0206699
0.0206432
0.020613
0.0205794
0.0205427
0.0205031
0.0204609
0.0204164
0.02037
0.020322
0.0202729
0.0202229
0.0201727
0.0201224
0.0200727
0.0200239
0.0199765
0.0199309
0.0198876
0.0198468
0.0198092
0.0197751
0.0197445
0.0197193
0.0197005
0.0196892
0.0196858
0.0196904
0.0197029
0.0197228
0.0197494
0.0197817
0.0198186
0.0198589
0.0199013
0.0199446
0.0199875
0.0200289
0.0200678
0.0201033
0.0201348
0.0201618
0.0201836
0.0202004
0.0202119
0.0202181
0.0202192
0.0202152
0.0202065
0.0201932
0.0201756
0.0201539
0.0201283
0.0200993
0.0200671
0.0200335
0.0194343
0.019378
0.0193447
0.0193309
0.019336
0.0193582
0.019394
0.019437
0.0194798
0.0195218
0.0195619
0.0195988
0.0196314
0.0196586
0.0196796
0.0196935
0.0196998
0.019698
0.0196877
0.0196687
0.0196411
0.0196049
0.0195602
0.0195074
0.0194469
0.0193791
0.0193047
0.0192243
0.0191387
0.0190487
0.0189552
0.0188592
0.0187618
0.018664
0.0185671
0.0184722
0.0183809
0.0182943
0.0182138
0.0181415
0.018077
0.018024
0.0179853
0.0179627
0.0179573
0.0179694
0.0179987
0.0180441
0.0181042
0.0181771
0.0182608
0.0183529
0.0184511
0.018553
0.0186563
0.0187588
0.0188583
0.0189532
0.0190417
0.0191224
0.0191942
0.0192564
0.0193082
0.0193494
0.01938
0.0193998
0.0194093
0.0194086
0.0193983
0.0193788
0.0193509
0.0193154
0.0192733
0.0192258
0.0191762
0.0168782
0.0168305
0.0168263
0.0168558
0.0169155
0.0169987
0.017094
0.0171934
0.0172947
0.0173956
0.0174934
0.0175854
0.0176695
0.0177432
0.0178047
0.0178524
0.0178851
0.0179016
0.0179014
0.0178841
0.0178496
0.0177981
0.0177301
0.0176462
0.0175474
0.0174349
0.0173102
0.0171748
0.0170309
0.0168808
0.016727
0.0165725
0.0164204
0.0162743
0.0161378
0.0160149
0.0159089
0.0158242
0.0157636
0.0157305
0.0157278
0.0157555
0.0158119
0.0158944
0.0159997
0.0161242
0.0162643
0.0164164
0.0165772
0.0167437
0.0169132
0.017083
0.0172508
0.0174147
0.0175725
0.0177228
0.0178637
0.0179941
0.0181128
0.018219
0.018312
0.018392
0.0184589
0.0185134
0.0185564
0.0185896
0.0186146
0.0186334
0.0186486
0.0186635
0.018681
0.0187039
0.0187351
0.0187767
0.0132814
0.0133007
0.0133635
0.0134662
0.0136007
0.0137525
0.0139159
0.0140879
0.0142645
0.014441
0.014613
0.014776
0.0149258
0.0150585
0.015171
0.0152605
0.0153249
0.0153627
0.0153731
0.0153562
0.0153124
0.0152435
0.0151515
0.0150399
0.0149127
0.0147752
0.0146334
0.0144942
0.0143649
0.0142529
0.0141655
0.0141092
0.0140902
0.0141128
0.0141802
0.0142957
0.0144573
0.0146699
0.014928
0.0152188
0.0155303
0.0158527
0.0161776
0.0164986
0.0168109
0.0171113
0.0173975
0.0176684
0.0179235
0.0181629
0.0183871
0.0185967
0.0187927
0.0189763
0.0191488
0.0193117
0.0194667
0.0196159
0.0197615
0.0199063
0.0200534
0.0202061
0.0203679
0.0205426
0.0207337
0.0209442
0.021178
0.0214394
0.0217306
0.0220541
0.0224096
0.0227973
0.023204
0.00969676
0.00972492
0.00979296
0.00989934
0.0100392
0.0102027
0.0103886
0.0105932
0.010812
0.0110396
0.0112698
0.0114966
0.0117137
0.0119155
0.0120972
0.0122552
0.0123873
0.0124932
0.012575
0.0126371
0.0126866
0.0127329
0.0127875
0.012863
0.0129716
0.0131246
0.0133308
0.0135959
0.0139225
0.0143105
0.0147568
0.0152572
0.0158061
0.0163949
0.0170214
0.0176753
0.0183483
0.0190484
0.0197466
0.0204237
0.0210671
0.0216697
0.0222282
0.0227425
0.0232144
0.0236473
0.0240452
0.024413
0.0247556
0.0250779
0.0253851
0.0256817
0.0259724
0.0262619
0.0265548
0.0268554
0.0271682
0.0274963
0.0278452
0.0282168
0.0286157
0.0290484
0.0295139
0.0300116
0.0305414
0.0311082
0.0317104
0.0323433
0.0330058
0.0337078
0.0344396
0.0351944
0.0359307
0.00750097
0.00752079
0.00753529
0.007571
0.00763285
0.00772785
0.00785574
0.00801413
0.00819971
0.00840843
0.00863577
0.00887738
0.00912989
0.0093919
0.00966506
0.00995511
0.0102724
0.0106319
0.0110517
0.0115506
0.0121455
0.0128483
0.0136638
0.0145894
0.0156155
0.0167268
0.0179054
0.0191313
0.0203855
0.0216501
0.0229089
0.0241505
0.0253627
0.0265393
0.0276761
0.0287619
0.0298135
0.0308096
0.0317363
0.0325886
0.0333679
0.0340796
0.0347312
0.0353316
0.0358898
0.0364149
0.036915
0.037398
0.0378709
0.0383399
0.0388102
0.0392868
0.0397735
0.0402736
0.0407905
0.0413256
0.0418802
0.0424557
0.043052
0.0436695
0.0443088
0.0449677
0.0456436
0.0463381
0.0470498
0.0477694
0.0485038
0.0492532
0.0500091
0.0507598
0.0515128
0.0522706
0.0529925
0.00777784
0.00772402
0.00760665
0.00751974
0.00748763
0.00750279
0.00756485
0.00767573
0.00784004
0.0080659
0.00836604
0.00875892
0.00926893
0.00992499
0.0107573
0.0117924
0.0130473
0.0145258
0.0162153
0.018089
0.0201087
0.0222298
0.024406
0.0265938
0.0287551
0.0308583
0.0328792
0.0348014
0.0366136
0.0383118
0.0398937
0.04136
0.042723
0.0439785
0.0451445
0.0462275
0.047212
0.0481083
0.0489287
0.0496858
0.0503916
0.0510573
0.0516927
0.0523064
0.0529056
0.0534961
0.0540827
0.0546689
0.0552579
0.0558509
0.0564493
0.0570539
0.0576648
0.058282
0.0589045
0.0595306
0.0601608
0.0607935
0.0614264
0.0620581
0.0626909
0.0633213
0.0639425
0.0645666
0.0651919
0.065804
0.0664017
0.0669934
0.0675845
0.0681799
0.0687813
0.0693578
0.0121726
0.0120362
0.0119276
0.0118605
0.0118225
0.0118209
0.0118852
0.0120701
0.0124259
0.013004
0.0138558
0.0150267
0.0165466
0.0184234
0.0206397
0.0231536
0.0259041
0.0288177
0.0318175
0.0348304
0.0377926
0.0406524
0.0433715
0.0459242
0.048296
0.0504819
0.052483
0.0543072
0.0559654
0.0574686
0.0588384
0.0600783
0.0612046
0.0622522
0.0631917
0.0640458
0.064833
0.0655685
0.0662643
0.0669302
0.0675738
0.0682008
0.0688158
0.0694224
0.0700225
0.0706178
0.0712093
0.0717974
0.0723817
0.0729618
0.0735387
0.0741103
0.0746753
0.0752332
0.0757832
0.0763234
0.0768524
0.0773734
0.0778835
0.0783771
0.0788634
0.0793458
0.0798083
0.0802534
0.0806886
0.0811191
0.0815453
0.0819706
0.0824032
0.0828438
0.0832737
0.0266586
0.0266609
0.0263458
0.0259072
0.0254227
0.0249888
0.0247203
0.0247591
0.025222
0.0262108
0.0277803
0.0298889
0.0324713
0.0354387
0.0386777
0.0420862
0.0455456
0.0489612
0.0522564
0.0553745
0.0582781
0.0609474
0.063376
0.0655691
0.0675376
0.0692986
0.070873
0.0722787
0.0735411
0.0746732
0.0756897
0.0766328
0.077471
0.0782319
0.0789352
0.0795958
0.080224
0.0808274
0.0814117
0.0819807
0.0825373
0.0830833
0.083621
0.0841506
0.0846726
0.0851872
0.0856939
0.0861924
0.0866821
0.0871622
0.0876316
0.08809
0.0885358
0.0889674
0.0893861
0.0897923
0.0901797
0.090552
0.0909196
0.0912681
0.0915969
0.0919165
0.092223
0.0925218
0.0928159
0.093108
0.0934008
0.0936988
0.0940059
0.0943149
0.043731
0.0423537
0.0411111
0.040064
0.0392996
0.0389066
0.0389751
0.0395814
0.040825
0.042781
0.045359
0.0484222
0.0518104
0.0553658
0.0589535
0.0624607
0.0658009
0.0689154
0.071769
0.0743478
0.0766526
0.0786968
0.0804996
0.0820852
0.0834808
0.0847087
0.0857955
0.086761
0.0876194
0.0884059
0.0891034
0.0897321
0.0903113
0.0908548
0.0913711
0.0918664
0.0923446
0.092809
0.0932619
0.0937053
0.0941402
0.0945676
0.0949885
0.0954027
0.0958102
0.0962104
0.0966027
0.0969861
0.0973598
0.0977228
0.0980735
0.098411
0.0987363
0.0990465
0.0993398
0.0996222
0.0998951
0.100145
0.100382
0.10061
0.100832
0.10105
0.101263
0.101472
0.101677
0.10188
0.102085
0.102295
0.102507
0.0555098
0.0541591
0.0531051
0.0523898
0.0520475
0.0521211
0.052728
0.0538842
0.0556128
0.0580226
0.0609637
0.0642481
0.0676935
0.0711502
0.0744996
0.0776534
0.0805553
0.083175
0.0855044
0.0875511
0.0893338
0.090878
0.0922115
0.0933649
0.0943623
0.0952313
0.0959928
0.0966609
0.09726
0.0977917
0.0982633
0.0986932
0.0990923
0.0994689
0.0998271
0.100171
0.100504
0.100827
0.101144
0.101456
0.101765
0.102071
0.102375
0.102677
0.102977
0.103272
0.103564
0.103849
0.104128
0.104398
0.104658
0.104907
0.105146
0.10537
0.105585
0.10579
0.105984
0.106171
0.106352
0.106529
0.106702
0.106871
0.107034
0.107191
0.10734
0.107483
0.107621
0.10776
0.107893
0.0638057
0.0636692
0.0637277
0.0641272
0.0648848
0.0661307
0.0678282
0.0699511
0.0725863
0.0755336
0.0786242
0.0817082
0.0846735
0.0874373
0.0899496
0.092186
0.0941429
0.0958331
0.097277
0.0985041
0.099541
0.10042
0.101164
0.1018
0.102344
0.102813
0.103219
0.103575
0.103879
0.104149
0.10439
0.104612
0.104816
0.10501
0.105195
0.105374
0.10555
0.105728
0.105907
0.106091
0.106279
0.106473
0.106671
0.106871
0.107074
0.107277
0.107479
0.107677
0.107872
0.10806
0.108242
0.10842
0.108595
0.108764
0.10893
0.109092
0.109251
0.109408
0.109563
0.109713
0.109857
0.109996
0.110125
0.110245
0.110353
0.110453
0.110548
0.11062
0.0736255
0.07451
0.0755843
0.076907
0.0786093
0.0805302
0.0827475
0.0852023
0.087763
0.0902942
0.0927082
0.0949329
0.0969297
0.0986815
0.100186
0.101463
0.102527
0.103411
0.104135
0.104734
0.105221
0.105627
0.105956
0.106229
0.106446
0.106627
0.106761
0.106869
0.106946
0.10701
0.107054
0.107094
0.107124
0.107157
0.107189
0.107231
0.10728
0.107343
0.107417
0.107505
0.107606
0.107716
0.107837
0.107964
0.108099
0.108234
0.108376
0.108518
0.108667
0.108815
0.108969
0.109121
0.109277
0.10943
0.109587
0.109742
0.109896
0.110047
0.110193
0.110335
0.110469
0.110595
0.110709
0.110811
0.110901
0.110984
0.111018
0.0825111
0.0838385
0.0852822
0.0868922
0.0183942
0.0183814
0.0183685
0.0183556
0.0183426
0.0183297
0.0183168
0.018304
0.0182912
0.0182785
0.0182658
0.0182532
0.0182407
0.0182282
0.0182159
0.0182035
0.0181913
0.018179
0.0181669
0.0181547
0.0181426
0.0181306
0.0181185
0.0181064
0.0180944
0.0180823
0.0180703
0.0180582
0.0180461
0.018034
0.0180219
0.0180098
0.0179977
0.0179856
0.0179735
0.0179615
0.0179494
0.0179374
0.0179255
0.0179135
0.0179017
0.0178899
0.0178781
0.0178664
0.0178548
0.0178433
0.0178319
0.0178205
0.0178092
0.017798
0.0177868
0.0177758
0.0177648
0.0177539
0.017743
0.0177323
0.0177215
0.0177109
0.0177002
0.0176896
0.0176791
0.0176686
0.017658
0.0176475
0.0176371
0.0176266
0.0176162
0.0176058
0.0175954
0.017585
0.0175745
0.0175641
0.0175537
0.0175433
0.0175329
0.0175225
0.0175126
0.0184028
0.0183901
0.0183774
0.0183646
0.0183518
0.018339
0.0183263
0.0183136
0.0183009
0.0182883
0.0182757
0.0182632
0.0182508
0.0182385
0.0182262
0.018214
0.0182018
0.0181897
0.0181776
0.0181656
0.0181536
0.0181417
0.0181297
0.0181178
0.0181059
0.0180939
0.018082
0.01807
0.0180581
0.0180461
0.0180341
0.0180221
0.0180101
0.0179982
0.0179862
0.0179742
0.0179622
0.0179503
0.0179384
0.0179266
0.0179148
0.0179031
0.0178914
0.0178798
0.0178682
0.0178568
0.0178454
0.0178341
0.0178229
0.0178117
0.0178006
0.0177896
0.0177787
0.0177678
0.017757
0.0177463
0.0177356
0.017725
0.0177144
0.0177039
0.0176934
0.0176829
0.0176724
0.017662
0.0176515
0.0176411
0.0176307
0.0176204
0.01761
0.0175996
0.0175893
0.0175789
0.0175685
0.0175582
0.0175478
0.0175375
0.0175278