/*--------------------------------*- C++ -*----------------------------------*\
  =========                 |
  \\      /  F ield         | OpenFOAM: The Open Source CFD Toolbox
   \\    /   O peration     | Website:  https://openfoam.org
    \\  /    A nd           | Version:  13
     \\/     M anipulation  |
\*---------------------------------------------------------------------------*/
FoamFile
{
    format      ascii;
    class       volScalarField;
    location    "1000";
    object      omega;
}
// * * * * * * * * * * * * * * * * * * * * * * * * * * * * * * * * * * * * * //

dimensions      [0 0 -1 0 0 0 0];

internalField   nonuniform List<scalar> 
172836
(
11.8828
11.8459
11.8091
11.7725
11.7361
11.6998
11.6637
11.6277
11.8811
11.8442
11.8075
11.7709
11.7345
11.6982
11.6621
11.6262
11.9126
11.8755
11.8385
11.8017
11.7651
11.7287
11.6924
11.6563
11.6203
11.9004
11.8633
11.8264
11.7896
11.7531
11.7166
11.6804
11.6443
11.6083
11.8773
11.8404
11.8036
11.767
11.7305
11.6942
11.6581
11.6221
11.5862
11.8399
11.8032
11.7667
11.7304
11.6942
11.6581
11.6222
11.5864
11.5508
11.7863
11.75
11.7139
11.6779
11.642
11.6063
11.5707
11.5353
11.5
11.7163
11.6805
11.6447
11.6092
11.5737
11.5384
11.5032
11.4681
11.4331
11.6021
11.5666
11.5313
11.4961
11.461
11.426
11.3912
11.3564
11.9892
11.9518
11.9145
11.8775
11.8406
11.8039
11.7673
11.7309
11.6947
11.6587
11.6228
11.5871
11.5518
11.9874
11.95
11.9127
11.8757
11.8388
11.8021
11.7656
11.7292
11.693
11.657
11.6211
11.5855
11.5503
11.9817
11.9443
11.907
11.8699
11.833
11.7963
11.7598
11.7234
11.6871
11.6511
11.6152
11.5795
11.5443
11.9693
11.9319
11.8947
11.8576
11.8208
11.7841
11.7475
11.7112
11.675
11.639
11.6031
11.5674
11.5323
11.9457
11.9084
11.8713
11.8344
11.7977
11.7611
11.7248
11.6885
11.6524
11.6165
11.5808
11.5452
11.5101
11.9072
11.8702
11.8334
11.7968
11.7604
11.7241
11.6879
11.6519
11.6161
11.5804
11.5448
11.5094
11.4746
11.8519
11.8153
11.779
11.7428
11.7067
11.6708
11.635
11.5993
11.5638
11.5285
11.4933
11.4582
11.4237
11.7799
11.7438
11.7078
11.6721
11.6364
11.6009
11.5655
11.5303
11.4952
11.4602
11.4253
11.3906
11.3565
11.6996
11.6638
11.628
11.5925
11.5571
11.5219
11.4868
11.4518
11.4169
11.3822
11.3476
11.3132
11.2793
11.2066
14.9183
14.8628
14.8076
14.7527
14.6982
14.644
14.5902
14.5368
14.4837
14.431
14.3787
14.3268
14.2753
14.2241
14.1732
14.1227
14.0726
14.0228
13.9733
13.9241
13.8752
13.8266
13.7783
13.7303
13.6825
13.635
13.5878
13.5408
13.494
13.4475
13.4012
13.3552
13.3094
13.2639
13.2186
13.1736
13.1288
13.0843
13.0401
12.9961
12.9524
12.909
12.8659
12.823
12.7804
12.7381
12.6961
12.6544
12.6129
12.5717
12.5308
12.4902
12.4498
12.4097
12.3698
12.3302
12.2909
12.2517
12.2129
12.1742
12.1357
12.0975
12.0595
12.0216
11.984
11.9466
11.9093
11.8723
11.8354
11.7988
11.7623
11.7259
11.6897
11.6537
11.6179
11.5823
11.5471
14.9179
14.8624
14.8072
14.7523
14.6977
14.6435
14.5897
14.5362
14.4831
14.4304
14.3781
14.3261
14.2745
14.2233
14.1724
14.1219
14.0717
14.0219
13.9724
13.9232
13.8743
13.8257
13.7773
13.7293
13.6815
13.634
13.5868
13.5398
13.493
13.4465
13.4002
13.3542
13.3084
13.2628
13.2175
13.1725
13.1277
13.0832
13.0389
12.9949
12.9512
12.9077
12.8645
12.8216
12.779
12.7367
12.6946
12.6529
12.6114
12.5701
12.5292
12.4885
12.4481
12.408
12.3681
12.3285
12.2891
12.25
12.2111
12.1724
12.1339
12.0957
12.0576
12.0198
11.9821
11.9447
11.9075
11.8705
11.8336
11.797
11.7605
11.7242
11.688
11.652
11.6162
11.5806
11.5455
14.9135
14.8579
14.8027
14.7478
14.6932
14.639
14.5851
14.5316
14.4785
14.4257
14.3734
14.3214
14.2698
14.2186
14.1677
14.1171
14.0669
14.0171
13.9675
13.9183
13.8694
13.8208
13.7725
13.7244
13.6766
13.6291
13.5818
13.5348
13.488
13.4415
13.3952
13.3492
13.3034
13.2578
13.2125
13.1674
13.1226
13.078
13.0337
12.9897
12.9459
12.9024
12.8592
12.8163
12.7737
12.7313
12.6892
12.6474
12.6059
12.5647
12.5237
12.483
12.4426
12.4024
12.3625
12.3229
12.2835
12.2443
12.2054
12.1667
12.1282
12.09
12.0519
12.014
11.9764
11.9389
11.9017
11.8647
11.8278
11.7911
11.7546
11.7183
11.6821
11.6461
11.6102
11.5746
11.5395
14.8983
14.8428
14.7875
14.7326
14.678
14.6238
14.57
14.5166
14.4635
14.4108
14.3585
14.3066
14.255
14.2038
14.153
14.1025
14.0523
14.0025
13.953
13.9038
13.855
13.8064
13.7581
13.7101
13.6623
13.6148
13.5676
13.5206
13.4739
13.4274
13.3811
13.3351
13.2893
13.2438
13.1985
13.1535
13.1087
13.0642
13.0199
12.9759
12.9322
12.8888
12.8456
12.8027
12.7601
12.7178
12.6758
12.634
12.5925
12.5514
12.5105
12.4698
12.4294
12.3893
12.3495
12.3099
12.2706
12.2315
12.1926
12.1539
12.1155
12.0773
12.0393
12.0015
11.9639
11.9265
11.8893
11.8523
11.8154
11.7788
11.7423
11.706
11.6698
11.6338
11.598
11.5624
11.5273
14.8627
14.8073
14.7522
14.6974
14.6431
14.589
14.5354
14.4822
14.4293
14.3768
14.3248
14.2731
14.2218
14.1708
14.1202
14.0699
14.0199
13.9703
13.921
13.8721
13.8234
13.775
13.7269
13.6791
13.6315
13.5842
13.5371
13.4903
13.4437
13.3974
13.3513
13.3054
13.2598
13.2145
13.1693
13.1244
13.0798
13.0355
12.9914
12.9475
12.904
12.8607
12.8177
12.775
12.7326
12.6904
12.6486
12.607
12.5657
12.5247
12.484
12.4436
12.4034
12.3635
12.3238
12.2844
12.2453
12.2063
12.1677
12.1292
12.0909
12.0529
12.015
11.9774
11.9399
11.9027
11.8657
11.8288
11.7921
11.7556
11.7192
11.683
11.647
11.6111
11.5754
11.5399
11.5049
14.7986
14.7435
14.6889
14.6346
14.5806
14.5271
14.4739
14.4212
14.3688
14.3168
14.2653
14.2141
14.1633
14.1128
14.0627
14.0129
13.9634
13.9143
13.8654
13.8169
13.7687
13.7207
13.673
13.6256
13.5785
13.5315
13.4849
13.4384
13.3922
13.3463
13.3005
13.255
13.2098
13.1648
13.12
13.0754
13.0311
12.9871
12.9434
12.8999
12.8567
12.8137
12.7711
12.7287
12.6867
12.6449
12.6034
12.5622
12.5212
12.4806
12.4402
12.4001
12.3603
12.3208
12.2815
12.2424
12.2036
12.1651
12.1267
12.0886
12.0507
12.013
11.9754
11.9381
11.901
11.864
11.8273
11.7907
11.7543
11.718
11.6819
11.646
11.6102
11.5745
11.539
11.5037
11.4689
14.7058
14.6515
14.5976
14.544
14.4908
14.4379
14.3855
14.3335
14.2818
14.2306
14.1798
14.1293
14.0792
14.0294
13.98
13.9309
13.8821
13.8337
13.7855
13.7376
13.6901
13.6427
13.5957
13.5489
13.5023
13.456
13.4099
13.364
13.3184
13.273
13.2278
13.1828
13.138
13.0935
13.0492
13.0052
12.9614
12.9178
12.8745
12.8315
12.7888
12.7464
12.7042
12.6623
12.6207
12.5794
12.5384
12.4977
12.4573
12.4171
12.3773
12.3377
12.2984
12.2593
12.2205
12.182
12.1437
12.1056
12.0677
12.0301
11.9927
11.9554
11.9184
11.8815
11.8448
11.8083
11.772
11.7358
11.6998
11.6639
11.6282
11.5926
11.5572
11.5219
11.4867
11.4517
11.4173
14.5984
14.5448
14.4915
14.4386
14.386
14.3338
14.282
14.2306
14.1796
14.1289
14.0786
14.0287
13.9792
13.93
13.8812
13.8326
13.7845
13.7366
13.689
13.6417
13.5947
13.5479
13.5014
13.4552
13.4091
13.3633
13.3178
13.2724
13.2273
13.1824
13.1377
13.0932
13.0489
13.0049
12.9611
12.9175
12.8742
12.8312
12.7884
12.7459
12.7036
12.6617
12.62
12.5786
12.5375
12.4967
12.4562
12.416
12.376
12.3364
12.2971
12.258
12.2192
12.1807
12.1424
12.1044
12.0666
12.029
11.9917
11.9545
11.9176
11.8808
11.8442
11.8079
11.7717
11.7356
11.6997
11.664
11.6284
11.593
11.5577
11.5225
11.4875
11.4526
11.4178
11.3832
11.3491
14.5023
14.449
14.3961
14.3435
14.2912
14.2393
14.1877
14.1365
14.0857
14.0352
13.9851
13.9353
13.8859
13.8368
13.7881
13.7397
13.6917
13.6439
13.5965
13.5494
13.5025
13.4559
13.4095
13.3635
13.3176
13.272
13.2266
13.1814
13.1365
13.0918
13.0472
13.003
12.9589
12.9151
12.8715
12.8282
12.7851
12.7423
12.6997
12.6574
12.6154
12.5737
12.5323
12.4912
12.4503
12.4098
12.3696
12.3296
12.29
12.2506
12.2116
12.1728
12.1343
12.096
12.0581
12.0203
11.9828
11.9455
11.9085
11.8716
11.835
11.7985
11.7622
11.7261
11.6902
11.6544
11.6188
11.5834
11.5481
11.5129
11.4778
11.4429
11.4082
11.3735
11.339
11.3047
11.2709
14.4334
14.3803
14.3276
14.2751
14.2228
14.1709
14.1193
14.068
14.0171
13.9665
13.9162
13.8662
13.8166
13.7674
13.7184
13.6698
13.6215
13.5735
13.5258
13.4784
13.4313
13.3845
13.338
13.2917
13.2456
13.1998
13.1543
13.1089
13.0639
13.019
12.9744
12.93
12.8859
12.842
12.7984
12.755
12.7119
12.669
12.6265
12.5842
12.5422
12.5005
12.4591
12.418
12.3772
12.3367
12.2965
12.2566
12.217
12.1776
12.1386
12.0998
12.0613
12.0231
11.9851
11.9473
11.9098
11.8725
11.8354
11.7985
11.7618
11.7253
11.689
11.6528
11.6168
11.581
11.5453
11.5098
11.4745
11.4392
11.4042
11.3692
11.3345
11.2998
11.2653
11.231
11.1973
14.3931
14.3401
14.2875
14.235
14.1828
14.1308
14.0791
14.0277
13.9766
13.9257
13.8751
13.8249
13.7749
13.7253
13.676
13.627
13.5783
13.5298
13.4817
13.4339
13.3864
13.3392
13.2922
13.2455
13.1991
13.1529
13.107
13.0613
13.0159
12.9708
12.9259
12.8813
12.8369
12.7928
12.749
12.7054
12.6622
12.6192
12.5765
12.5341
12.4919
12.4501
12.4086
12.3674
12.3265
12.2858
12.2455
12.2054
12.1657
12.1262
12.087
12.048
12.0093
11.9709
11.9327
11.8947
11.857
11.8194
11.7821
11.7449
11.708
11.6712
11.6346
11.5981
11.5619
11.5257
11.4898
11.454
11.4184
11.3829
11.3476
11.3124
11.2774
11.2425
11.2078
11.1732
11.1394
14.3768
14.3241
14.2716
14.2193
14.1671
14.1151
14.0633
14.0118
13.9604
13.9093
13.8585
13.8079
13.7576
13.7076
13.6578
13.6083
13.5592
13.5103
13.4617
13.4134
13.3653
13.3176
13.2701
13.223
13.1761
13.1295
13.0832
13.0371
12.9914
12.9459
12.9007
12.8558
12.8111
12.7668
12.7227
12.679
12.6355
12.5923
12.5495
12.5069
12.4646
12.4227
12.381
12.3396
12.2986
12.2578
12.2173
12.177
12.1371
12.0974
12.0579
12.0187
11.9798
11.941
11.9025
11.8642
11.8261
11.7882
11.7505
11.7129
11.6756
11.6384
11.6013
11.5644
11.5277
11.4912
11.4548
11.4185
11.3825
11.3466
11.3109
11.2753
11.2399
11.2047
11.1697
11.1348
11.1008
14.3801
14.3278
14.2755
14.2234
14.1713
14.1194
14.0676
14.016
13.9645
13.9133
13.8622
13.8113
13.7606
13.7102
13.66
13.6101
13.5604
13.511
13.4619
13.4131
13.3645
13.3163
13.2683
13.2207
13.1733
13.1263
13.0795
13.033
12.9869
12.9411
12.8955
12.8503
12.8054
12.7608
12.7165
12.6726
12.6289
12.5856
12.5426
12.4999
12.4575
12.4154
12.3736
12.3321
12.2909
12.2499
12.2092
12.1688
12.1286
12.0887
12.049
12.0096
11.9703
11.9313
11.8924
11.8537
11.8152
11.7769
11.7387
11.7007
11.6628
11.6251
11.5876
11.5501
11.5129
11.4758
11.439
11.4022
11.3657
11.3293
11.2931
11.2571
11.2213
11.1856
11.1502
11.115
11.0806
14.4
14.3483
14.2965
14.2447
14.1929
14.1411
14.0894
14.0378
13.9862
13.9348
13.8834
13.8322
13.7812
13.7304
13.6797
13.6293
13.5792
13.5292
13.4796
13.4302
13.3811
13.3323
13.2838
13.2356
13.1878
13.1402
13.0931
13.0462
12.9997
12.9535
12.9076
12.8622
12.817
12.7722
12.7278
12.6837
12.6399
12.5965
12.5533
12.5106
12.4681
12.426
12.3841
12.3425
12.3012
12.2602
12.2194
12.1788
12.1384
12.0983
12.0584
12.0187
11.9791
11.9397
11.9005
11.8614
11.8224
11.7836
11.7449
11.7063
11.6679
11.6296
11.5914
11.5535
11.5156
11.4779
11.4404
11.4031
11.366
11.329
11.2923
11.2558
11.2194
11.1833
11.1474
11.1118
11.0771
14.4358
14.3847
14.3336
14.2823
14.2309
14.1794
14.1279
14.0763
14.0247
13.9731
13.9215
13.87
13.8187
13.7674
13.7163
13.6654
13.6146
13.5641
13.5139
13.4639
13.4141
13.3647
13.3157
13.2669
13.2185
13.1705
13.1228
13.0755
13.0286
12.9821
12.9359
12.8902
12.8448
12.7999
12.7553
12.7111
12.6672
12.6237
12.5806
12.5378
12.4953
12.4532
12.4113
12.3697
12.3284
12.2873
12.2464
12.2057
12.1652
12.1249
12.0848
12.0448
12.0049
11.9651
11.9254
11.8859
11.8464
11.807
11.7677
11.7285
11.6894
11.6505
11.6117
11.5729
11.5344
11.496
11.4578
11.4198
11.382
11.3444
11.3071
11.27
11.2331
11.1964
11.16
11.124
11.0888
14.4888
14.4387
14.3884
14.3378
14.2869
14.2359
14.1846
14.1331
14.0815
14.0297
13.9779
13.926
13.8742
13.8224
13.7707
13.7192
13.6677
13.6165
13.5655
13.5148
13.4643
13.4142
13.3644
13.315
13.266
13.2174
13.1692
13.1214
13.0741
13.0272
12.9808
12.9348
12.8893
12.8443
12.7996
12.7554
12.7116
12.6681
12.6251
12.5824
12.54
12.498
12.4562
12.4147
12.3734
12.3323
12.2914
12.2507
12.2101
12.1696
12.1293
12.0889
12.0487
12.0084
11.9683
11.9281
11.888
11.8479
11.8079
11.7679
11.728
11.6882
11.6484
11.6089
11.5694
11.5302
11.4911
11.4523
11.4137
11.3754
11.3373
11.2995
11.262
11.2247
11.1878
11.1512
11.1157
14.5624
14.5137
14.4645
14.4149
14.3648
14.3142
14.2633
14.212
14.1603
14.1083
14.0561
14.0038
13.9514
13.899
13.8465
13.7941
13.7418
13.6897
13.6378
13.5861
13.5347
13.4837
13.4331
13.3828
13.3331
13.2838
13.235
13.1867
13.139
13.0917
13.0451
12.9989
12.9533
12.9081
12.8635
12.8194
12.7757
12.7324
12.6896
12.6471
12.605
12.5631
12.5216
12.4803
12.4391
12.3982
12.3573
12.3166
12.2759
12.2352
12.1946
12.1538
12.1131
12.0722
12.0314
11.9904
11.9495
11.9084
11.8674
11.8264
11.7854
11.7445
11.7037
11.663
11.6224
11.5821
11.542
11.5021
11.4626
11.4233
11.3844
11.3458
11.3075
11.2696
11.232
11.1949
11.1589
14.6629
14.616
14.5684
14.52
14.4708
14.421
14.3705
14.3193
14.2675
14.2152
14.1625
14.1095
14.0562
14.0028
13.9493
13.8958
13.8423
13.7889
13.7357
13.6828
13.6303
13.5781
13.5264
13.4752
13.4245
13.3745
13.325
13.2762
13.228
13.1805
13.1336
13.0874
13.0418
12.9968
12.9524
12.9086
12.8653
12.8225
12.7801
12.7381
12.6965
12.6551
12.614
12.5731
12.5323
12.4916
12.4509
12.4102
12.3694
12.3284
12.2873
12.246
12.2046
12.1629
12.121
12.0789
12.0367
11.9943
11.9519
11.9094
11.8669
11.8244
11.782
11.7398
11.6977
11.6559
11.6143
11.5731
11.5323
11.4919
11.4519
11.4123
11.3731
11.3344
11.2962
11.2584
11.222
14.7989
14.7546
14.7091
14.6625
14.6147
14.5658
14.5159
14.4649
14.4129
14.3601
14.3066
14.2526
14.1982
14.1434
14.0885
14.0334
13.9783
13.9233
13.8685
13.814
13.7599
13.7064
13.6534
13.601
13.5493
13.4984
13.4483
13.3989
13.3504
13.3028
13.256
13.21
13.1648
13.1203
13.0766
13.0335
12.9911
12.9491
12.9077
12.8666
12.8259
12.7854
12.7451
12.7049
12.6647
12.6244
12.584
12.5434
12.5024
12.461
12.4192
12.377
12.3343
12.2911
12.2476
12.2037
12.1595
12.1151
12.0705
12.0257
11.9809
11.9362
11.8916
11.8471
11.8029
11.759
11.7156
11.6726
11.6301
11.5881
11.5467
11.506
11.4658
11.4262
11.3872
11.349
11.3122
14.9864
14.9462
14.9042
14.8604
14.8148
14.7675
14.7183
14.6675
14.6151
14.5612
14.5064
14.4509
14.3946
14.3379
14.2808
14.2234
14.1661
14.1088
14.0518
13.9952
13.9392
13.8838
13.8293
13.7756
13.7229
13.6713
13.6207
13.5712
13.5229
13.4757
13.4296
13.3846
13.3407
13.2977
13.2556
13.2142
13.1736
13.1336
13.0941
13.0549
13.0161
12.9773
12.9386
12.8997
12.8607
12.8213
12.7814
12.7408
12.6994
12.6572
12.6141
12.5701
12.5252
12.4795
12.4331
12.386
12.3384
12.2903
12.242
12.1935
12.1449
12.0964
12.0481
12.0003
11.9527
11.9058
11.8595
11.8139
11.7691
11.7251
11.682
11.6398
11.5985
11.5581
11.5187
11.4802
11.4434
15.2586
15.2254
15.1894
15.1504
15.1084
15.0633
15.0153
14.9643
14.9107
14.8548
14.7975
14.7391
14.6797
14.6197
14.5591
14.4982
14.4373
14.3767
14.3165
14.257
14.1984
14.1409
14.0846
14.0297
13.9763
13.9244
13.8741
13.8254
13.7784
13.733
13.6892
13.6469
13.606
13.5665
13.528
13.4906
13.454
13.418
13.3825
13.3473
13.3122
13.2771
13.2416
13.2055
13.169
13.1313
13.0924
13.0519
13.0098
12.9658
12.9201
12.8726
12.8233
12.7726
12.7205
12.6672
12.613
12.5581
12.5028
12.4473
12.3919
12.3368
12.2822
12.2283
12.1753
12.1233
12.0726
12.023
11.9749
11.9282
11.883
11.8393
11.7971
11.7564
11.7172
11.6797
11.6442
15.667
15.6416
15.611
15.5748
15.533
15.4856
15.433
15.3758
15.3148
15.2519
15.1873
15.1215
15.0548
14.9876
14.9202
14.8531
14.7867
14.7213
14.6573
14.595
14.5345
14.4763
14.4203
14.3668
14.3159
14.2677
14.2221
14.1791
14.1386
14.1007
14.065
14.0314
13.9998
13.9698
13.9412
13.9138
13.8871
13.8609
13.8348
13.8085
13.7817
13.754
13.7254
13.695
13.6622
13.6263
13.5871
13.5441
13.4973
13.4466
13.3921
13.3341
13.273
13.209
13.1428
13.0749
13.0059
12.9362
12.8665
12.7972
12.7288
12.6617
12.5964
12.5329
12.4718
12.4131
12.3571
12.3038
12.2534
12.2059
12.1614
12.1198
12.0812
12.0457
12.0131
11.9837
16.4363
16.4309
16.4137
16.3856
16.3461
16.2959
16.2356
16.1669
16.0921
16.0148
15.9355
15.8547
15.7732
15.6916
15.6106
15.5309
15.453
15.3777
15.3054
15.2365
15.1715
15.1107
15.0542
15.0024
14.9552
14.9128
14.8752
14.8423
14.8139
14.7899
14.7701
14.754
14.7414
14.7319
14.725
14.7201
14.7169
14.7147
14.7128
14.711
14.7083
14.7042
14.6983
14.6886
14.6732
14.6509
14.6206
14.5816
14.5332
14.4756
14.4089
14.3338
14.2511
14.162
14.0676
13.9693
13.8686
13.7668
13.6652
13.5649
13.4672
13.3729
13.2828
13.1976
13.1179
13.044
12.9763
12.9151
12.8605
12.8127
12.7717
12.7376
12.7106
12.6907
12.6778
12.6714
17.927
17.9308
17.907
17.8605
17.7923
17.7046
17.6016
17.4893
17.3743
17.2573
17.1395
17.0222
16.9068
16.7945
16.6864
16.5835
16.4869
16.3972
16.3152
16.2415
16.1765
16.1207
16.0743
16.0376
16.0105
15.9934
15.986
15.9883
16.0003
16.0215
16.0518
16.0906
16.1374
16.1917
16.2527
16.3196
16.3913
16.4668
16.545
16.6232
16.7029
16.7784
16.8447
16.897
16.9312
16.9441
16.9335
16.898
16.8376
16.7531
16.6462
16.5194
16.3758
16.2188
16.052
15.8791
15.7037
15.5291
15.3585
15.1944
15.0392
14.8952
14.7637
14.6463
14.544
14.4578
14.3882
14.3359
14.3011
14.284
14.2853
14.3051
14.3436
14.4007
14.4732
20.9258
20.8938
20.8024
20.6688
20.4988
20.3023
20.0939
19.8828
19.6718
19.4635
19.2607
19.0657
18.8808
18.7079
18.549
18.4054
18.2785
18.1694
18.0793
18.009
17.9593
17.9312
17.9255
17.9429
17.9843
18.0506
18.1425
18.2608
18.4061
18.5787
18.7786
19.0055
19.2584
19.5361
19.8362
20.1546
20.4895
20.8335
21.182
21.5311
21.8625
22.1615
22.4159
22.6162
22.7555
22.8303
22.8399
22.7861
22.6731
22.507
22.2949
22.0453
21.7668
21.4681
21.158
20.8446
20.5356
20.2377
19.9571
19.6991
19.468
19.268
19.102
18.9723
18.8809
18.8295
18.8186
18.8485
18.9198
19.0325
19.1855
19.3773
19.6058
19.8613
26.7922
26.563
26.2498
25.8674
25.4393
24.9993
24.5609
24.1304
23.7137
23.3157
22.9414
22.595
22.2804
22.0008
21.7592
21.5582
21.4006
21.2889
21.2262
21.2158
21.2613
21.3667
21.5364
21.7747
22.0858
22.4734
22.94
23.4871
24.1138
24.8172
25.5916
26.4283
27.3168
28.2422
29.1901
30.1422
31.0742
31.9819
32.8283
33.586
34.2345
34.7604
35.1567
35.4224
35.5612
35.5809
35.4921
35.3077
35.042
34.71
34.327
33.9075
33.466
33.0157
32.5689
32.1363
31.728
31.3516
31.0142
30.7217
30.4775
30.2846
30.1443
30.0567
30.0205
30.0339
30.0951
30.201
30.3465
30.5285
30.7412
30.9797
31.2346
38.1296
37.5716
36.8534
36.0074
35.0832
34.1542
33.234
32.3368
31.4763
30.6652
29.9145
29.234
28.6323
28.1174
27.6971
27.3794
27.1729
27.0871
27.1322
27.3188
27.6573
28.1566
28.8231
29.6593
30.6626
31.825
33.1328
34.5665
36.1021
37.7117
39.3647
41.0302
42.6756
44.2688
45.7851
47.1927
48.4724
49.6089
50.5721
51.3547
51.9571
52.3851
52.6491
52.7621
52.7394
52.5971
52.3517
52.02
51.6179
51.1608
50.6631
50.1377
49.5962
49.0492
48.5057
47.9728
47.4569
46.9616
46.4921
46.0481
45.6327
45.2509
44.8975
44.5687
44.263
43.9797
43.7162
43.4676
43.2332
43.0158
42.8122
42.6217
42.4564
58.5459
57.4659
55.9984
54.3262
52.5136
50.7045
48.8961
47.126
45.4305
43.8426
42.3922
41.1061
40.0089
39.1233
38.4705
38.07
37.9387
38.0891
38.5272
39.2506
40.247
41.494
42.9598
44.6054
46.3868
48.2581
50.1737
52.0904
53.9695
55.7768
57.4834
59.0662
60.5053
61.7897
62.9064
63.8481
64.6238
65.212
65.6257
65.8782
65.9836
65.9558
65.8086
65.5551
65.2081
64.7799
64.2818
63.7249
63.1192
62.4744
61.7984
61.0997
60.3851
59.6604
58.9311
58.2013
57.4742
56.753
56.0397
55.3365
54.6453
53.9672
53.3022
52.6509
52.016
51.3947
50.7882
50.1981
49.6246
49.0646
48.523
48.0053
47.5497
89.4046
87.1956
84.5652
81.7969
78.876
75.858
72.8259
69.8699
67.0771
64.5268
62.2873
60.4126
58.9408
57.8922
57.2684
57.053
57.2124
57.7001
58.4607
59.4348
60.5633
61.7911
63.0694
64.3561
65.6169
66.8236
67.9543
68.9917
69.923
70.7393
71.4327
71.9997
72.4388
72.7461
72.9276
72.9799
72.9054
72.7168
72.4254
72.0415
71.5745
71.0337
70.4274
69.7643
69.0523
68.2991
67.5121
66.6982
65.8639
65.0148
64.1565
63.2936
62.4308
61.5717
60.7191
59.8754
59.0438
58.225
57.4203
56.6308
55.8565
55.0981
54.3559
53.6296
52.9207
52.2289
51.5545
50.8982
50.2604
49.6423
49.0493
48.5329
129.427
126.977
124.095
120.532
116.388
111.82
107.031
102.263
97.7064
93.5074
89.7615
86.5203
83.7971
81.5759
79.8214
78.4857
77.515
76.8533
76.4451
76.2379
76.1827
76.2353
76.3568
76.5133
76.6763
76.8219
76.9304
76.9867
76.9784
76.8967
76.7356
76.4896
76.1585
75.7417
75.2406
74.6638
74.0195
73.3157
72.56
71.7598
70.9225
70.055
69.164
68.2561
67.337
66.4122
65.4867
64.5647
63.6498
62.7452
61.8545
60.9788
60.1196
59.278
58.4543
57.6491
56.8625
56.0936
55.3422
54.6084
53.8905
53.1883
52.5035
51.8355
51.183
50.545
49.921
49.311
48.716
48.1428
47.6493
153.972
149.801
145.189
140.26
135.056
129.621
124.034
118.454
113.053
107.989
103.383
99.2878
95.7245
92.69
90.1467
88.0672
86.3785
85.02
83.9298
83.0492
82.3245
81.7088
81.1616
80.6496
80.1454
79.6279
79.0803
78.4908
77.8506
77.155
76.4032
75.592
74.7302
73.8251
72.8842
71.9149
70.9243
69.9196
68.9071
67.8932
66.8834
65.8825
64.8956
63.9259
62.9766
62.0499
61.1472
60.2698
59.418
58.5918
57.7907
57.0137
56.2598
55.528
54.8163
54.1234
53.4488
52.7909
52.1461
51.5171
50.9035
50.3027
49.7134
49.1347
48.5658
48.0063
47.4561
46.9166
46.3963
45.9523
138.11
134.96
131.777
128.47
124.971
121.247
117.329
113.287
109.263
105.384
101.755
98.4857
95.6032
93.0986
90.9483
89.1108
87.5357
86.1716
84.9682
83.8806
82.8693
81.9018
80.9516
79.999
79.0282
78.0303
76.9991
75.9317
74.8312
73.6952
72.5377
71.3681
70.1933
69.0212
67.8586
66.7118
65.5863
64.4874
63.4189
62.3844
61.386
60.4253
59.5031
58.6193
57.7733
56.9634
56.1881
55.4452
54.7324
54.047
53.3869
52.7496
52.1317
51.5318
50.9486
50.3788
49.8208
49.2774
48.7451
48.2223
47.7077
47.2003
46.6995
46.2048
45.7157
45.2323
44.7563
44.2967
43.9054
120.079
118.627
117.098
115.455
113.631
111.589
109.316
106.84
104.236
101.572
98.9619
96.4968
94.2152
92.1336
90.2471
88.5335
86.9634
85.5039
84.1231
82.7929
81.4893
80.1939
78.8931
77.5782
76.2445
74.8926
73.5215
72.1399
70.7494
69.3632
67.9953
66.653
65.343
64.0718
62.8441
61.6645
60.5357
59.46
58.4383
57.4709
56.5568
55.6943
54.881
54.1138
53.3895
52.7042
52.0542
51.4358
50.8452
50.2789
49.7341
49.207
48.696
48.1997
47.714
47.239
46.7747
46.3186
45.8692
45.4256
44.9872
44.5533
44.1234
43.6971
43.2738
42.8537
42.4385
42.0376
41.6944
104.829
104.416
103.962
103.338
102.508
101.422
100.093
98.553
96.8299
95.0102
93.173
91.3601
89.5984
87.8932
86.241
84.6302
83.0463
81.4769
79.9093
78.3371
76.7539
75.1609
73.5578
71.9531
70.3482
68.7574
67.1856
65.6432
64.1475
62.7063
61.3234
60.0049
58.7527
57.5701
56.4568
55.4133
54.4376
53.528
52.6811
51.8933
51.1601
50.4768
49.8384
49.2399
48.6765
48.1431
47.6364
47.1517
46.6858
46.2363
45.8017
45.3783
44.9636
44.5577
44.1604
43.7689
43.3827
43.0009
42.623
42.2488
41.8774
41.5088
41.1421
40.7773
40.4139
40.0542
39.7065
39.4054
95.281
95.5163
95.5977
95.4875
95.1914
94.4532
93.468
92.2277
90.8213
89.2909
87.6875
86.0331
84.3453
82.6329
80.8966
79.1418
77.3651
75.5757
73.7721
71.9684
70.1658
68.3826
66.6205
64.8996
63.2245
61.6043
60.0544
58.5848
57.1931
55.8868
54.6617
53.5221
52.4621
51.4826
50.5767
49.7431
48.9746
48.2676
47.6153
47.0124
46.4532
45.9313
45.4426
44.981
44.5435
44.1248
43.725
43.3377
42.9635
42.5979
42.2407
41.8899
41.5469
41.2074
40.8733
40.5425
40.2151
39.8907
39.5682
39.249
38.9311
38.6155
38.3004
37.9869
37.6758
37.3757
37.1115
88.3882
89.0715
89.5286
89.8378
14.9114
14.8559
14.8007
14.7459
14.6914
14.6372
14.5835
14.5301
14.477
14.4244
14.3721
14.3202
14.2687
14.2175
14.1667
14.1162
14.0661
14.0163
13.9668
13.9176
13.8688
13.8202
13.7719
13.7239
13.6762
13.6287
13.5815
13.5345
13.4878
13.4413
13.3951
13.3491
13.3034
13.2579
13.2127
13.1677
13.123
13.0786
13.0344
12.9905
12.9468
12.9034
12.8604
12.8175
12.775
12.7328
12.6908
12.6491
12.6077
12.5665
12.5256
12.485
12.4447
12.4046
12.3647
12.3251
12.2858
12.2467
12.2078
12.1691
12.1307
12.0925
12.0544
12.0166
11.979
11.9416
11.9044
11.8674
11.8305
11.7939
11.7574
11.7211
11.6849
11.649
11.6132
11.5775
11.5424
14.9109
14.8554
14.8002
14.7454
14.6909
14.6367
14.5829
14.5294
14.4764
14.4237
14.3714
14.3194
14.2679
14.2167
14.1658
14.1153
14.0651
14.0153
13.9658
13.9166
13.8678
13.8192
13.7709
13.7229
13.6751
13.6276
13.5804
13.5335
13.4867
13.4403
13.394
13.348
13.3023
13.2568
13.2116
13.1666
13.1218
13.0773
13.0331
12.9892
12.9455
12.9021
12.859
12.8161
12.7736
12.7313
12.6893
12.6475
12.6061
12.5649
12.524
12.4834
12.443
12.4029
12.363
12.3234
12.284
12.2449
12.206
12.1673
12.1289
12.0907
12.0526
12.0148
11.9772
11.9398
11.9026
11.8655
11.8287
11.7921
11.7556
11.7193
11.6832
11.6472
11.6115
11.5759
11.5408
14.9065
14.851
14.7957
14.7408
14.6863
14.6321
14.5783
14.5248
14.4717
14.419
14.3667
14.3147
14.2631
14.2119
14.161
14.1105
14.0603
14.0104
13.9609
13.9117
13.8628
13.8142
13.7659
13.7179
13.6701
13.6226
13.5754
13.5284
13.4817
13.4352
13.3889
13.3429
13.2972
13.2517
13.2064
13.1614
13.1166
13.0721
13.0279
12.9839
12.9402
12.8968
12.8536
12.8108
12.7682
12.7258
12.6838
12.6421
12.6006
12.5594
12.5184
12.4778
12.4374
12.3972
12.3573
12.3177
12.2783
12.2392
12.2003
12.1616
12.1231
12.0849
12.0468
12.009
11.9714
11.934
11.8967
11.8597
11.8229
11.7862
11.7497
11.7134
11.6772
11.6412
11.6054
11.5698
11.5347
14.8914
14.8359
14.7807
14.7258
14.6712
14.6171
14.5633
14.5098
14.4568
14.4041
14.3518
14.2999
14.2483
14.1971
14.1463
14.0958
14.0457
13.9959
13.9464
13.8972
13.8483
13.7998
13.7515
13.7035
13.6558
13.6083
13.5611
13.5142
13.4675
13.421
13.3748
13.3288
13.2831
13.2376
13.1924
13.1474
13.1027
13.0582
13.014
12.9701
12.9264
12.883
12.8399
12.7971
12.7545
12.7122
12.6703
12.6285
12.5871
12.546
12.5051
12.4645
12.4241
12.384
12.3442
12.3046
12.2653
12.2262
12.1874
12.1487
12.1103
12.0721
12.0341
11.9963
11.9587
11.9214
11.8842
11.8472
11.8104
11.7737
11.7373
11.701
11.6649
11.6289
11.5931
11.5575
11.5225
14.8561
14.8007
14.7456
14.6909
14.6365
14.5825
14.5289
14.4756
14.4228
14.3703
14.3182
14.2665
14.2152
14.1642
14.1136
14.0633
14.0133
13.9637
13.9144
13.8654
13.8168
13.7684
13.7203
13.6724
13.6249
13.5776
13.5306
13.4838
13.4372
13.3909
13.3449
13.299
13.2535
13.2081
13.1631
13.1182
13.0737
13.0293
12.9853
12.9415
12.898
12.8548
12.8119
12.7692
12.7268
12.6847
12.6429
12.6014
12.5601
12.5192
12.4785
12.438
12.3979
12.358
12.3184
12.279
12.2398
12.2009
12.1622
12.1238
12.0855
12.0475
12.0097
11.9721
11.9346
11.8974
11.8604
11.8235
11.7869
11.7504
11.714
11.6779
11.6418
11.606
11.5703
11.5348
11.4999
14.7921
14.7371
14.6824
14.6281
14.5742
14.5206
14.4675
14.4147
14.3623
14.3103
14.2587
14.2075
14.1567
14.1062
14.056
14.0062
13.9567
13.9076
13.8587
13.8102
13.7619
13.7139
13.6662
13.6188
13.5717
13.5247
13.4781
13.4317
13.3855
13.3395
13.2938
13.2483
13.2031
13.1581
13.1134
13.0689
13.0246
12.9807
12.9369
12.8935
12.8503
12.8074
12.7648
12.7225
12.6805
12.6387
12.5973
12.5561
12.5152
12.4746
12.4342
12.3942
12.3544
12.3148
12.2755
12.2365
12.1977
12.1591
12.1208
12.0827
12.0448
12.0071
11.9696
11.9323
11.8952
11.8583
11.8215
11.785
11.7486
11.7123
11.6763
11.6403
11.6046
11.569
11.5335
11.4982
11.4635
14.6992
14.6449
14.5909
14.5373
14.4841
14.4312
14.3787
14.3267
14.275
14.2237
14.1729
14.1223
14.0722
14.0224
13.9729
13.9238
13.875
13.8265
13.7783
13.7304
13.6828
13.6354
13.5883
13.5415
13.4949
13.4486
13.4025
13.3566
13.311
13.2656
13.2204
13.1754
13.1307
13.0862
13.0419
12.9979
12.9542
12.9106
12.8674
12.8244
12.7818
12.7393
12.6972
12.6554
12.6138
12.5726
12.5316
12.4909
12.4505
12.4104
12.3705
12.3309
12.2916
12.2526
12.2138
12.1752
12.137
12.0989
12.061
12.0234
11.986
11.9488
11.9117
11.8749
11.8382
11.8018
11.7655
11.7293
11.6933
11.6575
11.6218
11.5862
11.5508
11.5156
11.4805
11.4455
11.4111
14.591
14.5373
14.484
14.431
14.3784
14.3262
14.2744
14.2229
14.1718
14.1211
14.0708
14.0209
13.9713
13.9221
13.8732
13.8246
13.7764
13.7284
13.6808
13.6335
13.5864
13.5396
13.4931
13.4468
13.4008
13.355
13.3094
13.264
13.2189
13.174
13.1293
13.0848
13.0406
12.9966
12.9528
12.9093
12.866
12.8229
12.7802
12.7377
12.6955
12.6535
12.6119
12.5705
12.5295
12.4887
12.4482
12.408
12.3681
12.3285
12.2891
12.2501
12.2113
12.1727
12.1345
12.0964
12.0587
12.0211
11.9838
11.9467
11.9097
11.873
11.8365
11.8001
11.764
11.728
11.6921
11.6564
11.6209
11.5855
11.5502
11.5151
11.4801
11.4453
11.4106
11.376
11.342
14.4935
14.4402
14.3873
14.3346
14.2823
14.2304
14.1787
14.1275
14.0766
14.0261
13.9759
13.9261
13.8767
13.8276
13.7788
13.7304
13.6823
13.6345
13.587
13.5398
13.4929
13.4463
13.3999
13.3538
13.3079
13.2623
13.2169
13.1718
13.1268
13.0821
13.0376
12.9934
12.9493
12.9055
12.862
12.8187
12.7756
12.7328
12.6903
12.6481
12.6061
12.5644
12.523
12.4819
12.4411
12.4006
12.3604
12.3205
12.2809
12.2415
12.2025
12.1637
12.1252
12.087
12.049
12.0113
11.9738
11.9365
11.8995
11.8627
11.8261
11.7896
11.7534
11.7173
11.6814
11.6457
11.6101
11.5747
11.5394
11.5043
11.4693
11.4345
11.3997
11.3651
11.3307
11.2964
11.2627
14.4231
14.3699
14.3171
14.2645
14.2123
14.1603
14.1087
14.0574
14.0064
13.9557
13.9054
13.8554
13.8058
13.7565
13.7075
13.6588
13.6105
13.5625
13.5148
13.4674
13.4203
13.3734
13.3269
13.2806
13.2345
13.1887
13.1432
13.0979
13.0528
13.008
12.9634
12.9191
12.875
12.8311
12.7875
12.7442
12.7011
12.6584
12.6158
12.5736
12.5317
12.49
12.4486
12.4076
12.3668
12.3263
12.2861
12.2462
12.2066
12.1673
12.1283
12.0895
12.0511
12.0128
11.9749
11.9371
11.8997
11.8624
11.8253
11.7885
11.7518
11.7154
11.6791
11.643
11.607
11.5712
11.5356
11.5002
11.4649
11.4297
11.3947
11.3598
11.3251
11.2905
11.2561
11.2218
11.1881
14.3807
14.3277
14.275
14.2225
14.1702
14.1182
14.0664
14.015
13.9638
13.9129
13.8624
13.8121
13.7621
13.7124
13.6631
13.6141
13.5653
13.5169
13.4688
13.421
13.3735
13.3262
13.2793
13.2326
13.1862
13.1401
13.0942
13.0486
13.0033
12.9582
12.9133
12.8688
12.8245
12.7804
12.7367
12.6932
12.65
12.6071
12.5644
12.5221
12.48
12.4383
12.3968
12.3557
12.3148
12.2742
12.2339
12.1939
12.1542
12.1147
12.0756
12.0367
11.998
11.9596
11.9215
11.8835
11.8458
11.8083
11.771
11.7339
11.697
11.6603
11.6237
11.5873
11.5511
11.515
11.4791
11.4434
11.4078
11.3724
11.3371
11.302
11.2671
11.2323
11.1976
11.1632
11.1294
14.3621
14.3093
14.2567
14.2043
14.152
14.1
14.0482
13.9966
13.9452
13.8941
13.8433
13.7927
13.7423
13.6923
13.6425
13.5931
13.5439
13.495
13.4465
13.3982
13.3502
13.3025
13.2551
13.208
13.1612
13.1146
13.0684
13.0224
12.9767
12.9313
12.8862
12.8414
12.7968
12.7526
12.7086
12.6649
12.6216
12.5785
12.5357
12.4932
12.4511
12.4092
12.3676
12.3263
12.2853
12.2446