/*--------------------------------*- C++ -*----------------------------------*\
  =========                 |
  \\      /  F ield         | OpenFOAM: The Open Source CFD Toolbox
   \\    /   O peration     | Website:  https://openfoam.org
    \\  /    A nd           | Version:  13
     \\/     M anipulation  |
\*---------------------------------------------------------------------------*/
FoamFile
{
    format      ascii;
    class       volScalarField;
    location    "1000";
    object      p;
}
// * * * * * * * * * * * * * * * * * * * * * * * * * * * * * * * * * * * * * //

dimensions      [0 2 -2 0 0 0 0];

internalField   nonuniform List<scalar> 
172836
(
-0.629582
-0.562434
-0.495845
-0.430114
-0.365573
-0.30225
-0.240108
-0.179145
-0.629787
-0.562734
-0.49626
-0.430657
-0.366159
-0.302827
-0.240612
-0.17954
-0.696587
-0.6294
-0.562452
-0.49611
-0.430623
-0.366194
-0.302866
-0.240629
-0.179509
-0.695314
-0.628347
-0.561637
-0.495502
-0.430183
-0.365871
-0.302619
-0.240446
-0.179383
-0.693457
-0.626796
-0.56039
-0.494536
-0.429447
-0.365301
-0.30218
-0.240121
-0.179155
-0.691165
-0.624906
-0.558877
-0.493367
-0.428553
-0.364616
-0.301651
-0.239723
-0.178875
-0.688461
-0.622693
-0.557149
-0.492049
-0.427574
-0.363878
-0.301096
-0.239301
-0.178563
-0.685503
-0.620097
-0.555254
-0.490685
-0.426614
-0.363239
-0.300672
-0.239034
-0.178405
-0.617376
-0.552982
-0.488959
-0.42542
-0.362452
-0.300206
-0.238796
-0.178306
-0.83139
-0.763182
-0.695445
-0.628114
-0.560983
-0.494655
-0.429231
-0.364952
-0.301834
-0.239885
-0.179062
-0.119356
-0.0623769
-0.831152
-0.76296
-0.695456
-0.628237
-0.561322
-0.495154
-0.429855
-0.365604
-0.302476
-0.240451
-0.179511
-0.119632
-0.0612974
-0.830116
-0.762184
-0.694767
-0.627703
-0.56112
-0.495125
-0.429932
-0.365735
-0.302604
-0.240551
-0.179557
-0.119514
-0.060913
-0.828245
-0.760599
-0.693408
-0.626588
-0.560273
-0.494511
-0.429499
-0.365432
-0.302392
-0.240414
-0.17947
-0.119429
-0.0608124
-0.825542
-0.758295
-0.691436
-0.624929
-0.558947
-0.493487
-0.428732
-0.364859
-0.301978
-0.240128
-0.179286
-0.119308
-0.0607256
-0.822129
-0.755396
-0.688965
-0.622883
-0.557306
-0.492234
-0.427786
-0.364164
-0.301468
-0.239775
-0.179052
-0.119174
-0.0606716
-0.81804
-0.751935
-0.686082
-0.62048
-0.555435
-0.490811
-0.426759
-0.363417
-0.300947
-0.239407
-0.178807
-0.11903
-0.0606169
-0.813404
-0.748082
-0.682741
-0.617815
-0.553365
-0.489328
-0.425726
-0.36276
-0.300538
-0.239188
-0.178709
-0.119009
-0.0606405
-0.808416
-0.743662
-0.679234
-0.615035
-0.551099
-0.487644
-0.424607
-0.362046
-0.300153
-0.239021
-0.178682
-0.119088
-0.0607027
-0.0611394
-8.00799
-8.14013
-8.24801
-8.33201
-8.39266
-8.43061
-8.44664
-8.44165
-8.41669
-8.37283
-8.31117
-8.23283
-8.13892
-8.0306
-7.90905
-7.77549
-7.63114
-7.47716
-7.31466
-7.14469
-6.96823
-6.78625
-6.59971
-6.40953
-6.21663
-6.02188
-5.82614
-5.63018
-5.43475
-5.24047
-5.04791
-4.85757
-4.66994
-4.48542
-4.30441
-4.12723
-3.95418
-3.78553
-3.62148
-3.46218
-3.30768
-3.15801
-3.01316
-2.87311
-2.73781
-2.60717
-2.48112
-2.35959
-2.24247
-2.12963
-2.02092
-1.91613
-1.8151
-1.71766
-1.62364
-1.53282
-1.44498
-1.35987
-1.27727
-1.19699
-1.11893
-1.04303
-0.969349
-0.897949
-0.828559
-0.760446
-0.693163
-0.626201
-0.559578
-0.493539
-0.428375
-0.364314
-0.30143
-0.239696
-0.179112
-0.119652
-0.0629079
-8.03511
-8.16701
-8.2745
-8.35799
-8.41801
-8.45523
-8.47042
-8.46452
-8.43857
-8.39367
-8.33092
-8.25144
-8.15638
-8.04687
-7.92411
-7.78933
-7.64374
-7.48852
-7.32479
-7.15362
-6.97601
-6.79293
-6.60534
-6.41417
-6.22032
-6.02467
-5.82806
-5.63128
-5.43506
-5.24005
-5.04682
-4.85588
-4.66772
-4.48274
-4.30133
-4.1238
-3.95045
-3.78154
-3.61727
-3.45779
-3.30317
-3.15343
-3.00857
-2.86857
-2.73336
-2.60286
-2.47697
-2.35561
-2.23867
-2.12603
-2.01751
-1.91295
-1.81216
-1.71498
-1.62122
-1.53066
-1.44308
-1.35823
-1.27588
-1.19585
-1.11803
-1.04236
-0.96885
-0.897577
-0.828299
-0.760334
-0.693114
-0.626376
-0.559953
-0.494086
-0.429032
-0.365006
-0.302094
-0.24029
-0.17958
-0.119957
-0.0618271
-8.08859
-8.22007
-8.32687
-8.4094
-8.46822
-8.50401
-8.51759
-8.50991
-8.48203
-8.43508
-8.37018
-8.28848
-8.19111
-8.07925
-7.95412
-7.81693
-7.66893
-7.51132
-7.34524
-7.17175
-6.9919
-6.80666
-6.61699
-6.42383
-6.22808
-6.03062
-5.83229
-5.63389
-5.43614
-5.2397
-5.04516
-4.85303
-4.6638
-4.47789
-4.29566
-4.11742
-3.94347
-3.77405
-3.60937
-3.44955
-3.29469
-3.1448
-2.99989
-2.85993
-2.72484
-2.59452
-2.46887
-2.34779
-2.23115
-2.11884
-2.01068
-1.90652
-1.80616
-1.70944
-1.61614
-1.52604
-1.4389
-1.35449
-1.27258
-1.19298
-1.11559
-1.04034
-0.967215
-0.896252
-0.827241
-0.759428
-0.692434
-0.625873
-0.559681
-0.494007
-0.429089
-0.365139
-0.302253
-0.240441
-0.179682
-0.119885
-0.0614652
-8.16949
-8.30029
-8.40599
-8.48704
-8.54403
-8.57765
-8.58878
-8.57841
-8.54762
-8.49759
-8.42945
-8.34438
-8.24355
-8.12815
-7.99942
-7.85862
-7.70701
-7.54583
-7.37621
-7.19927
-7.01604
-6.82754
-6.63472
-6.43854
-6.2399
-6.03969
-5.83875
-5.63789
-5.43784
-5.23926
-5.04275
-4.84883
-4.658
-4.47067
-4.28719
-4.10789
-3.93302
-3.76283
-3.59751
-3.4372
-3.28197
-3.13186
-2.98686
-2.84692
-2.71197
-2.58188
-2.45655
-2.33585
-2.21966
-2.10783
-2.00021
-1.89663
-1.79692
-1.70086
-1.60824
-1.51882
-1.43234
-1.34857
-1.26729
-1.18832
-1.11155
-1.03691
-0.964353
-0.893878
-0.825253
-0.757738
-0.690989
-0.624677
-0.558755
-0.493334
-0.428627
-0.364838
-0.302072
-0.240351
-0.179644
-0.119834
-0.0613855
-8.27799
-8.40782
-8.51201
-8.59105
-8.64556
-8.67628
-8.68413
-8.67015
-8.63547
-8.58129
-8.50881
-8.41922
-8.31373
-8.19357
-8.06002
-7.91438
-7.75794
-7.59196
-7.41762
-7.23604
-7.0483
-6.8554
-6.65835
-6.4581
-6.25558
-6.05167
-5.84724
-5.64309
-5.43997
-5.23854
-5.03941
-4.84312
-4.65015
-4.46092
-4.27579
-4.09504
-3.91895
-3.74774
-3.5816
-3.42064
-3.26494
-3.11453
-2.9694
-2.82949
-2.69471
-2.56492
-2.44
-2.31981
-2.2042
-2.09303
-1.98614
-1.88335
-1.78449
-1.68932
-1.59761
-1.50908
-1.42349
-1.34058
-1.26013
-1.18198
-1.10602
-1.03216
-0.960324
-0.890479
-0.822386
-0.755283
-0.688884
-0.622908
-0.557333
-0.492241
-0.427819
-0.36426
-0.301682
-0.24011
-0.179508
-0.119753
-0.0613237
-8.41507
-8.54363
-8.64586
-8.72231
-8.77365
-8.80068
-8.80437
-8.78582
-8.7462
-8.68679
-8.6088
-8.51349
-8.4021
-8.27592
-8.13627
-7.9845
-7.82195
-7.64991
-7.4696
-7.28217
-7.08872
-6.89028
-6.68788
-6.48249
-6.27505
-6.06648
-5.85764
-5.64936
-5.44238
-5.23738
-5.03497
-4.83571
-4.64006
-4.44846
-4.26124
-4.07869
-3.90107
-3.72859
-3.56142
-3.39966
-3.24339
-3.09263
-2.94735
-2.80749
-2.67293
-2.54352
-2.41911
-2.29956
-2.1847
-2.07437
-1.96842
-1.86665
-1.76886
-1.67482
-1.58425
-1.49686
-1.41239
-1.33057
-1.25118
-1.17405
-1.09908
-1.02616
-0.955203
-0.886169
-0.81874
-0.752186
-0.686252
-0.620718
-0.55558
-0.490897
-0.426823
-0.363547
-0.301193
-0.239797
-0.179324
-0.119665
-0.0613044
-8.58162
-8.70853
-8.80831
-8.88155
-8.92899
-8.95151
-8.95011
-8.92598
-8.88036
-8.81454
-8.72985
-8.62756
-8.509
-8.37548
-8.22841
-8.06919
-7.89921
-7.7198
-7.53223
-7.33768
-7.13728
-6.9321
-6.72319
-6.51155
-6.29815
-6.08391
-5.86973
-5.65644
-5.4448
-5.23549
-5.02914
-4.82629
-4.62742
-4.43295
-4.24322
-4.05851
-3.87905
-3.70505
-3.53666
-3.37397
-3.21704
-3.06588
-2.92045
-2.78067
-2.64639
-2.51745
-2.3937
-2.27493
-2.161
-2.05173
-1.94693
-1.84641
-1.74995
-1.65729
-1.56812
-1.48213
-1.39903
-1.31854
-1.24045
-1.16457
-1.09078
-1.01898
-0.949083
-0.880975
-0.814364
-0.74848
-0.683107
-0.61817
-0.553584
-0.489396
-0.425738
-0.362789
-0.300681
-0.239466
-0.179126
-0.119571
-0.0612977
-8.7788
-8.90369
-9.00047
-9.06983
-9.1126
-9.1297
-9.12225
-9.09147
-9.03869
-8.96528
-8.87261
-8.76205
-8.63495
-8.49274
-8.33686
-8.16879
-7.98999
-7.80184
-7.60566
-7.40267
-7.19403
-6.98086
-6.76424
-6.5452
-6.32473
-6.1038
-5.88332
-5.66412
-5.44699
-5.23263
-5.02164
-4.81459
-4.61195
-4.41414
-4.22147
-4.03423
-3.85263
-3.67687
-3.50707
-3.34332
-3.18566
-3.03407
-2.8885
-2.74884
-2.61493
-2.48659
-2.36362
-2.24583
-2.13304
-2.02504
-1.92164
-1.82263
-1.72777
-1.63675
-1.54925
-1.46494
-1.38349
-1.30461
-1.22806
-1.15366
-1.08127
-1.01078
-0.942075
-0.875055
-0.809383
-0.744239
-0.679691
-0.615392
-0.551454
-0.487845
-0.424666
-0.362086
-0.300248
-0.239226
-0.179014
-0.119561
-0.0613463
-9.00803
-9.13041
-9.22358
-9.28834
-9.32559
-9.33634
-9.32178
-9.28322
-9.22208
-9.13981
-9.03784
-8.91761
-8.78057
-8.62821
-8.46206
-8.28369
-8.0946
-7.89627
-7.69005
-7.47722
-7.25899
-7.03651
-6.81091
-6.58325
-6.35458
-6.12588
-5.89808
-5.67205
-5.44858
-5.22838
-5.01206
-4.80017
-4.59319
-4.39153
-4.1955
-4.00536
-3.82133
-3.64357
-3.47219
-3.30726
-3.1488
-2.99676
-2.85108
-2.71161
-2.57818
-2.45058
-2.32858
-2.21197
-2.10054
-1.99407
-1.89236
-1.79515
-1.70217
-1.61311
-1.5276
-1.44526
-1.36576
-1.28878
-1.21406
-1.14139
-1.07063
-1.00165
-0.934333
-0.868591
-0.803908
-0.739749
-0.676006
-0.612554
-0.549288
-0.486276
-0.423593
-0.361399
-0.299849
-0.239023
-0.17895
-0.119585
-0.0614251
-9.27084
-9.39021
-9.47911
-9.53847
-9.56928
-9.57265
-9.54987
-9.50234
-9.43155
-9.33907
-9.22638
-9.09504
-8.94656
-8.78253
-8.60458
-8.41434
-8.21344
-8.00338
-7.78562
-7.56146
-7.33219
-7.09902
-6.8631
-6.62557
-6.38749
-6.14989
-5.91373
-5.67991
-5.44922
-5.22238
-5
-4.78263
-4.57075
-4.36474
-4.16492
-3.97154
-3.78477
-3.60478
-3.43166
-3.26545
-3.10614
-2.95366
-2.80791
-2.66874
-2.53592
-2.40922
-2.2884
-2.17321
-2.0634
-1.95876
-1.85902
-1.76393
-1.67317
-1.58639
-1.5032
-1.42318
-1.34595
-1.27119
-1.19859
-1.12795
-1.05907
-0.991846
-0.926141
-0.861816
-0.798391
-0.735444
-0.672723
-0.610105
-0.547537
-0.485052
-0.42279
-0.360896
-0.299557
-0.238855
-0.178851
-0.119567
-0.0615021
-9.56925
-9.68496
-9.76883
-9.82189
-9.84527
-9.84016
-9.80795
-9.75015
-9.66837
-9.56422
-9.43934
-9.29532
-9.13382
-8.95649
-8.76508
-8.56133
-8.34694
-8.12353
-7.89259
-7.65553
-7.41369
-7.16832
-6.92067
-6.67191
-6.42314
-6.17545
-5.92984
-5.68721
-5.44837
-5.21405
-4.98486
-4.76135
-4.54397
-4.33311
-4.12907
-3.93206
-3.74228
-3.55984
-3.38482
-3.21724
-3.05704
-2.90415
-2.75842
-2.61966
-2.48763
-2.36204
-2.24264
-2.12914
-2.02127
-1.91877
-1.82137
-1.72876
-1.6406
-1.55649
-1.47599
-1.39865
-1.32408
-1.25188
-1.18176
-1.11345
-1.04676
-0.981547
-0.917722
-0.855034
-0.793157
-0.731544
-0.669991
-0.608287
-0.546452
-0.484531
-0.422666
-0.361039
-0.299848
-0.239194
-0.179131
-0.119775
-0.0616232
-9.90527
-10.0167
-10.0946
-10.1404
-10.1553
-10.1405
-10.0976
-10.0281
-9.93384
-9.81652
-9.67782
-9.5195
-9.34326
-9.15091
-8.94429
-8.72525
-8.49561
-8.25707
-8.01122
-7.75956
-7.50349
-7.24436
-6.98346
-6.72203
-6.46124
-6.20221
-5.94598
-5.69348
-5.44554
-5.20288
-4.96612
-4.73577
-4.5123
-4.29608
-4.08737
-3.8864
-3.69331
-3.50823
-3.33117
-3.16214
-3.00106
-2.84781
-2.70221
-2.56402
-2.43297
-2.30876
-2.19105
-2.07956
-1.97398
-1.874
-1.77933
-1.68961
-1.60446
-1.52344
-1.44606
-1.37183
-1.30031
-1.23108
-1.1638
-1.09818
-1.034
-0.971094
-0.909337
-0.84858
-0.788364
-0.728285
-0.667975
-0.607356
-0.546349
-0.485025
-0.423524
-0.362075
-0.30088
-0.240075
-0.179777
-0.120159
-0.0617976
-10.2815
-10.3877
-10.4589
-10.4963
-10.5014
-10.4756
-10.4206
-10.338
-10.2297
-10.0975
-9.94334
-9.76891
-9.57615
-9.3669
-9.14317
-8.90692
-8.66009
-8.40451
-8.14187
-7.87376
-7.60167
-7.32705
-7.05126
-6.77561
-6.50135
-6.22964
-5.96155
-5.69806
-5.44
-5.18809
-4.94293
-4.70504
-4.47486
-4.25274
-4.03894
-3.83363
-3.63697
-3.44903
-3.26982
-3.0993
-2.93735
-2.78382
-2.63848
-2.50108
-2.37127
-2.24871
-2.13305
-2.02395
-1.92106
-1.82405
-1.73257
-1.64622
-1.56456
-1.48712
-1.41335
-1.34271
-1.27471
-1.2089
-1.14488
-1.08235
-1.02104
-0.960767
-0.901403
-0.842714
-0.784402
-0.725964
-0.667122
-0.607659
-0.547535
-0.486788
-0.425577
-0.364143
-0.302738
-0.241565
-0.180807
-0.120755
-0.0620285
-10.7006
-10.8007
-10.864
-10.8918
-10.8859
-10.8476
-10.7789
-10.6816
-10.5575
-10.4088
-10.2373
-10.045
-9.8337
-9.60558
-9.36268
-9.10714
-8.84104
-8.56633
-8.28484
-7.99828
-7.70824
-7.41626
-7.12383
-6.83232
-6.54304
-6.25723
-5.97599
-5.70032
-5.43107
-5.16896
-4.91458
-4.66842
-4.43091
-4.20236
-3.98301
-3.77304
-3.57253
-3.38156
-3.2001
-3.02806
-2.8653
-2.71161
-2.56674
-2.43035
-2.30208
-2.18154
-2.06832
-1.96204
-1.86232
-1.76877
-1.681
-1.59855
-1.52095
-1.44764
-1.37803
-1.31152
-1.24757
-1.18567
-1.1254
-1.0664
-1.00836
-0.951061
-0.894331
-0.838027
-0.781782
-0.725197
-0.667882
-0.609658
-0.550425
-0.490208
-0.429154
-0.367539
-0.305678
-0.243867
-0.182424
-0.121723
-0.0623975
-11.1658
-11.2587
-11.3128
-11.3298
-11.3113
-11.2591
-11.175
-11.0612
-10.9197
-10.7526
-10.5618
-10.3495
-10.1176
-9.86845
-9.60416
-9.32707
-9.03939
-8.74327
-8.44066
-8.13342
-7.82329
-7.51193
-7.20091
-6.89172
-6.58576
-6.28429
-5.9885
-5.69938
-5.41781
-5.14449
-4.87999
-4.62479
-4.37927
-4.14374
-3.91841
-3.7034
-3.4988
-3.30462
-3.12082
-2.94728
-2.78379
-2.63012
-2.48593
-2.35087
-2.22452
-2.10641
-1.99611
-1.89318
-1.79719
-1.70769
-1.62424
-1.54634
-1.47343
-1.4049
-1.34008
-1.27834
-1.21904
-1.16164
-1.10566
-1.05069
-0.996371
-0.942446
-0.88875
-0.835087
-0.781168
-0.726552
-0.67089
-0.613938
-0.555547
-0.495734
-0.434663
-0.372631
-0.310034
-0.247298
-0.18487
-0.123185
-0.0629549
-11.6801
-11.7648
-11.8084
-11.8131
-11.7805
-11.7126
-11.6115
-11.4793
-11.3184
-11.1309
-10.9188
-10.6843
-10.4296
-10.157
-9.86891
-9.56776
-9.256
-8.93594
-8.60973
-8.2794
-7.94685
-7.61387
-7.28218
-6.95337
-6.62891
-6.31016
-5.99831
-5.69442
-5.39933
-5.11375
-4.83822
-4.57318
-4.31899
-4.07593
-3.84415
-3.62378
-3.41482
-3.21731
-3.03112
-2.85611
-2.69204
-2.53858
-2.39539
-2.26203
-2.13801
-2.02285
-1.91601
-1.81704
-1.72541
-1.64064
-1.56222
-1.48958
-1.4221
-1.35908
-1.2998
-1.24352
-1.18957
-1.13732
-1.08624
-1.03586
-0.985771
-0.935679
-0.88537
-0.834682
-0.783341
-0.730887
-0.676936
-0.621184
-0.563538
-0.503982
-0.442663
-0.379934
-0.316274
-0.252242
-0.188407
-0.125355
-0.0637704
-12.2475
-12.3226
-12.3544
-12.3452
-12.2968
-12.2115
-12.0915
-11.9391
-11.7567
-11.5466
-11.3109
-11.0519
-10.772
-10.4733
-10.1587
-9.83078
-9.49213
-9.14533
-8.79275
-8.43662
-8.07905
-7.72199
-7.3673
-7.01671
-6.67179
-6.33393
-6.00441
-5.68427
-5.37438
-5.07541
-4.78785
-4.51214
-4.24856
-3.99737
-3.75869
-3.53258
-3.31906
-3.11805
-2.92947
-2.75307
-2.58858
-2.43563
-2.29379
-2.16258
-2.04145
-1.92981
-1.82712
-1.7328
-1.64631
-1.56708
-1.49452
-1.428
-1.3668
-1.31017
-1.25727
-1.20731
-1.1595
-1.11317
-1.0677
-1.02255
-0.977283
-0.931525
-0.885077
-0.837771
-0.78923
-0.739064
-0.686829
-0.632318
-0.57527
-0.515717
-0.453858
-0.390073
-0.324936
-0.259137
-0.193408
-0.128369
-0.0649038
-12.8716
-12.9356
-12.9542
-12.9296
-12.8639
-12.7595
-12.6186
-12.4439
-12.2378
-12.0028
-11.7411
-11.4551
-11.147
-10.8195
-10.4754
-10.1176
-9.74895
-9.3723
-8.99027
-8.60536
-8.21989
-7.83605
-7.45584
-7.08114
-6.7136
-6.35473
-6.00579
-5.66788
-5.34182
-5.02827
-4.72768
-4.4404
-4.16672
-3.90681
-3.66075
-3.42858
-3.21025
-3.00568
-2.81469
-2.63704
-2.47237
-2.32026
-2.18023
-2.05171
-1.93408
-1.8267
-1.72891
-1.6401
-1.55962
-1.48685
-1.42112
-1.36169
-1.30779
-1.25853
-1.213
-1.1703
-1.12956
-1.09
-1.05095
-1.01178
-0.971974
-0.931144
-0.889025
-0.845381
-0.799994
-0.752276
-0.701877
-0.648358
-0.59171
-0.531903
-0.469123
-0.403832
-0.336697
-0.268537
-0.200199
-0.132563
-0.0664538
-13.5562
-13.6077
-13.6117
-13.5704
-13.486
-13.3607
-13.1972
-12.9981
-12.7661
-12.5037
-12.2134
-11.8972
-11.5581
-11.1985
-10.8215
-10.4304
-10.0282
-9.6182
-9.20327
-8.78621
-8.36963
-7.95595
-7.54739
-7.14595
-6.75344
-6.37139
-6.00113
-5.64374
-5.30003
-4.97061
-4.65586
-4.3561
-4.07152
-3.80226
-3.54835
-3.30975
-3.08641
-2.87816
-2.68484
-2.5061
-2.34156
-2.19074
-2.05304
-1.92787
-1.81451
-1.71221
-1.62027
-1.53795
-1.46456
-1.39937
-1.34161
-1.29046
-1.24503
-1.20433
-1.16734
-1.13302
-1.10042
-1.06866
-1.03696
-1.00463
-0.971059
-0.935781
-0.898523
-0.85912
-0.817024
-0.771903
-0.72318
-0.670753
-0.614252
-0.553775
-0.4896
-0.422222
-0.352414
-0.281131
-0.209428
-0.138164
-0.068546
-14.3056
-14.3428
-14.3308
-14.2718
-14.1674
-14.02
-13.8322
-13.6067
-13.3463
-13.0538
-12.7316
-12.3823
-12.0084
-11.6131
-11.1995
-10.7711
-10.3315
-9.88418
-9.43248
-8.97954
-8.52829
-8.08143
-7.6414
-7.21039
-6.79031
-6.38278
-5.98914
-5.61047
-5.24755
-4.90089
-4.57085
-4.25761
-3.96134
-3.68209
-3.41982
-3.17447
-2.9459
-2.73396
-2.53836
-2.35879
-2.19476
-2.04571
-1.91104
-1.78999
-1.68178
-1.58559
-1.50057
-1.42595
-1.36088
-1.30456
-1.25612
-1.21462
-1.17904
-1.14827
-1.12115
-1.09653
-1.07331
-1.0505
-1.02723
-1.00269
-0.976202
-0.94724
-0.915453
-0.880469
-0.842151
-0.799721
-0.752895
-0.701061
-0.644376
-0.582818
-0.516643
-0.446463
-0.373156
-0.297817
-0.221587
-0.145743
-0.0713607
-15.1241
-15.1449
-15.1163
-15.0388
-14.9139
-14.7434
-14.5299
-14.276
-13.9849
-13.6593
-13.302
-12.9155
-12.503
-12.0676
-11.6129
-11.1428
-10.6612
-10.1721
-9.67928
-9.18622
-8.69626
-8.21243
-7.73742
-7.27364
-6.82309
-6.38748
-5.96819
-5.56622
-5.18233
-4.81695
-4.47031
-4.14255
-3.83369
-3.54373
-3.27259
-3.02009
-2.78612
-2.57041
-2.3727
-2.19258
-2.02953
-1.88293
-1.75205
-1.63608
-1.53413
-1.44522
-1.36848
-1.30294
-1.24772
-1.20184
-1.16433
-1.13413
-1.11007
-1.09089
-1.07525
-1.06187
-1.04952
-1.03706
-1.02347
-1.00786
-0.989437
-0.967567
-0.941844
-0.912098
-0.87756
-0.837994
-0.792642
-0.741578
-0.684291
-0.620996
-0.552075
-0.478176
-0.400302
-0.319698
-0.23778
-0.155679
-0.075153
-16.0196
-15.9733
-15.8766
-15.7308
-15.5372
-15.2972
-15.0134
-14.6889
-14.3271
-13.9307
-13.5029
-13.0468
-12.5663
-12.0654
-11.5484
-11.0197
-10.4837
-9.94474
-9.40681
-8.87365
-8.34865
-7.8348
-7.33472
-6.85055
-6.38406
-5.93661
-5.50921
-5.10248
-4.71678
-4.35221
-4.00877
-3.68642
-3.38503
-3.10443
-2.84445
-2.60485
-2.3854
-2.18575
-2.00545
-1.84395
-1.70054
-1.57443
-1.46466
-1.37022
-1.29008
-1.22315
-1.16841
-1.1248
-1.09122
-1.06657
-1.04961
-1.03904
-1.03338
-1.03113
-1.0308
-1.03102
-1.03049
-1.02804
-1.02263
-1.01339
-0.999598
-0.980744
-0.956265
-0.926166
-0.88945
-0.845924
-0.794751
-0.73632
-0.670617
-0.598
-0.519258
-0.435525
-0.348214
-0.25879
-0.169
-0.0803574
-16.9707
-16.9064
-16.7918
-16.6263
-16.4101
-16.1435
-15.8287
-15.4687
-15.067
-14.6272
-14.1526
-13.6474
-13.1159
-12.5626
-11.9926
-11.4107
-10.8219
-10.231
-9.64273
-9.06118
-8.49018
-7.93306
-7.39265
-6.87125
-6.37067
-5.89229
-5.43699
-5.00534
-4.59751
-4.21349
-3.85314
-3.51623
-3.20258
-2.91192
-2.64399
-2.39859
-2.17534
-1.97395
-1.79391
-1.63461
-1.4953
-1.37507
-1.27285
-1.18751
-1.11784
-1.06267
-1.02077
-0.990962
-0.971987
-0.962551
-0.961249
-0.96655
-0.976805
-0.990261
-1.00521
-1.02008
-1.03341
-1.04386
-1.05024
-1.0515
-1.04679
-1.03549
-1.01742
-0.991608
-0.95794
-0.915414
-0.864326
-0.804022
-0.734862
-0.657366
-0.572365
-0.481128
-0.38526
-0.286639
-0.186706
-0.0879668
-17.9244
-17.7941
-17.611
-17.373
-17.0802
-16.7334
-16.3353
-15.8899
-15.401
-14.8736
-14.3124
-13.7228
-13.1101
-12.4799
-11.8378
-11.1894
-10.5402
-9.89526
-9.25946
-8.63701
-8.03159
-7.44631
-6.88363
-6.34541
-5.83294
-5.34708
-4.88818
-4.45628
-4.05117
-3.6725
-3.31995
-2.99314
-2.69173
-2.41544
-2.16394
-1.93695
-1.73404
-1.55476
-1.39847
-1.26433
-1.15136
-1.05834
-0.983968
-0.926923
-0.885834
-0.859345
-0.846023
-0.844451
-0.853149
-0.870458
-0.894595
-0.92365
-0.955634
-0.988547
-1.02056
-1.05002
-1.07541
-1.09532
-1.10857
-1.11422
-1.11153
-1.09974
-1.07902
-1.04813
-1.00694
-0.954442
-0.891289
-0.817497
-0.73358
-0.640535
-0.539801
-0.433244
-0.322844
-0.211051
-0.100147
-18.8925
-18.6959
-18.4404
-18.1227
-17.7431
-17.3039
-16.8095
-16.2653
-15.6772
-15.0518
-14.3955
-13.7149
-13.0163
-12.3059
-11.5902
-10.875
-10.1664
-9.46964
-8.78946
-8.12999
-7.49459
-6.88591
-6.30585
-5.75569
-5.23606
-4.74719
-4.28887
-3.86069
-3.46212
-3.09257
-2.75155
-2.43864
-2.15345
-1.89569
-1.665
-1.46101
-1.28321
-1.13104
-1.00361
-0.899739
-0.818115
-0.757294
-0.715719
-0.691864
-0.684152
-0.690937
-0.710509
-0.741152
-0.780953
-0.827769
-0.879359
-0.933432
-0.987667
-1.03992
-1.08831
-1.13105
-1.16653
-1.19337
-1.21047
-1.21697
-1.21268
-1.19646
-1.16821
-1.12673
-1.07257
-1.00509
-0.924787
-0.832342
-0.728814
-0.615825
-0.495526
-0.370764
-0.244178
-0.120987
-19.8973
-19.6286
-19.2881
-18.875
-18.3909
-17.8414
-17.2333
-16.5749
-15.8748
-15.1415
-14.3827
-13.6059
-12.818
-12.0259
-11.2365
-10.4562
-9.691
-8.94621
-8.22633
-7.53508
-6.87528
-6.24884
-5.65692
-5.10006
-4.5782
-4.09095
-3.63758
-3.21737
-2.82957
-2.47344
-2.14852
-1.85437
-1.5906
-1.35695
-1.15301
-0.978397
-0.832503
-0.714416
-0.622831
-0.556158
-0.512841
-0.491099
-0.489094
-0.505037
-0.537003
-0.582863
-0.640541
-0.707777
-0.782014
-0.860524
-0.940681
-1.01975
-1.09525
-1.16499
-1.22689
-1.27909
-1.32006
-1.34868
-1.36401
-1.36525
-1.35254
-1.32441
-1.28091
-1.22124
-1.14625
-1.05601
-0.951261
-0.833271
-0.703772
-0.565169
-0.420672
-0.275763
-0.140566
-21.2254
-20.9531
-20.5942
-20.1472
-19.6144
-19.0023
-18.3204
-17.5798
-16.7924
-15.9693
-15.12
-14.2532
-13.3765
-12.4976
-11.6239
-10.7627
-9.92061
-9.10356
-8.31638
-7.56309
-6.84672
-6.16915
-5.53147
-4.93386
-4.37606
-3.85747
-3.37713
-2.93415
-2.52742
-2.15624
-1.81988
-1.51793
-1.25018
-1.01602
-0.815299
-0.6478
-0.512706
-0.408934
-0.334932
-0.28886
-0.268765
-0.272599
-0.298259
-0.343391
-0.405831
-0.48285
-0.571944
-0.670327
-0.774901
-0.882656
-0.990255
-1.09482
-1.19355
-1.28395
-1.36353
-1.43046
-1.48327
-1.5203
-1.54095
-1.54548
-1.53224
-1.50125
-1.45193
-1.38521
-1.30035
-1.19806
-1.07946
-0.945509
-0.797702
-0.638353
-0.470818
-0.300134
-0.141642
-22.6801
-22.4091
-22.0372
-21.5584
-20.9738
-20.292
-19.5253
-18.69
-17.802
-16.876
-15.9236
-14.9545
-13.9774
-13.0003
-12.0316
-11.0795
-10.1513
-9.2538
-8.39242
-7.57147
-6.79378
-6.0615
-5.37526
-4.73507
-4.14047
-3.59025
-3.08344
-2.61875
-2.19488
-1.81108
-1.46624
-1.15985
-0.891807
-0.661396
-0.468703
-0.313221
-0.193989
-0.109369
-0.0575141
-0.036399
-0.0436572
-0.0769126
-0.133587
-0.211229
-0.306721
-0.417143
-0.539517
-0.670181
-0.805927
-0.943
-1.07768
-1.20697
-1.32768
-1.437
-1.53275
-1.61291
-1.6757
-1.72001
-1.74524
-1.75049
-1.73626
-1.70186
-1.6472
-1.57172
-1.47686
-1.36277
-1.22978
-1.0788
-0.911252
-0.728696
-0.532304
-0.325895
-0.12506
-23.9412
-23.5662
-23.0615
-22.4285
-21.6733
-20.8142
-19.8739
-18.8746
-17.8347
-16.769
-15.6881
-14.6014
-13.5179
-12.4471
-11.3981
-10.3793
-9.39801
-8.46007
-7.57016
-6.73074
-5.94369
-5.2091
-4.52683
-3.89586
-3.31494
-2.78288
-2.29777
-1.85863
-1.46411
-1.11336
-0.806172
-0.541391
-0.319271
-0.139688
-0.00117433
0.0973608
0.158315
0.183562
0.175537
0.137362
0.0710847
-0.0196617
-0.131841
-0.262169
-0.406836
-0.56213
-0.724572
-0.889822
-1.05385
-1.2133
-1.36375
-1.50257
-1.62685
-1.73405
-1.82293
-1.89163
-1.93853
-1.96374
-1.96739
-1.94862
-1.90781
-1.84475
-1.75998
-1.65321
-1.5251
-1.37612
-1.20704
-1.01866
-0.810943
-0.583705
-0.3367
-0.0916626
-25.0206
-24.509
-23.8335
-23.0065
-22.0567
-21.0168
-19.9155
-18.7742
-17.6075
-16.4262
-15.2397
-14.0577
-12.8907
-11.7491
-10.6428
-9.57957
-8.5662
-7.60672
-6.70451
-5.86094
-5.07633
-4.35055
-3.68199
-3.07015
-2.51288
-2.00895
-1.55676
-1.15445
-0.80153
-0.496904
-0.240348
-0.0317033
0.130457
0.248215
0.323549
0.358275
0.355496
0.317944
0.248552
0.1509
0.02803
-0.115725
-0.276283
-0.450404
-0.6331
-0.820423
-1.00827
-1.1921
-1.36819
-1.53275
-1.68229
-1.81424
-1.927
-2.01825
-2.08657
-2.13178
-2.15318
-2.1504
-2.12477
-2.07559
-2.00274
-1.90662
-1.78807
-1.64689
-1.48346
-1.29847
-1.09191
-0.862937
-0.60907
-0.327574
-0.0480578
-25.7738
-25.0968
-24.217
-23.1941
-22.0763
-20.8975
-19.6787
-18.4326
-17.1688
-15.8963
-14.6258
-13.3696
-12.1401
-10.9487
-9.80487
-8.71582
-7.68659
-6.72119
-5.82082
-4.98686
-4.21836
-3.51469
-2.87418
-2.29503
-1.77563
-1.31324
-0.906833
-0.555077
-0.256691
-0.0114718
0.182299
0.326966
0.424622
0.477809
0.488967
0.461232
0.397915
0.30246
0.178833
0.0307644
-0.137248
-0.320798
-0.515607
-0.717434
-0.921468
-1.12298
-1.31814
-1.50269
-1.67318
-1.82662
-1.96032
-2.07228
-2.16152
-2.22659
-2.26641
-2.2813
-2.272
-2.23813
-2.17962
-2.09691
-1.99125
-1.86256
-1.7109
-1.53664
-1.34004
-1.12063
-0.876655
-0.604226
-0.29737
0.00188941
-26.0716
-25.1562
-24.0679
-22.901
-21.6809
-20.4236
-19.1334
-17.816
-16.4811
-15.1414
-13.8116
-12.5071
-11.2413
-10.0259
-8.86883
-7.77729
-6.75472
-5.80443
-4.92678
-4.12179
-3.38858
-2.7246
-2.12857
-1.59752
-1.12956
-0.72275
-0.374474
-0.0844951
0.148979
0.329143
0.458319
0.538747
0.573273
0.565333
0.518
0.434718
0.319655
0.17744
0.011889
-0.172344
-0.370592
-0.577828
-0.78978
-1.00173
-1.20924
-1.40775
-1.59386
-1.76418
-1.91565
-2.04573
-2.15335
-2.23694
-2.29549
-2.32839
-2.33611
-2.31894
-2.27704
-2.21058
-2.12055
-2.00752
-1.87189
-1.71388
-1.53358
-1.33078
-1.10489
-0.85387
-0.572173
-0.252017
0.0534145
-26.6937
-25.8075
-24.7201
-23.5422
-22.3086
-21.0335
-19.7157
-18.3581
-16.9709
-15.5714
-14.1773
-12.8081
-11.479
-10.2026
-8.98929
-7.84623
-6.77794
-5.7883
-4.87757
-4.04593
-3.2909
-2.61162
-2.00477
-1.46808
-0.99912
-0.594792
-0.252687
0.0285349
0.251987
0.420748
0.537428
0.604789
0.625952
0.604134
0.543115
0.446943
0.319609
0.166444
-0.00870131
-0.201119
-0.405723
-0.617412
-0.832236
-1.04477
-1.25132
-1.44747
-1.62979
-1.79511
-1.9411
-2.06477
-2.16549
-2.24217
-2.29404
-2.32011
-2.32116
-2.29726
-2.24938
-2.17781
-2.08318
-1.96633
-1.82766
-1.66746
-1.48546
-1.28179
-1.05533
-0.804046
-0.521623
-0.198471
0.102268
-26.3428
-25.2712
-24.0612
-22.8054
-21.508
-20.1624
-18.7647
-17.33
-15.8773
-14.4308
-13.0088
-11.6307
-10.308
-9.05368
-7.87376
-6.77501
-5.75874
-4.82768
-3.97902
-3.21282
-2.52542
-1.91514
-1.37785
-0.911127
-0.511683
-0.176618
0.0971634
0.312594
0.473063
0.581123
0.639725
0.652475
0.62226
0.554192
0.451173
0.318702
0.161157
-0.0165605
-0.210803
-0.414699
-0.625356
-0.836737
-1.04532
-1.24605
-1.43635
-1.61133
-1.77009
-1.90829
-2.02509
-2.1185
-2.18896
-2.23421
-2.25509
-2.25077
-2.22294
-2.17161
-2.09763
-2.00147
-1.88371
-1.74515
-1.58562
-1.40563
-1.20456
-0.981932
-0.735441
-0.458843
-0.141239
0.146668
-25.6857
-24.4524
-23.1521
-21.8253
-20.441
-19.0034
-17.5207
-16.0291
-14.5419
-13.0878
-11.6759
-10.3286
-9.04879
-7.8525
-6.7361
-5.71081
-4.76939
-3.91767
-3.14762
-2.46126
-1.85182
-1.31904
-0.856762
-0.463888
-0.13418
0.133695
0.343541
0.498934
0.601579
0.656094
0.664318
0.631776
0.560405
0.457147
0.323401
0.167988
-0.00889116
-0.198327
-0.399361
-0.602915
-0.809627
-1.00973
-1.20451
-1.38547
-1.55467
-1.70426
-1.83659
-1.9451
-2.03368
-2.09705
-2.13875
-2.15429
-2.14781
-2.11685
-2.06456
-1.99023
-1.89426
-1.77765
-1.64015
-1.48348
-1.30671
-1.11049
-0.893689
-0.655133
-0.388601
-0.082991
0.1864
-25.8962
-24.6454
-23.3144
-21.9462
-7.84678
-7.98163
-8.0927
-8.18032
-8.24501
-8.28732
-8.308
-8.30789
-8.28799
-8.24934
-8.193
-8.12005
-8.03157
-7.92867
-7.81251
-7.68429
-7.54518
-7.39633
-7.23882
-7.07369
-6.9019
-6.72442
-6.54217
-6.35607
-6.16703
-5.97593
-5.7836
-5.59083
-5.39836
-5.20684
-5.01686
-4.82893
-4.64352
-4.46107
-4.28196
-4.10652
-3.93505
-3.76783
-3.60506
-3.4469
-3.29345
-3.14473
-3.00076
-2.86151
-2.72693
-2.59696
-2.47151
-2.35051
-2.23387
-2.12147
-2.01317
-1.90881
-1.80819
-1.71115
-1.61749
-1.52699
-1.43943
-1.3546
-1.27229
-1.19233
-1.11461
-1.03907
-0.965756
-0.89461
-0.825443
-0.757671
-0.690647
-0.624067
-0.557758
-0.491974
-0.42703
-0.363189
-0.300531
-0.239051
-0.178725
-0.119536
-0.0630683
-7.87285
-8.00752
-8.11825
-8.20541
-8.26951
-8.31115
-8.33105
-8.33009
-8.30926
-8.26963
-8.21224
-8.13821
-8.04861
-7.94457
-7.82725
-7.69784
-7.55752
-7.40747
-7.24877
-7.08246
-6.90955
-6.73099
-6.54771
-6.36063
-6.17066
-5.97867
-5.78548
-5.5919
-5.39866
-5.20641
-5.01576
-4.82722
-4.64128
-4.45835
-4.27883
-4.10303
-3.93126
-3.76378
-3.60079
-3.44246
-3.28888
-3.14009
-2.9961
-2.85689
-2.7224
-2.59255
-2.46726
-2.34643
-2.22997
-2.11777
-2.00968
-1.90554
-1.80517
-1.70838
-1.61499
-1.52475
-1.43747
-1.3529
-1.27085
-1.19114
-1.11367
-1.03836
-0.965231
-0.894244
-0.825208
-0.757483
-0.690679
-0.624232
-0.558132
-0.492528
-0.427707
-0.363909
-0.301231
-0.239683
-0.179229
-0.119868
-0.0619733
-7.92427
-8.05859
-8.16872
-8.25503
-8.31803
-8.35834
-8.37674
-8.37411
-8.35147
-8.30989
-8.25047
-8.1743
-8.0825
-7.9762
-7.85658
-7.72484
-7.5822
-7.42982
-7.26882
-7.10027
-6.92517
-6.74448
-6.55917
-6.37014
-6.1783
-5.98451
-5.78963
-5.59444
-5.39968
-5.20602
-5.01406
-4.82434
-4.63733
-4.45346
-4.2731
-4.09659
-3.92421
-3.75621
-3.5928
-3.43413
-3.2803
-3.13136
-2.98731
-2.84812
-2.71373
-2.58405
-2.45898
-2.33842
-2.22227
-2.1104
-2.00268
-1.89894
-1.799
-1.70267
-1.60973
-1.51997
-1.43315
-1.34903
-1.26743
-1.18816
-1.11112
-1.03624
-0.963507
-0.892855
-0.824045
-0.756568
-0.689886
-0.623656
-0.557775
-0.492379
-0.427723
-0.364033
-0.301414
-0.239882
-0.179388
-0.119842
-0.0616304
-8.00203
-8.1358
-8.24498
-8.32996
-8.39128
-8.4296
-8.44571
-8.44055
-8.41517
-8.37067
-8.30816
-8.22879
-8.13366
-8.02396
-7.90088
-7.76565
-7.61951
-7.46365
-7.29923
-7.12731
-6.94891
-6.76504
-6.57663
-6.38463
-6.18994
-5.99344
-5.79598
-5.59836
-5.40132
-5.20554
-5.01162
-4.82011
-4.63149
-4.44619
-4.26457
-4.08697
-3.91365
-3.74487
-3.58081
-3.42164
-3.26744
-3.11825
-2.97409
-2.83491
-2.70063
-2.57116
-2.44639
-2.32621
-2.2105
-2.09912
-1.99194
-1.88879
-1.78949
-1.69382
-1.60157
-1.51249
-1.42634
-1.34289
-1.26193
-1.1833
-1.10691
-1.03265
-0.960492
-0.89034
-0.821925
-0.754742
-0.688316
-0.622342
-0.556737
-0.491613
-0.4272
-0.363707
-0.301247
-0.23983
-0.179396
-0.119827
-0.0615759
-8.10627
-8.23926
-8.34713
-8.4303
-8.48936
-8.525
-8.53805
-8.52951
-8.50047
-8.45204
-8.38541
-8.30171
-8.20214
-8.08787
-7.96014
-7.82024
-7.66942
-7.50891
-7.33989
-7.16345
-6.98065
-6.79248
-6.59992
-6.40393
-6.20541
-6.00526
-5.80435
-5.60347
-5.40339
-5.20477
-5.00825
-4.81436
-4.62361
-4.4364
-4.25311
-4.07404
-3.89948
-3.72965
-3.56475
-3.40491
-3.25021
-3.10071
-2.9564
-2.81722
-2.68309
-2.5539
-2.42952
-2.30983
-2.19469
-2.08397
-1.97752
-1.87516
-1.77671
-1.68193
-1.59059
-1.50242
-1.41716
-1.33459
-1.25448
-1.1767
-1.10112
-1.02766
-0.956247
-0.886754
-0.81888