/*--------------------------------*- C++ -*----------------------------------*\
  =========                 |
  \\      /  F ield         | OpenFOAM: The Open Source CFD Toolbox
   \\    /   O peration     | Website:  https://openfoam.org
    \\  /    A nd           | Version:  13
     \\/     M anipulation  |
\*---------------------------------------------------------------------------*/
FoamFile
{
    format      ascii;
    class       volScalarField;
    location    "200";
    object      k;
}
// * * * * * * * * * * * * * * * * * * * * * * * * * * * * * * * * * * * * * //

dimensions      [0 2 -2 0 0 0 0];

internalField   nonuniform List<scalar> 
171634
(
0.343729
0.341893
0.340081
0.338291
0.33652
0.334766
0.333027
0.331302
0.32959
0.32789
0.326203
0.324528
0.322867
0.321219
0.319586
0.317968
0.316366
0.314781
0.313213
0.311663
0.310131
0.308618
0.34375
0.341917
0.340108
0.338321
0.336552
0.3348
0.333063
0.33134
0.329629
0.32793
0.326243
0.324568
0.322906
0.321258
0.319624
0.318005
0.316402
0.314816
0.313248
0.311697
0.310164
0.30865
0.343799
0.341972
0.340169
0.338388
0.336625
0.334877
0.333144
0.331424
0.329715
0.328017
0.326331
0.324656
0.322993
0.321343
0.319707
0.318086
0.316481
0.314893
0.313322
0.311769
0.310235
0.308719
0.343872
0.342054
0.340261
0.338488
0.336733
0.334993
0.333266
0.33155
0.329844
0.328149
0.326463
0.324788
0.323124
0.321472
0.319834
0.31821
0.316601
0.31501
0.313436
0.31188
0.310343
0.308825
0.343976
0.342173
0.340392
0.338632
0.336889
0.33516
0.333441
0.331733
0.330033
0.32834
0.326656
0.324981
0.323315
0.321661
0.320019
0.318391
0.316778
0.315182
0.313604
0.312044
0.310504
0.308984
0.344117
0.342332
0.340571
0.338828
0.337102
0.335387
0.333681
0.331983
0.33029
0.328603
0.326922
0.325247
0.32358
0.321922
0.320276
0.318644
0.317026
0.315424
0.313841
0.312277
0.310733
0.309209
0.344302
0.342543
0.340807
0.339089
0.337385
0.335691
0.334003
0.332319
0.330638
0.328958
0.327281
0.325608
0.32394
0.32228
0.32063
0.318991
0.317368
0.315761
0.314172
0.312602
0.311054
0.309527
0.344543
0.342817
0.341116
0.339432
0.337759
0.336094
0.334431
0.332768
0.331102
0.329435
0.327765
0.326096
0.324429
0.322766
0.321112
0.319469
0.317839
0.316226
0.314631
0.313056
0.311504
0.309974
0.344853
0.343174
0.341519
0.339881
0.338253
0.336628
0.335
0.333367
0.331726
0.330077
0.32842
0.326759
0.325095
0.323432
0.321775
0.320127
0.318492
0.316873
0.315273
0.313694
0.312138
0.310605
0.345254
0.343639
0.342049
0.340475
0.338908
0.337341
0.335765
0.334176
0.332571
0.33095
0.329314
0.327666
0.326011
0.324352
0.322695
0.321045
0.319406
0.317783
0.316179
0.314596
0.313038
0.311504
0.345775
0.344246
0.342747
0.341265
0.339787
0.338302
0.336801
0.335278
0.333728
0.332152
0.33055
0.328927
0.327288
0.325639
0.323986
0.322338
0.320698
0.319073
0.317468
0.315884
0.314326
0.312794
0.346453
0.345048
0.343677
0.342326
0.340978
0.339617
0.338229
0.336805
0.33534
0.333832
0.332285
0.330703
0.329093
0.327463
0.325823
0.324181
0.322545
0.320922
0.319318
0.317736
0.316181
0.314654
0.347344
0.346113
0.34493
0.343774
0.342619
0.341443
0.340227
0.338955
0.33762
0.336221
0.334759
0.333241
0.331678
0.330081
0.328461
0.326832
0.325203
0.323584
0.321983
0.320405
0.318854
0.317333
0.348524
0.347546
0.346641
0.345776
0.344916
0.344023
0.343068
0.342028
0.340891
0.339653
0.338318
0.336896
0.335401
0.333848
0.332255
0.330639
0.329016
0.327398
0.325796
0.324217
0.322667
0.321148
0.350096
0.349492
0.349
0.348572
0.348152
0.347683
0.347117
0.346417
0.345564
0.344555
0.343394
0.342097
0.340684
0.339179
0.337607
0.335994
0.334362
0.332729
0.33111
0.329514
0.327948
0.326418
0.352196
0.352123
0.352212
0.352391
0.352579
0.352691
0.352658
0.352425
0.35196
0.351254
0.350318
0.349172
0.347847
0.346379
0.344806
0.343167
0.341494
0.339814
0.338145
0.336502
0.334893
0.333324
0.354922
0.35548
0.356194
0.357015
0.357875
0.358692
0.359388
0.359825
0.359911
0.359642
0.359022
0.358082
0.356866
0.355431
0.353838
0.352142
0.35039
0.348624
0.34687
0.345146
0.343465
0.341835
0.357966
0.359078
0.360451
0.362021
0.36369
0.36533
0.366812
0.368035
0.368933
0.369393
0.369297
0.368685
0.367632
0.366238
0.364607
0.36283
0.360984
0.359121
0.357278
0.35548
0.35374
0.35207
0.361202
0.363062
0.36535
0.367998
0.370864
0.373736
0.376377
0.378601
0.380308
0.381463
0.38206
0.381847
0.380962
0.379581
0.377878
0.376
0.374054
0.372113
0.370225
0.368419
0.366712
0.365115
0.394644
0.392857
0.391068
0.389357
0.387771
0.386338
0.385072
0.383982
0.417319
0.416365
0.415592
0.41505
0.414757
0.414702
0.414862
0.415206
0.352591
0.351118
0.35042
0.350822
0.356533
0.354606
0.352917
0.351758
0.351558
0.35231
0.353863
0.356588
0.35474
0.353202
0.352308
0.352521
0.353539
0.355406
0.356632
0.354833
0.353383
0.352642
0.353002
0.354177
0.356228
0.359068
0.356631
0.354831
0.353381
0.352639
0.352998
0.354173
0.356223
0.35906
0.362595
0.360568
0.358556
0.356585
0.354736
0.353196
0.352301
0.352512
0.353529
0.355394
0.358027
0.364647
0.362603
0.36057
0.35854
0.356528
0.354599
0.352908
0.351747
0.351546
0.352296
0.353848
0.35614
0.364662
0.362618
0.360578
0.358529
0.356472
0.354449
0.35258
0.351103
0.350403
0.350805
0.351962
0.353849
0.36469
0.362651
0.360612
0.358552
0.356459
0.354355
0.352323
0.350556
0.349386
0.349248
0.350043
0.351573
0.364734
0.362707
0.360681
0.358627
0.356523
0.354371
0.352228
0.350247
0.348721
0.348087
0.348595
0.349875
0.351868
0.366828
0.364796
0.362794
0.360796
0.358773
0.356694
0.354548
0.35237
0.350288
0.348571
0.347665
0.348019
0.349203
0.351202
0.368946
0.366884
0.364879
0.362913
0.360964
0.359002
0.356995
0.354923
0.352809
0.350765
0.349056
0.348153
0.348535
0.34983
0.352065
0.368991
0.366952
0.36498
0.363065
0.361188
0.359322
0.357441
0.355526
0.353597
0.351764
0.350309
0.349749
0.350385
0.352064
0.354885
0.36904
0.367027
0.365097
0.363245
0.361462
0.359731
0.358036
0.356375
0.354779
0.353383
0.352509
0.352701
0.353883
0.356369
0.360341
0.365942
0.372919
0.381009
0.389911
0.369089
0.367106
0.365223
0.363444
0.361773
0.360212
0.358767
0.357465
0.356379
0.355695
0.355781
0.356685
0.358929
0.363117
0.369628
0.378894
0.388704
0.39138
0.401378
0.369136
0.367181
0.365347
0.363647
0.362101
0.360735
0.359591
0.358746
0.358339
0.358509
0.359334
0.361317
0.365319
0.372905
0.384617
0.388671
0.402359
0.420373
0.440954
0.461801
0.369175
0.367247
0.365457
0.363834
0.362413
0.361251
0.360432
0.360096
0.360313
0.361091
0.362785
0.366055
0.37229
0.384141
0.389536
0.41201
0.449653
0.500277
0.526952
0.552133
0.570358
0.369203
0.367295
0.365542
0.363983
0.362673
0.361695
0.361179
0.361294
0.361902
0.363237
0.365714
0.370124
0.378108
0.392501
0.400697
0.43841
0.518294
0.597917
0.741927
0.803584
0.814803
0.841997
0.369215
0.367319
0.36559
0.364076
0.362846
0.362004
0.361713
0.362039
0.36294
0.36467
0.367665
0.372709
0.381315
0.395674
0.405442
0.443728
0.51831
0.606941
0.828309
1.15404
1.09882
1.42396
0.36921
0.367316
0.365595
0.3641
0.362908
0.362134
0.361957
0.362385
0.363421
0.365309
0.368447
0.373497
0.381629
0.394716
0.414096
0.428571
0.478124
0.53891
0.615494
0.726865
0.854339
0.968351
1.10042
1.08661
1.10595
0.369188
0.367285
0.365556
0.364053
0.362854
0.362074
0.36189
0.362322
0.363342
0.365165
0.36811
0.372669
0.379598
0.390076
0.4049
0.423605
0.439567
0.481687
0.526418
0.572486
0.61117
0.623988
0.61713
0.610699
0.557165
0.555618
0.55556
0.554229
0.546265
0.533169
0.516528
0.497916
0.478676
0.459821
0.442033
0.424947
0.409366
0.395625
0.383837
0.374088
0.366163
0.35971
0.369151
0.36723
0.365477
0.363942
0.362696
0.361847
0.361553
0.361905
0.362791
0.364382
0.366914
0.37072
0.376268
0.384211
0.395212
0.409034
0.42461
0.435493
0.464345
0.491056
0.510846
0.521704
0.525637
0.504577
0.503945
0.505316
0.507471
0.509114
0.510173
0.510224
0.509068
0.50611
0.500979
0.493871
0.48509
0.474938
0.463778
0.451978
0.439877
0.427783
0.415948
0.404579
0.393933
0.369101
0.367154
0.365366
0.36378
0.36246
0.361497
0.361024
0.361213
0.361891
0.36316
0.365183
0.368176
0.372413
0.378241
0.386029
0.395787
0.40665
0.417483
0.427763
0.436692
0.443382
0.447628
0.449815
0.450516
0.450722
0.451349
0.452385
0.45378
0.455442
0.457275
0.459155
0.460917
0.462338
0.463218
0.463469
0.463045
0.461943
0.460193
0.457842
0.454939
0.451509
0.447529
0.4429
0.371139
0.369043
0.367065
0.365234
0.363586
0.362174
0.361073
0.360387
0.360258
0.360702
0.361626
0.36314
0.365374
0.368482
0.37263
0.377966
0.384483
0.391748
0.398953
0.40559
0.411202
0.415462
0.418286
0.419811
0.420191
0.419587
0.418636
0.417652
0.416779
0.416092
0.415636
0.415425
0.415442
0.415649
0.416008
0.416487
0.417074
0.417776
0.418627
0.419684
0.421016
0.422638
0.424353
0.426081
0.3711
0.368979
0.366969
0.365091
0.363376
0.361867
0.36062
0.359715
0.359259
0.359366
0.359948
0.360983
0.362549
0.364723
0.367574
0.371138
0.375363
0.380033
0.384766
0.389147
0.39284
0.395657
0.397553
0.398581
0.39865
0.397832
0.396477
0.394841
0.393099
0.391367
0.389723
0.388213
0.386862
0.385682
0.384678
0.383859
0.383239
0.382847
0.382725
0.382941
0.383579
0.384736
0.386485
0.388813
0.37106
0.368915
0.36687
0.364945
0.363163
0.361558
0.360172
0.359062
0.358304
0.357989
0.358197
0.358809
0.359808
0.36123
0.363093
0.365386
0.368042
0.370921
0.373812
0.376476
0.378726
0.38045
0.381616
0.382192
0.381952
0.381049
0.379662
0.377964
0.3761
0.374178
0.372269
0.37042
0.368659
0.367002
0.365459
0.36404
0.362758
0.361634
0.360696
0.359985
0.359558
0.359484
0.359836
0.360674
0.371021
0.368852
0.366775
0.364804
0.362959
0.361264
0.359751
0.35846
0.357441
0.356756
0.356473
0.356635
0.357172
0.358
0.359117
0.360494
0.362071
0.36375
0.365402
0.366899
0.368135
0.369043
0.369495
0.369384
0.368753
0.367684
0.366279
0.364642
0.362866
0.361026
0.359174
0.357348
0.355569
0.353853
0.352209
0.350644
0.349167
0.347788
0.346524
0.345395
0.344431
0.343666
0.343142
0.342898
0.370985
0.368794
0.366686
0.364673
0.36277
0.360995
0.359371
0.357925
0.35669
0.355705
0.355012
0.35465
0.354636
0.35496
0.355523
0.356242
0.357069
0.357936
0.358762
0.359466
0.359909
0.359996
0.359721
0.359092
0.358139
0.356911
0.355467
0.353866
0.352168
0.35042
0.348657
0.346909
0.345194
0.343524
0.341906
0.340346
0.338848
0.337419
0.336067
0.334801
0.333638
0.332595
0.331687
0.330931
0.370953
0.36874
0.366604
0.364554
0.362599
0.360755
0.359036
0.357462
0.356052
0.354831
0.353822
0.353047
0.352518
0.352234
0.352167
0.352261
0.352448
0.352642
0.352761
0.352733
0.352504
0.352039
0.35133
0.350389
0.349236
0.347904
0.346429
0.344851
0.343209
0.341535
0.339855
0.338189
0.33655
0.334947
0.333385
0.331869
0.330401
0.328986
0.327627
0.326329
0.325099
0.323945
0.322874
0.321894
0.370924
0.368693
0.366532
0.364448
0.36245
0.360546
0.358748
0.357068
0.35552
0.354117
0.35287
0.351789
0.350879
0.350133
0.349534
0.349047
0.348624
0.34821
0.347747
0.347185
0.346488
0.345637
0.344627
0.343464
0.342164
0.340747
0.339238
0.337664
0.336049
0.334416
0.332784
0.331166
0.329573
0.328011
0.326485
0.324998
0.323553
0.32215
0.320794
0.319485
0.318228
0.317025
0.315881
0.314796
0.3709
0.368653
0.36647
0.364357
0.36232
0.360366
0.358503
0.356739
0.355081
0.353537
0.352113
0.35081
0.349628
0.348559
0.347586
0.346685
0.345825
0.344969
0.344081
0.34313
0.342093
0.340957
0.33972
0.338385
0.336962
0.335465
0.333911
0.332317
0.330701
0.329078
0.327462
0.325862
0.324285
0.322738
0.321223
0.319743
0.3183
0.316895
0.315529
0.314204
0.312921
0.311681
0.310486
0.309335
0.370881
0.368619
0.366417
0.364279
0.36221
0.360215
0.358298
0.356465
0.354721
0.35307
0.351512
0.350048
0.348673
0.347378
0.34615
0.344971
0.343819
0.342668
0.341496
0.340283
0.339014
0.337682
0.336284
0.334823
0.333306
0.331743
0.330146
0.328527
0.326898
0.325271
0.323654
0.322055
0.320479
0.318931
0.317414
0.315928
0.314476
0.313059
0.311677
0.31033
0.30902
0.307747
0.306509
0.305308
0.370865
0.368591
0.366373
0.364214
0.362118
0.360088
0.358128
0.356241
0.354429
0.352694
0.351036
0.349452
0.347938
0.346486
0.345083
0.343716
0.342369
0.341024
0.339666
0.338281
0.33686
0.335398
0.333893
0.332347
0.330767
0.329158
0.32753
0.325891
0.324251
0.322617
0.320996
0.319394
0.317816
0.316264
0.31474
0.313246
0.311783
0.310352
0.308953
0.307587
0.306252
0.304949
0.303678
0.302436
0.370853
0.368568
0.366336
0.36416
0.362042
0.359984
0.357988
0.356057
0.354193
0.352394
0.350659
0.348987
0.347372
0.345806
0.34428
0.342784
0.341305
0.33983
0.338349
0.336851
0.335331
0.333784
0.33221
0.330611
0.32899
0.327353
0.325706
0.324056
0.32241
0.320773
0.319151
0.317548
0.315968
0.314413
0.312884
0.311384
0.309913
0.308471
0.307059
0.305676
0.304321
0.302995
0.301697
0.300424
0.370844
0.36855
0.366307
0.364116
0.361979
0.359898
0.357874
0.355909
0.354002
0.352153
0.350361
0.348622
0.346932
0.345284
0.343671
0.342084
0.340514
0.33895
0.337386
0.335813
0.334227
0.332625
0.331007
0.329374
0.327729
0.326076
0.32442
0.322766
0.321119
0.319483
0.317863
0.316262
0.314682
0.313127
0.311597
0.310094
0.308617
0.307168
0.305746
0.304351
0.302982
0.301638
0.300319
0.299023
0.370837
0.368536
0.366283
0.36408
0.361928
0.359828
0.357781
0.355788
0.353849
0.351962
0.350125
0.348336
0.34659
0.344882
0.343206
0.341554
0.339919
0.338293
0.336671
0.335047
0.333417
0.331779
0.330133
0.32848
0.326821
0.32516
0.323501
0.321847
0.320202
0.31857
0.316954
0.315357
0.313782
0.312229
0.3107
0.309196
0.307717
0.306263
0.304834
0.303431
0.302051
0.300694
0.299359
0.298045
0.370833
0.368525
0.366264
0.364051
0.361887
0.359772
0.357707
0.355692
0.353726
0.351809
0.349938
0.348111
0.346324
0.344571
0.342848
0.341149
0.339468
0.337798
0.336136
0.334476
0.332816
0.331154
0.32949
0.327824
0.326157
0.324493
0.322834
0.321183
0.319543
0.317917
0.316307
0.314716
0.313145
0.311595
0.310069
0.308565
0.307086
0.30563
0.304197
0.302787
0.3014
0.300033
0.298687
0.297358
0.37083
0.368517
0.36625
0.364028
0.361854
0.359727
0.357647
0.355614
0.353629
0.351688
0.349791
0.347935
0.346116
0.34433
0.342573
0.340839
0.339124
0.337423
0.335732
0.334047
0.332366
0.330688
0.329012
0.327338
0.325668
0.324004
0.322347
0.3207
0.319065
0.317445
0.315841
0.314256
0.31269
0.311145
0.309621
0.30812
0.306641
0.305184
0.303749
0.302335
0.300941
0.299567
0.298211
0.296872
0.370828
0.368511
0.366238
0.36401
0.361828
0.359691
0.3576
0.355554
0.353552
0.351594
0.349677
0.347798
0.345955
0.344145
0.342362
0.340603
0.338863
0.337139
0.335427
0.333725
0.332029
0.33034
0.328656
0.326978
0.325306
0.323643
0.321989
0.320346
0.318717
0.317102
0.315504
0.313924
0.312364
0.310823
0.309303
0.307803
0.306325
0.304868
0.303431
0.302014
0.300616
0.299236
0.297873
0.296526
0.370827
0.368507
0.36623
0.363997
0.361808
0.359663
0.357563
0.355506
0.353493
0.351521
0.349588
0.347693
0.345833
0.344003
0.342202
0.340424
0.338666
0.336926
0.335199
0.333484
0.331778
0.330081
0.328392
0.326711
0.325039
0.323377
0.321726
0.320088
0.318463
0.316854
0.315261
0.313686
0.31213
0.310593
0.309076
0.307579
0.306101
0.304644
0.303206
0.301787
0.300386
0.299002
0.297633
0.296279
0.370827
0.368504
0.366224
0.363986
0.361793
0.359642
0.357535
0.355471
0.353448
0.351466
0.349522
0.347615
0.345741
0.343898
0.342083
0.340291
0.338521
0.336768
0.335031
0.333307
0.331594
0.329892
0.328199
0.326517
0.324845
0.323185
0.321536
0.319901
0.31828
0.316676
0.315087
0.313516
0.311964
0.31043
0.308916
0.30742
0.305944
0.304487
0.303049
0.301628
0.300224
0.298837
0.297464
0.296105
0.370827
0.368502
0.36622
0.36398
0.361783
0.359628
0.357516
0.355446
0.353417
0.351428
0.349476
0.34756
0.345677
0.343825
0.342
0.3402
0.33842
0.33666
0.334915
0.333185
0.331467
0.329761
0.328067
0.326384
0.324712
0.323052
0.321406
0.319774
0.318156
0.316554
0.314969
0.313401
0.311852
0.31032
0.308808
0.307314
0.305839
0.304382
0.302943
0.301521
0.300116
0.298726
0.29735
0.295987
0.370827
0.368501
0.366217
0.363976
0.361776
0.359619
0.357504
0.35543
0.353397
0.351402
0.349446
0.347524
0.345635
0.343777
0.341945
0.340139
0.338354
0.336588
0.334838
0.333104
0.331383
0.329675
0.327979
0.326295
0.324624
0.322965
0.32132
0.31969
0.318074
0.316475
0.314892
0.313327
0.311779
0.310249
0.308738
0.307245
0.305771
0.304314
0.302875
0.301453
0.300046
0.298655
0.297277
0.295912
0.370828
0.368502
0.366217
0.363974
0.361774
0.359616
0.357499
0.355424
0.353389
0.351392
0.349433
0.347509
0.345618
0.343756
0.341922
0.340113
0.338325
0.336556
0.334805
0.333069
0.331346
0.329637
0.327941
0.326256
0.324585
0.322927
0.321283
0.319653
0.318038
0.31644
0.314858
0.313293
0.311747
0.310218
0.308707
0.307215
0.30574
0.304284
0.302844
0.301422
0.300014
0.298622
0.297243
0.295877
0.343723
0.341886
0.340074
0.338284
0.336513
0.334759
0.33302
0.331295
0.329583
0.327884
0.326197
0.324523
0.322862
0.321215
0.319583
0.317966
0.316364
0.31478
0.313213
0.311664
0.310133
0.30862
0.343745
0.341911
0.340102
0.338314
0.336546
0.334794
0.333057
0.331334
0.329623
0.327924
0.326238
0.324564
0.322902
0.321255
0.319621
0.318003
0.316401
0.314816
0.313248
0.311698
0.310167
0.308654
0.343793
0.341966
0.340163
0.338381
0.336618
0.334871
0.333138
0.331417
0.329709
0.328012
0.326326
0.324651
0.322989
0.32134
0.319705
0.318085
0.316481
0.314893
0.313323
0.311771
0.310238
0.308723
0.343866
0.342048
0.340255
0.338481
0.336726
0.334986
0.333259
0.331544
0.329839
0.328143
0.326458
0.324784
0.323121
0.32147
0.319832
0.318209
0.316601
0.315011
0.313438
0.311883
0.310347
0.308831
0.343972
0.342167
0.340387
0.338627
0.336883
0.335154
0.333435
0.331727
0.330027
0.328335
0.326652
0.324977
0.323313
0.321659
0.320018
0.318391
0.31678
0.315185
0.313607
0.312049
0.31051
0.308991
0.344113
0.342328
0.340566
0.338823
0.337096
0.335381
0.333676
0.331977
0.330285
0.328598
0.326917
0.325243
0.323577
0.321921
0.320276
0.318644
0.317028
0.315428
0.313846
0.312283
0.31074
0.309218
0.344299
0.342539
0.340802
0.339084
0.337379
0.335685
0.333997
0.332313
0.330631
0.328952
0.327276
0.325604
0.323937
0.322278
0.320628
0.318992
0.317369
0.315763
0.314176
0.312608
0.311062
0.309536
0.344539
0.342812
0.34111
0.339425
0.337751
0.336085
0.334422
0.332758
0.331093
0.329426
0.327757
0.326088
0.324422
0.322761
0.321108
0.319466
0.317838
0.316226
0.314633
0.31306
0.311509
0.309981
0.344848
0.343167
0.341511
0.339872
0.338242
0.336615
0.334987
0.333353
0.331712
0.330062
0.328406
0.326745
0.325082
0.32342
0.321765
0.320118
0.318485
0.316868
0.31527
0.313693
0.312139
0.310608
0.345246
0.343629
0.342036
0.340461
0.338892
0.337322
0.335744
0.334154
0.332548
0.330926
0.32929
0.327643
0.325988
0.32433
0.322675
0.321026
0.319389
0.317768
0.316167
0.314587
0.313031
0.3115
0.345763
0.344232
0.34273
0.341244
0.339762
0.338274
0.33677
0.335244
0.333692
0.332114
0.330512
0.328889
0.32725
0.325602
0.323952
0.322305
0.320668
0.319046
0.317443
0.315863
0.314308
0.31278
0.346438
0.345028
0.343653
0.342297
0.340944
0.339576
0.338183
0.336754
0.335285
0.333775
0.332226
0.330643
0.329034
0.327406
0.325768
0.324129
0.322496
0.320877
0.319277
0.3177
0.31615
0.314627
0.347325
0.346088
0.344899
0.343734
0.342571
0.341386
0.34016
0.33888
0.337538
0.336134
0.334669
0.333151
0.33159
0.329995
0.32838
0.326755
0.325132
0.32352
0.321926
0.320355
0.318811
0.317297
0.3485
0.347516
0.346601
0.345725
0.34485
0.343943
0.342972
0.341919
0.340771
0.339526
0.338188
0.336766
0.335274
0.333727
0.332143
0.330537
0.328925
0.327319
0.325729
0.324163
0.322625
0.321119
0.350073
0.34946
0.348955
0.348511
0.348071
0.347578
0.346987
0.346265
0.345397
0.344377
0.343215
0.341923
0.34052
0.339029
0.337475
0.335882
0.334271
0.332661
0.331064
0.329491
0.327948
0.326439
0.352181
0.3521
0.352177
0.352337
0.352497
0.352576
0.352509
0.352243
0.351753
0.351036
0.350103
0.348973
0.347674
0.346238
0.344703
0.343104
0.341473
0.339834
0.338207
0.336605
0.335036
0.333506
0.354934
0.355495
0.356208
0.357021
0.357862
0.35865
0.359308
0.359682
0.359726
0.359439
0.358829
0.357925
0.356765
0.355398
0.353878
0.352258
0.350585
0.348896
0.347216
0.345564
0.343952
0.342387
0.358032
0.359163
0.360553
0.362131
0.363786
0.365388
0.366812
0.367972
0.368818
0.369242
0.369169
0.368638
0.367707
0.366456
0.364976
0.363349
0.361646
0.359917
0.358198
0.356514
0.354881
0.353308
0.361364
0.363285
0.365643
0.368352
0.371233
0.374048
0.376575
0.378666
0.38026
0.381351
0.381962
0.381926
0.381302
0.380225
0.378868
0.377319
0.375657
0.37394
0.372226
0.370567
0.368983
0.367487
0.396624
0.395348
0.393938
0.392479
0.391021
0.389645
0.388381
0.387243
0.420261
0.419806
0.419228
0.418607
0.418047
0.417618
0.417317
0.417144
0.353366
0.352211
0.351951
0.352698
0.356973
0.355233
0.353819
0.353061
0.353391
0.354552
0.356656
0.357061
0.355425
0.354201
0.353764
0.354371
0.355887
0.358427
0.357124
0.355549
0.354436
0.354183
0.354935
0.35664
0.359421
0.363234
0.357123
0.355547
0.354433
0.354179
0.35493
0.356636
0.359415
0.363224
0.362755
0.360798
0.358886
0.357058
0.35542
0.354195
0.353757
0.354362
0.355877
0.358415
0.361933
0.364754
0.362756
0.360787
0.358848
0.356967
0.355226
0.353809
0.353049
0.353378
0.354538
0.35664
0.359642
0.364763
0.36276
0.360779
0.358811
0.356866
0.355
0.353353
0.352196
0.351934
0.352679
0.354274
0.356699
0.364783
0.362781
0.360793
0.358802
0.356804
0.354825
0.352963
0.351428
0.350575
0.350839
0.351928
0.35382
0.364817
0.362824
0.360842
0.358846
0.356819
0.354764
0.352744
0.350918
0.349594
0.34922
0.349927
0.351443
0.353709
0.366882
0.364871
0.362897
0.360938
0.358964
0.356946
0.354875
0.352785
0.350802
0.349203
0.34844
0.348913
0.35024
0.352413
0.368981
0.366932
0.364945
0.363004
0.361089
0.359169
0.357213
0.355201
0.353154
0.351182
0.349552
0.348748
0.349217
0.350624
0.353005
0.369021
0.366994
0.365038
0.363145
0.361297
0.35947
0.357636
0.355777
0.353913
0.35216
0.350811
0.35041
0.351182
0.353051
0.356135
0.369066
0.367064
0.365148
0.363316
0.36156
0.359866
0.35822
0.356623
0.355116
0.353855
0.353199
0.3536
0.355121
0.358119
0.362816
0.369127
0.376631
0.385483
0.396222
0.369112
0.367137
0.365267
0.363507
0.361862
0.36034
0.358951
0.357735
0.35679
0.356349
0.356678
0.358027
0.361074
0.366717
0.375148
0.378091
0.386664
0.397787
0.410945
0.369156
0.367209
0.365385
0.363703
0.362183
0.36086
0.359786
0.35906
0.358863
0.359245
0.360483
0.363269
0.368995
0.379411
0.383432
0.39923
0.422733
0.448573
0.467944
0.485091
0.369192
0.36727
0.365491
0.363883
0.36249
0.361374
0.360639
0.360454
0.360826
0.361899
0.364181
0.368708
0.378041
0.395063
0.405554
0.448108
0.493254
0.575528
0.64725
0.693669
0.369217
0.367314
0.365571
0.364027
0.362744
0.361815
0.36139
0.361604
0.362392
0.364075
0.36726
0.373307
0.384405
0.391986
0.423595
0.513574
0.636222
0.737663
0.369227
0.367335
0.365615
0.364114
0.362909
0.362115
0.361917
0.362336
0.363411
0.365485
0.369177
0.375771
0.387232
0.395064
0.429263
0.482662
0.644394
0.36922
0.367329
0.365615
0.364132
0.362961
0.36223
0.362137
0.362649
0.363837
0.366021
0.369743
0.376001
0.386876
0.404407
0.418894
0.47745
0.550955
0.785332
1.01847
0.887916
0.369196
0.367296
0.365571
0.364078
0.362896
0.362152
0.362036
0.362535
0.363678
0.365726
0.369098
0.374492
0.3832
0.396828
0.416486
0.434782
0.49055
0.557295
0.615554
0.653428
0.651445
0.613856
0.58396
0.542566
0.531718
0.5087
0.506536
0.504884
0.503813
0.500792
0.495748
0.489361
0.482044
0.474228
0.466311
0.4586
0.451379
0.444915
0.439492
0.435455
0.433345
0.434156
0.369157
0.367238
0.365488
0.36396
0.362727
0.361904
0.36166
0.362062
0.363037
0.364783
0.367595
0.371914
0.378447
0.388229
0.401729
0.418164
0.431149
0.464776
0.494248
0.512942
0.519107
0.514461
0.50658
0.500212
0.487092
0.48684
0.486836
0.486446
0.486159
0.485581
0.484484
0.482821
0.480656
0.478142
0.475481
0.472457
0.469062
0.465443
0.461768
0.458122
0.454319
0.451337
0.449851
0.369106
0.36716
0.365374
0.363793
0.362481
0.361535
0.361096
0.361339
0.362071
0.363436
0.365624
0.368903
0.373645
0.380362
0.389437
0.400182
0.411378
0.422844
0.433198
0.4412
0.446421
0.449235
0.450474
0.451235
0.451818
0.452311
0.452799
0.453294
0.453824
0.454518
0.455233
0.455892
0.456423
0.456712
0.456786
0.456679
0.456449
0.456177
0.455966
0.455921
0.45594
0.456038
0.456253
0.371144
0.369047
0.36707
0.365239
0.363594
0.362187
0.361096
0.360429
0.360337
0.360816
0.361798
0.363404
0.365788
0.36914
0.373681
0.379582
0.386591
0.39391
0.401018
0.407391
0.412563
0.416312
0.418703
0.41999
0.420501
0.420742
0.420629
0.420311
0.419838
0.419265
0.418678
0.418207
0.417855
0.417621
0.41749
0.417459
0.41754
0.41776
0.418173
0.418855
0.419903
0.421407
0.423246
0.425447
0.371104
0.368983
0.366972
0.365094
0.36338
0.361873
0.360632
0.359737
0.359301
0.359441
0.360052
0.361135
0.362774
0.365058
0.36807
0.371849
0.376281
0.381024
0.385665
0.389823
0.393233
0.395787
0.397507
0.398485
0.398818
0.398457
0.397714
0.396664
0.395393
0.394
0.392559
0.391156
0.38985
0.388658
0.387593
0.386669
0.385902
0.385318
0.384956
0.384873
0.385143
0.385856
0.387087
0.388902
0.371064
0.368918
0.366873
0.364947
0.363166
0.361561
0.360176
0.359071
0.358322
0.358023
0.358255
0.35889
0.359922
0.361389
0.363313
0.365676
0.368394
0.37129
0.374126
0.376677
0.378797
0.380408
0.381511
0.382119
0.382045
0.381387
0.380284
0.378887
0.37731
0.375629
0.373915
0.372231
0.370607
0.369062
0.367608
0.366256
0.365018
0.363911
0.362958
0.362194
0.361662
0.36142
0.361531
0.362056
0.371025
0.368855
0.366777
0.364806
0.36296
0.361265
0.359752
0.358461
0.357445
0.356766
0.356493
0.356669
0.357219
0.358063
0.359198
0.360592
0.362177
0.363843
0.365457
0.366895
0.36807
0.368925
0.369343
0.369255
0.368701
0.367749
0.366482
0.364989
0.363354
0.361647
0.359919
0.358205
0.35653
0.354909
0.353352
0.351866
0.350459
0.349141
0.347923
0.346823
0.345865
0.345078
0.344494
0.344147
0.370988
0.368796
0.366688
0.364674
0.36277
0.360994
0.359369
0.357922
0.356687
0.355702
0.355011
0.354652
0.354642
0.354969
0.355534
0.356252
0.357071
0.357919
0.358715
0.359381
0.359761
0.359806
0.359513
0.358893
0.357975
0.356802
0.355422
0.353893
0.352267
0.350591
0.348901
0.347223
0.345575
0.343969
0.342412
0.340909
0.339465
0.338086
0.336777
0.335547
0.334409
0.333376
0.332463
0.331686
0.370956
0.368743
0.366606
0.364555
0.362599
0.360754
0.359034
0.357458
0.356047
0.354824
0.353813
0.353035
0.352504
0.352216
0.35214
0.352222
0.352388
0.352555
0.35264
0.352578
0.352315
0.351826
0.351106
0.350167
0.349029
0.347722
0.346279
0.344738
0.343134
0.3415
0.33986
0.338233
0.336633
0.335067
0.333541
0.33206
0.330626
0.329242
0.327912
0.32664
0.325432
0.324295
0.323235
0.322259
0.370928
0.368696
0.366535
0.36445
0.36245
0.360545
0.358745
0.357064
0.355514
0.354108
0.352858
0.351774
0.350859
0.350107
0.349498
0.348999
0.34856
0.348124
0.347637
0.34705
0.346331
0.345463
0.344443
0.343278
0.341983
0.340576
0.339081
0.337524
0.335928
0.334316
0.332705
0.331109
0.329537
0.327996
0.326491
0.325024
0.323598
0.322214
0.320875
0.319583
0.31834
0.31715
0.316015
0.314937
0.370904
0.368656
0.366472
0.364359
0.362321
0.360366
0.358501
0.356735
0.355075
0.353528
0.352101
0.350795
0.349608
0.348533
0.347552
0.346642
0.34577
0.3449
0.343996
0.343029
0.341978
0.340832
0.339587
0.338249
0.336826
0.335333
0.333785
0.332199
0.330592
0.32898
0.327375
0.325786
0.324222
0.322686
0.321183
0.319715
0.318283
0.316889
0.315533
0.314218
0.312944
0.311712
0.310523
0.309378
0.370884
0.368622
0.36642
0.364281
0.362211
0.360215
0.358297
0.356462
0.354716
0.353062
0.351502
0.350034
0.348655
0.347356
0.346123
0.344937
0.343776
0.342616
0.341435
0.340212
0.338935
0.337596
0.336193
0.334729
0.333211
0.33165
0.330055
0.32844
0.326816
0.325194
0.323584
0.321991
0.320422
0.318882
0.317371
0.315892
0.314447
0.313037
0.311661
0.310321
0.309016
0.307748
0.306515
0.305318
0.370868
0.368594
0.366375
0.364216
0.362119
0.360089
0.358127
0.356239
0.354425
0.352688
0.351028
0.349442
0.347924
0.346468
0.345061
0.34369
0.342337
0.340987
0.339623
0.338232
0.336806
0.33534
0.333832
0.332284
0.330703
0.329095
0.327468
0.325832
0.324195
0.322564
0.320947
0.319349
0.317775
0.316227
0.314708
0.313218
0.31176
0.310334
0.308939
0.307576
0.306246
0.304946
0.303678
0.30244
0.370856
0.368571
0.366339
0.364162
0.362043
0.359984
0.357988
0.356056
0.35419
0.352389
0.350653
0.348979
0.347361
0.345792
0.344264
0.342764
0.341282
0.339804
0.338319
0.336818
0.335295
0.333746
0.33217
0.33057
0.328949
0.327312
0.325667
0.324018
0.322374
0.320739
0.31912
0.31752
0.315943
0.314391
0.312865
0.311369
0.309901
0.308462
0.307052
0.305672
0.304321
0.302998
0.301702
0.300432
0.370848
0.368553
0.36631
0.364118
0.361981
0.359899
0.357874
0.355908
0.354
0.35215
0.350356
0.348616
0.346924
0.345274
0.343659
0.34207
0.340497
0.338931
0.337364
0.33579
0.334202
0.332599
0.330981
0.329348
0.327703
0.326051
0.324396
0.322743
0.321097
0.319463
0.317845
0.316247
0.31467
0.313117
0.31159
0.310089
0.308615
0.307168
0.305748
0.304355
0.302989
0.301647
0.30033
0.299036
0.370841
0.36854
0.366286
0.364083
0.36193
0.35983
0.357782
0.355788
0.353848
0.351959
0.350122
0.348331
0.346584
0.344875
0.343197
0.341543
0.339907
0.33828
0.336656
0.335031
0.333401
0.331762
0.330116
0.328463
0.326805
0.325145
0.323486
0.321834
0.32019
0.31856
0.316946
0.315351
0.313778
0.312227
0.3107
0.309198
0.307721
0.306269
0.304843
0.303441
0.302063
0.300708
0.299375
0.298063
0.370836
0.368529
0.366267
0.364054
0.361889
0.359773
0.357708
0.355692
0.353725
0.351807
0.349936
0.348107
0.346319
0.344565
0.342841
0.341141
0.339459
0.337788
0.336125
0.334465
0.332805
0.331143
0.329479
0.327813
0.326148
0.324485
0.322827
0.321177
0.319538
0.317913
0.316305
0.314715
0.313146
0.311598
0.310073
0.308572
0.307094
0.30564
0.304209
0.3028
0.301414
0.300049
0.298704
0.297377
0.370833
0.36852
0.366252
0.36403
0.361855
0.359728
0.357647
0.355614
0.353628
0.351687
0.349789
0.347932
0.346112
0.344325
0.342567
0.340832
0.339117
0.337415
0.335724
0.334039
0.332358
0.33068
0.329004
0.327331
0.325662
0.323998
0.322343
0.320697
0.319063
0.317444
0.315842
0.314258
0.312694
0.31115
0.309628
0.308128
0.30665
0.305195
0.303761
0.302348
0.300956
0.299583
0.298229
0.296891
0.37083
0.368513
0.36624
0.364011
0.361828
0.359691
0.357599
0.355552
0.35355
0.351591
0.349673
0.347794
0.34595
0.344139
0.342355
0.340596
0.338856
0.337131
0.335419
0.333717
0.332022
0.330332
0.328649
0.326971
0.325301
0.323638
0.321985
0.320344
0.318715
0.317102
0.315505
0.313927
0.312367
0.310828
0.309309