/*--------------------------------*- C++ -*----------------------------------*\
  =========                 |
  \\      /  F ield         | OpenFOAM: The Open Source CFD Toolbox
   \\    /   O peration     | Website:  https://openfoam.org
    \\  /    A nd           | Version:  13
     \\/     M anipulation  |
\*---------------------------------------------------------------------------*/
FoamFile
{
    format      ascii;
    class       volScalarField;
    location    "200";
    object      omega;
}
// * * * * * * * * * * * * * * * * * * * * * * * * * * * * * * * * * * * * * //

dimensions      [0 0 -1 0 0 0 0];

internalField   nonuniform List<scalar> 
171634
(
18.0624
17.979
17.8966
17.8151
17.7345
17.6547
17.5756
17.4972
17.4195
17.3424
17.266
17.1902
17.115
17.0405
16.9667
16.8936
16.8211
16.7494
16.6785
16.6083
16.5389
16.4702
18.0629
17.9795
17.8972
17.8158
17.7353
17.6555
17.5765
17.4982
17.4205
17.3434
17.267
17.1912
17.116
17.0415
16.9677
16.8945
16.822
16.7503
16.6793
16.6091
16.5397
16.471
18.0641
17.9809
17.8987
17.8175
17.7371
17.6575
17.5786
17.5004
17.4227
17.3457
17.2693
17.1935
17.1183
17.0438
16.9698
16.8966
16.8241
16.7523
16.6813
16.611
16.5415
16.4727
18.0658
17.9829
17.901
17.82
17.7398
17.6604
17.5817
17.5036
17.4261
17.3491
17.2728
17.1969
17.1217
17.0471
16.9731
16.8998
16.8272
16.7553
16.6842
16.6138
16.5442
16.4754
18.0683
17.9857
17.9042
17.8236
17.7438
17.6647
17.5863
17.5084
17.431
17.3542
17.2778
17.202
17.1268
17.0521
16.978
16.9045
16.8318
16.7598
16.6885
16.618
16.5483
16.4794
18.0717
17.9897
17.9087
17.8286
17.7493
17.6706
17.5926
17.515
17.4378
17.3611
17.2849
17.2091
17.1338
17.059
16.9848
16.9112
16.8383
16.7661
16.6947
16.6241
16.5542
16.4852
18.0762
17.995
17.9147
17.8353
17.7567
17.6786
17.6011
17.5239
17.4471
17.3706
17.2945
17.2188
17.1434
17.0686
16.9942
16.9205
16.8474
16.7751
16.7035
16.6327
16.5627
16.4936
18.0822
18.0019
17.9227
17.8443
17.7666
17.6893
17.6125
17.5359
17.4596
17.3835
17.3076
17.232
17.1567
17.0817
17.0073
16.9334
16.8601
16.7876
16.7158
16.6448
16.5747
16.5055
18.0901
18.0112
17.9333
17.8562
17.7797
17.7037
17.6279
17.5522
17.4766
17.401
17.3255
17.2501
17.1748
17.0999
17.0254
16.9513
16.8779
16.8051
16.7332
16.662
16.5918
16.5224
18.1004
18.0233
17.9473
17.872
17.7974
17.723
17.6487
17.5743
17.4997
17.4249
17.35
17.275
17.2
17.1252
17.0506
16.9765
16.9029
16.83
16.7578
16.6866
16.6162
16.5468
18.114
18.0394
17.9659
17.8933
17.8212
17.7492
17.677
17.6045
17.5316
17.4581
17.3841
17.3098
17.2353
17.1607
17.0862
17.0121
16.9384
16.8654
16.7932
16.7218
16.6513
16.5819
18.1319
18.0607
17.991
17.9221
17.8537
17.7853
17.7163
17.6467
17.5761
17.5046
17.4322
17.359
17.2853
17.2112
17.137
17.063
16.9894
16.9164
16.8441
16.7727
16.7022
16.6328
18.1556
18.0894
18.025
17.9617
17.8988
17.8356
17.7716
17.7063
17.6395
17.571
17.5011
17.4297
17.3573
17.2841
17.2105
17.1368
17.0633
16.9903
16.918
16.8466
16.7763
16.7069
18.1873
18.1283
18.0718
18.0168
17.9623
17.9073
17.8509
17.7923
17.7312
17.6676
17.6014
17.5329
17.4625
17.3907
17.3179
17.2447
17.1715
17.0986
17.0263
16.955
16.8847
16.8155
18.2299
18.1816
18.1369
18.0947
18.0533
18.0111
17.9666
17.9187
17.8668
17.8106
17.7503
17.6863
17.619
17.5492
17.4775
17.4049
17.3318
17.2589
17.1866
17.1153
17.045
16.976
18.2874
18.2549
18.2284
18.2061
18.1856
18.1642
18.1393
18.109
18.0721
18.0282
17.9774
17.9202
17.8576
17.7905
17.7203
17.6481
17.575
17.5018
17.4292
17.3575
17.2872
17.2185
18.365
18.3564
18.3587
18.3694
18.3846
18.3992
18.4085
18.4086
18.3976
18.3745
18.3393
18.2929
18.237
18.1735
18.1045
18.0322
17.9582
17.8839
17.8102
17.738
17.6676
17.5993
18.4703
18.4997
18.5499
18.6181
18.6976
18.7788
18.8513
18.9073
18.9423
18.9546
18.9451
18.9151
18.8677
18.8073
18.7379
18.6635
18.587
18.5105
18.4356
18.3632
18.294
18.2285
18.6142
18.7046
18.8365
19.0086
19.2104
19.4218
19.6181
19.7802
19.8984
19.9705
20.0003
19.9925
19.954
19.894
19.8209
19.7418
19.6615
19.5836
19.5103
19.443
19.3828
19.3307
21.7421
21.6631
21.5901
21.5283
21.4815
21.4529
21.4456
21.463
25.3431
25.318
25.3362
25.4121
25.5588
25.7882
26.1105
26.5342
18.3744
18.2951
18.2383
18.2186
18.5616
18.4689
18.3831
18.3127
18.2706
18.2733
18.338
18.5627
18.4722
18.3907
18.3279
18.2983
18.3208
18.4137
18.5638
18.4747
18.3957
18.3374
18.3152
18.3495
18.4595
18.651
18.5637
18.4746
18.3957
18.3373
18.3151
18.3493
18.4592
18.6505
18.8481
18.7521
18.6568
18.5626
18.4721
18.3906
18.3278
18.2981
18.3205
18.4132
18.5825
18.9452
18.8487
18.7526
18.6567
18.5614
18.4687
18.3829
18.3124
18.2703
18.2729
18.3374
18.4708
18.9461
18.8496
18.7534
18.657
18.5604
18.465
18.3742
18.2947
18.2379
18.2181
18.2508
18.3457
18.9475
18.8512
18.7551
18.6584
18.5609
18.4632
18.3677
18.2799
18.2095
18.1698
18.1754
18.2386
18.9495
18.8537
18.7579
18.6615
18.5637
18.4647
18.366
18.2721
18.1915
18.137
18.1239
18.1671
18.2742
19.0484
18.9522
18.8571
18.7622
18.6667
18.5697
18.4709
18.3712
18.2744
18.1882
18.1257
18.1037
18.1404
18.2496
19.148
19.0509
18.9556
18.8616
18.7682
18.6745
18.5796
18.4829
18.3851
18.2893
18.2032
18.1406
18.1208
18.167
18.2999
19.1503
19.0539
18.9597
18.8672
18.7759
18.6851
18.5938
18.5016
18.4091
18.3192
18.2402
18.1873
18.1844
18.263
18.4551
19.1528
19.0573
18.9644
18.8738
18.7852
18.6983
18.6124
18.5275
18.4445
18.367
18.3043
18.2756
18.3146
18.4708
18.7971
19.3535
20.1383
21.1545
22.375
19.1554
19.0609
18.9693
18.881
18.7958
18.7138
18.6351
18.5605
18.492
18.4348
18.4021
18.4234
18.5594
18.918
19.6243
20.8592
22.2365
22.549
24.0654
19.158
19.0644
18.9744
18.8884
18.8069
18.7306
18.6607
18.5992
18.5502
18.5231
18.5402
18.655
18.9986
19.9116
21.708
22.2215
24.6019
28.5089
33.8705
39.5711
19.1605
19.0678
18.9792
18.8955
18.8177
18.7474
18.6869
18.6402
18.6149
18.6275
18.7156
18.9711
19.6599
21.5365
22.3388
27.7646
40.0605
63.8087
80.1013
91.1098
97.7084
19.1628
19.0708
18.9834
18.9017
18.8272
18.7623
18.7106
18.6783
18.6774
18.7322
18.8963
19.3021
20.324
22.9386
24.644
37.9585
84.1676
150.928
348.963
419.687
415.718
434.898
19.1646
19.0731
18.9866
18.9063
18.8344
18.7736
18.7287
18.7077
18.7259
18.8128
19.0312
19.5276
20.6787
23.3101
25.5498
38.9743
82.2214
164.004
686.991
856.065
714.804
856.67
19.1661
19.0747
18.9886
18.9091
18.8384
18.7798
18.7385
18.7234
18.7506
18.85
19.0817
19.5734
20.6196
22.8768
27.3833
31.6058
53.2436
98.5692
183.447
346.112
514.515
598.273
650.57
573.106
544.648
19.167
19.0756
18.9894
18.9099
18.8392
18.7807
18.7395
18.724
18.749
18.8405
19.0466
19.4596
20.2623
21.8275
24.6534
29.2293
34.1845
52.0423
78.4729
116.379
153.8
171.815
178.849
183.466
162.985
167.866
173.831
179.03
182.054
182.884
181.697
178.834
174.701
169.69
164.135
158.145
152.045
146.032
140.228
134.706
129.451
124.394
19.1676
19.0758
18.9891
18.9089
18.8371
18.7769
18.7328
18.712
18.7264
18.796
18.9547
19.2612
19.8186
20.8126
22.5191
25.1272
28.6665
31.7076
41.1328
51.5593
60.5589
66.3186
69.1205
64.081
64.5886
66.257
69.0872
72.7779
77.1508
81.9223
86.8066
91.4986
95.7574
99.4529
102.516
104.919
106.686
107.871
108.547
108.796
108.688
108.282
107.622
19.1678
19.0754
18.9879
18.9064
18.8328
18.7696
18.7206
18.6915
18.6911
18.7335
18.8405
19.0467
19.407
20.008
20.9756
22.4081
24.2315
26.1654
28.2237
30.1879
31.7175
32.676
33.138
33.3863
33.5043
33.7086
34.1104
34.777
35.7427
37.03
38.6383
40.541
42.6927
45.0417
47.5378
50.1363
52.8039
55.5213
58.2846
61.1021
63.992
66.9714
70.0311
19.2645
19.1677
19.0746
18.986
18.903
18.8269
18.7601
18.7053
18.6668
18.6509
18.6666
18.7274
18.8527
19.0699
19.4171
19.9419
20.6806
21.597
22.5619
23.4948
24.3084
24.9275
25.3269
25.5329
25.6
25.5865
25.5467
25.5151
25.515
25.5636
25.6766
25.8685
26.1516
26.5356
27.0281
27.6367
28.3692
29.2362
30.2528
31.4408
32.8299
34.4566
36.3619
38.5837
19.2648
19.1675
19.0736
18.9838
18.899
18.8204
18.7496
18.6889
18.6413
18.6108
18.6033
18.6266
18.6912
18.8101
18.9987
19.2727
19.6399
20.0842
20.5588
21.0082
21.3866
21.6687
21.8503
21.9426
21.9649
21.9363
21.8787
21.8088
21.7382
21.6747
21.6239
21.5898
21.5762
21.5864
21.6243
21.6945
21.8029
21.9572
22.1677
22.4482
22.8168
23.2965
23.9133
24.6973
19.2651
19.1672
19.0725
18.9815
18.8949
18.8138
18.7392
18.6729
18.6169
18.574
18.5475
18.5419
18.5625
18.6152
18.7058
18.838
19.0106
19.2137
19.427
19.626
19.7914
19.9122
19.987
20.0189
20.0132
19.977
19.9197
19.8496
19.7739
19.6974
19.6238
19.5552
19.4933
19.4391
19.3936
19.3581
19.3342
19.3242
19.3313
19.36
19.4162
19.5081
19.6455
19.839
19.2653
19.1668
19.0713
18.9792
18.891
18.8074
18.7294
18.6581
18.5949
18.5417
18.5004
18.4732
18.4628
18.4715
18.5011
18.5517
18.6203
18.7004
18.7826
18.8563
18.9135
18.9495
18.9628
18.954
18.9246
18.878
18.8185
18.7503
18.6772
18.6023
18.5276
18.4547
18.3845
18.3178
18.2549
18.1965
18.1429
18.095
18.0535
18.02
17.9961
17.9841
17.9868
18.0074
19.2656
19.1666
19.0703
18.9771
18.8874
18.8017
18.7207
18.6451
18.576
18.5143
18.4614
18.4185
18.3865
18.3663
18.3579
18.3604
18.3714
18.387
18.4021
18.4119
18.4125
18.4019
18.3791
18.344
18.2978
18.2421
18.1788
18.1103
18.0384
17.9651
17.8915
17.8187
17.7474
17.678
17.611
17.5464
17.4846
17.4258
17.3704
17.3189
17.2718
17.23
17.1942
17.1651
19.2659
19.1664
19.0694
18.9753
18.8842
18.7966
18.7131
18.634
18.56
18.4918
18.4301
18.3754
18.3282
18.2887
18.2563
18.23
18.2079
18.1877
18.1665
18.1419
18.1118
18.0751
18.0313
17.9805
17.9233
17.8606
17.7936
17.7234
17.6514
17.5785
17.5055
17.4333
17.362
17.2922
17.2239
17.1575
17.0929
17.0303
16.9699
16.9118
16.8564
16.8039
16.7545
16.7084
19.2662
19.1663
19.0687
18.9737
18.8815
18.7923
18.7066
18.6246
18.5468
18.4736
18.4052
18.3419
18.284
18.2311
18.1829
18.1384
18.0963
18.0551
18.0131
17.9687
17.921
17.8691
17.813
17.7527
17.6886
17.6213
17.5514
17.4798
17.4071
17.3342
17.2614
17.1892
17.118
17.048
16.9792
16.9119
16.8461
16.7819
16.7193
16.6585
16.5995
16.5425
16.4875
16.4347
19.2667
19.1663
19.0682
18.9725
18.8792
18.7888
18.7013
18.617
18.5361
18.4589
18.3856
18.3161
18.2505
18.1885
18.1296
18.0732
18.0184
17.964
17.9091
17.8528
17.7943
17.7333
17.6697
17.6035
17.535
17.4646
17.3928
17.32
17.2468
17.1735
17.1007
17.0286
16.9573
16.8871
16.8181
16.7504
16.6839
16.6189
16.5552
16.4929
16.4322
16.3729
16.3153
16.2592
19.2671
19.1665
19.0679
18.9715
18.8774
18.7859
18.6969
18.6108
18.5275
18.4473
18.3702
18.2962
18.2251
18.1567
18.0907
18.0264
17.9632
17.9004
17.8373
17.7734
17.7082
17.6414
17.573
17.503
17.4317
17.3593
17.2861
17.2125
17.1389
17.0654
16.9925
16.9203
16.849
16.7787
16.7096
16.6415
16.5747
16.5091
16.4448
16.3817
16.3199
16.2595
16.2003
16.1424
19.2676
19.1667
19.0677
18.9708
18.876
18.7835
18.6934
18.6058
18.5207
18.4382
18.3582
18.2808
18.2058
18.133
18.0619
17.9923
17.9235
17.8552
17.7868
17.718
17.6485
17.578
17.5065
17.4342
17.361
17.2873
17.2133
17.1392
17.0652
16.9917
16.9187
16.8465
16.7752
16.7049
16.6356
16.5674
16.5003
16.4344
16.3696
16.306
16.2436
16.1823
16.1221
16.063
19.2681
19.1669
19.0676
18.9703
18.8749
18.7817
18.6907
18.6018
18.5152
18.431
18.3489
18.269
18.1911
18.115
18.0405
17.9672
17.8946
17.8226
17.7507
17.6787
17.6063
17.5334
17.46
17.3861
17.3118
17.2374
17.1628
17.0884
17.0144
16.9408
16.8679
16.7957
16.7245
16.6541
16.5848
16.5165
16.4493
16.3832
16.3181
16.2541
16.1912
16.1293
16.0684
16.0086
19.2687
19.1673
19.0677
18.97
18.8741
18.7803
18.6885
18.5987
18.511
18.4253
18.3416
18.2599
18.1799
18.1015
18.0244
17.9485
17.8733
17.7987
17.7245
17.6502
17.5759
17.5015
17.4268
17.352
17.277
17.2021
17.1274
17.0529
16.9788
16.9054
16.8326
16.7605
16.6894
16.6191
16.5498
16.4815
16.4142
16.3479
16.2827
16.2184
16.1551
16.0928
16.0314
15.9709
19.2692
19.1676
19.0678
18.9698
18.8736
18.7793
18.6868
18.5963
18.5077
18.4209
18.336
18.2528
18.1712
18.0911
18.0122
17.9344
17.8574
17.7811
17.7051
17.6294
17.5538
17.4783
17.4028
17.3274
17.2521
17.177
17.1021
17.0277
16.9537
16.8804
16.8078
16.7359
16.6649
16.5947
16.5255
16.4573
16.3899
16.3236
16.2582
16.1937
16.1302
16.0676
16.0058
15.9448
19.2697
19.168
19.068
18.9697
18.8732
18.7785
18.6855
18.5944
18.5051
18.4175
18.3316
18.2474
18.1646
18.0832
18.003
17.9239
17.8455
17.7679
17.6908
17.614
17.5376
17.4613
17.3853
17.3095
17.234
17.1588
17.084
17.0096
16.9358
16.8627
16.7902
16.7185
16.6477
16.5777
16.5086
16.4404
16.3731
16.3067
16.2412
16.1766
16.1129
16.05
15.9879
15.9265
19.2702
19.1684
19.0682
18.9697
18.873
18.7779
18.6846
18.593
18.5031
18.4149
18.3283
18.2432
18.1595
18.0772
17.996
17.9159
17.8366
17.758
17.68
17.6026
17.5255
17.4488
17.3724
17.2964
17.2208
17.1455
17.0708
16.9966
16.9229
16.85
16.7777
16.7062
16.6355
16.5657
16.4967
16.4286
16.3613
16.2949
16.2294
16.1647
16.1008
16.0377
15.9754
15.9137
19.2706
19.1687
19.0684
18.9698
18.8728
18.7775
18.6839
18.5919
18.5016
18.4129
18.3257
18.24
18.1557
18.0726
17.9907
17.9098
17.8298
17.7506
17.672
17.594
17.5165
17.4395
17.3629
17.2867
17.2111
17.1358
17.0612
16.9871
16.9136
16.8408
16.7688
16.6975
16.6269
16.5572
16.4883
16.4203
16.3531
16.2867
16.2211
16.1564
16.0924
16.0291
15.9666
15.9047
19.271
19.169
19.0686
18.9699
18.8727
18.7773
18.6834
18.5912
18.5005
18.4114
18.3238
18.2376
18.1528
18.0692
17.9868
17.9053
17.8248
17.7451
17.6661
17.5877
17.5099
17.4327
17.3559
17.2797
17.204
17.1288
17.0542
16.9803
16.9069
16.8343
16.7624
16.6912
16.6209
16.5513
16.4825
16.4145
16.3473
16.281
16.2154
16.1506
16.0865
16.0231
15.9604
15.8983
19.2713
19.1693
19.0688
18.97
18.8727
18.7771
18.6831
18.5906
18.4997
18.4103
18.3224
18.2359
18.1507
18.0667
17.9839
17.902
17.8211
17.7411
17.6618
17.5831
17.5051
17.4277
17.3509
17.2746
17.1989
17.1237
17.0492
16.9754
16.9022
16.8297
16.7579
16.6869
16.6166
16.5471
16.4784
16.4105
16.3434
16.277
16.2114
16.1466
16.0824
16.019
15.9561
15.8939
19.2716
19.1695
19.069
18.9701
18.8727
18.777
18.6828
18.5902
18.4992
18.4096
18.3215
18.2347
18.1492
18.065
17.9819
17.8998
17.8186
17.7383
17.6588
17.58
17.5018
17.4243
17.3474
17.2711
17.1954
17.1203
17.0459
16.9721
16.899
16.8265
16.7549
16.6839
16.6138
16.5443
16.4757
16.4078
16.3407
16.2744
16.2088
16.1439
16.0797
16.0162
15.9533
15.891
19.2718
19.1696
19.0691
18.9701
18.8728
18.7769
18.6827
18.59
18.4988
18.4091
18.3208
18.2339
18.1483
18.0639
17.9806
17.8983
17.817
17.7365
17.6568
17.5779
17.4997
17.4221
17.3451
17.2688
17.1931
17.118
17.0436
16.9699
16.8968
16.8245
16.7529
16.682
16.6119
16.5425
16.4739
16.4061
16.339
16.2727
16.2071
16.1422
16.078
16.0144
15.9514
15.889
19.2719
19.1697
19.0692
18.9702
18.8728
18.777
18.6827
18.59
18.4987
18.409
18.3206
18.2336
18.1479
18.0634
17.98
17.8977
17.8163
17.7358
17.656
17.5771
17.4988
17.4211
17.3442
17.2678
17.1921
17.1171
17.0427
16.969
16.8959
16.8236
16.752
16.6812
16.6111
16.5418
16.4732
16.4054
16.3383
16.272
16.2064
16.1415
16.0772
16.0136
15.9506
15.8882
18.0623
17.9788
17.8964
17.8149
17.7343
17.6545
17.5754
17.497
17.4193
17.3423
17.2658
17.19
17.1149
17.0404
16.9666
16.8935
16.8211
16.7494
16.6785
16.6083
16.5389
16.4702
18.0627
17.9794
17.897
17.8156
17.7351
17.6553
17.5763
17.498
17.4203
17.3433
17.2668
17.191
17.1159
17.0414
16.9676
16.8944
16.822
16.7503
16.6793
16.6091
16.5397
16.471
18.0639
17.9807
17.8985
17.8173
17.7369
17.6573
17.5784
17.5001
17.4225
17.3455
17.2691
17.1933
17.1181
17.0436
16.9697
16.8965
16.824
16.7522
16.6812
16.611
16.5415
16.4728
18.0655
17.9826
17.9007
17.8197
17.7396
17.6601
17.5814
17.5033
17.4258
17.3489
17.2725
17.1967
17.1215
17.0469
16.9729
16.8996
16.827
16.7552
16.684
16.6137
16.5441
16.4753
18.068
17.9854
17.9039
17.8233
17.7435
17.6643
17.5859
17.508
17.4306
17.3538
17.2775
17.2016
17.1264
17.0517
16.9776
16.9042
16.8315
16.7595
16.6883
16.6178
16.5481
16.4793
18.0713
17.9892
17.9082
17.8281
17.7488
17.6701
17.592
17.5144
17.4373
17.3606
17.2843
17.2085
17.1332
17.0585
16.9843
16.9107
16.8379
16.7657
16.6943
16.6237
16.5539
16.4849
18.0757
17.9944
17.9142
17.8347
17.7561
17.678
17.6004
17.5232
17.4464
17.3699
17.2938
17.2181
17.1427
17.0679
16.9936
16.9199
16.8468
16.7745
16.7029
16.6321
16.5622
16.4931
18.0816
18.0013
17.922
17.8436
17.7658
17.6885
17.6117
17.5351
17.4588
17.3826
17.3067
17.2311
17.1558
17.0809
17.0064
16.9326
16.8593
16.7868
16.715
16.6441
16.574
16.5048
18.0895
18.0105
17.9325
17.8554
17.7788
17.7027
17.6269
17.5512
17.4755
17.3999
17.3244
17.249
17.1738
17.0988
17.0243
16.9503
16.8769
16.8041
16.7322
16.6611
16.5909
16.5216
18.0997
18.0225
17.9464
17.8711
17.7963
17.7218
17.6475
17.573
17.4984
17.4236
17.3486
17.2736
17.1986
17.1238
17.0492
16.9751
16.9016
16.8287
16.7566
16.6854
16.615
16.5457
18.1132
18.0384
17.9649
17.8922
17.8199
17.7478
17.6755
17.6029
17.5299
17.4563
17.3823
17.308
17.2334
17.1588
17.0844
17.0103
16.9367
16.8637
16.7915
16.7202
16.6499
16.5805
18.1309
18.0597
17.9898
17.9208
17.8522
17.7835
17.7144
17.6446
17.5739
17.5023
17.4298
17.3566
17.2828
17.2088
17.1346
17.0607
16.9871
16.9142
16.842
16.7707
16.7003
16.631
18.1546
18.0882
18.0236
17.96
17.8969
17.8334
17.7691
17.7035
17.6365
17.5679
17.4978
17.4264
17.354
17.2808
17.2073
17.1337
17.0603
16.9875
16.9154
16.8442
16.774
16.7048
18.1862
18.127
18.0701
18.0148
17.9599
17.9044
17.8475
17.7885
17.7271
17.6632
17.5969
17.5284
17.4581
17.3864
17.3138
17.2408
17.1679
17.0953
17.0233
16.9523
16.8823
16.8134
18.2288
18.1802
18.1351
18.0924
18.0504
18.0075
17.9622
17.9137
17.8612
17.8047
17.7443
17.6803
17.6133
17.5438
17.4726
17.4004
17.3279
17.2556
17.1839
17.113
17.0433
16.9748
18.2865
18.2538
18.2269
18.204
18.1827
18.1602
18.1341
18.1027
18.065
18.0206
17.9697
17.9129
17.8508
17.7845
17.7152
17.644
17.5719
17.4997
17.4281
17.3574
17.2881
17.2202
18.3651
18.3566
18.3589
18.3692
18.3834
18.3965
18.4038
18.4022
18.3899
18.3661
18.3311
18.2855
18.2309
18.1689
18.1016
18.031
17.9587
17.8861
17.814
17.7433
17.6742
17.6073
18.4729
18.5038
18.5557
18.6252
18.7048
18.7844
18.8542
18.9073
18.9401
18.9516
18.9426
18.9142
18.8693
18.8116
18.745
18.6733
18.5993
18.5251
18.4521
18.3814
18.3136
18.2492
18.6233
18.7195
18.8595
19.0408
19.2491
19.4612
19.6543
19.8121
19.9273
19.9986
20.0293
20.0241
19.989
19.9324
19.8676
19.7971
19.7233
19.6479
19.5739
19.5052
19.4425
19.3866
21.9493
21.8805
21.8085
21.7375
21.6688
21.613
21.5726
21.5485
26.1227
26.0556
25.9937
25.9432
25.9189
25.9454
26.0233
26.1553
18.3959
18.3254
18.2816
18.2815
18.5736
18.4862
18.4081
18.3491
18.3241
18.3545
18.4635
18.5757
18.4911
18.4185
18.369
18.3605
18.4181
18.5688
18.5773
18.4945
18.425
18.3811
18.3823
18.4559
18.6312
18.9248
18.5772
18.4944
18.4249
18.381
18.3822
18.4556
18.6308
18.924
18.8523
18.7583
18.6657
18.5756
18.491
18.4183
18.3688
18.3603
18.4177
18.5682
18.826
18.9479
18.8527
18.7584
18.6651
18.5735
18.486
18.4079
18.3488
18.3237
18.354
18.4628
18.6624
18.9486
18.8533
18.7587
18.6646
18.5712
18.4802
18.3955
18.325
18.2811
18.281
18.3444
18.4832
18.9498
18.8546
18.7598
18.6651
18.5703
18.4761
18.3853
18.304
18.2425
18.2153
18.2398
18.3296
18.9516
18.8567
18.7621
18.6673
18.5717
18.4754
18.3801
18.2905
18.2155
18.1683
18.1657
18.2238
18.3506
19.0496
18.9541
18.8597
18.7659
18.6718
18.5765
18.4798
18.3825
18.2884
18.2054
18.1468
18.1302
18.1751
18.2961
19.1487
19.052
18.9572
18.8639
18.7714
18.6789
18.5854
18.4904
18.3944
18.3006
18.2166
18.1566
18.1409
18.1938
18.3375
19.1508
19.0548
18.9611
18.8692
18.7787
18.6889
18.599
18.5084
18.4176
18.33
18.2538
18.2055
18.2112
18.3051
18.5214
19.1532
19.058
18.9655
18.8755
18.7877
18.7018
18.6173
18.5342
18.4536
18.3799
18.3237
18.3079
18.3743
18.5837
19.0001
19.6546
20.5193
21.6857
23.3691
19.1558
19.0615
18.9703
18.8824
18.798
18.7171
18.64
18.5678
18.5032
18.4533
18.4357
18.4923
18.714
19.2796
20.329
20.6471
21.7843
23.597
26.2054
19.1583
19.0649
18.9752
18.8897
18.8089
18.7338
18.6659
18.6077
18.565
18.5514
18.6007
18.799
19.3945
20.8808
21.3773
24.3701
30.5937
42.307
57.7779
73.6597
19.1607
19.0682
18.9799
18.8966
18.8196
18.7506
18.6924
18.6502
18.6343
18.669
18.8138
19.2348
20.5237
23.8542
26.2288
41.3457
65.714
205.167
512.068
879.626
19.1629
19.071
18.9839
18.9026
18.8289
18.7654
18.7164
18.6895
18.7008
18.7854
19.0288
19.6891
21.3943
22.7564
32.5044
85.8172
235.183
1035.6
19.1647
19.0733
18.987
18.9071
18.8358
18.7764
18.7342
18.719
18.7503
18.8694
19.1723
19.9238
21.7255
23.2554
34.1029
60.4145
327.451
19.1661
19.0748
18.9889
18.9097
18.8396
18.7822
18.7434
18.7335
18.7725
18.9001
19.203
19.8892
21.5422
25.2789
29.3622
56.4958
135.19
769.982
800.395
531.906
19.167
19.0756
18.9896
18.9103
18.8401
18.7826
18.7434
18.7321
18.7663
18.8785
19.1341
19.6713
20.824
23.2359
28.0156
34.158
66.5065
147.612
272.847
355.562
370.905
343.051
310.214
254.701
230
174.598
168.596
165.475
164.112
163.123
161.95
160.376
158.313
155.777
152.841
149.597
146.149
142.596
139.033
135.541
132.202
129.128
19.1675
19.0757
18.9891
18.9091
18.8377
18.7782
18.7355
18.7177
18.7384
18.8213
19.0095
19.3836
20.1073
21.5051
23.9869
27.9605
32.346
48.5204
68.8637
86.0057
96.0596
98.7783
97.1708
94.1446
77.9635
76.3971
75.1912
74.3747
74.5838
75.6032
77.1255
78.9468
80.9127
82.9185
84.8959
86.7647
88.491
90.079
91.5535
92.9435
94.2603
95.6416
97.1744
19.1676
19.0753
18.9878
18.9064
18.833
18.7703
18.7223
18.695
18.6984
18.7485
18.8711
19.1102
19.5422
20.3028
21.573
23.4018
25.5529
28.3212
31.3308
33.9513
35.7609
36.6687
36.853
36.8524
36.8043
36.7171
36.6401
36.601
36.6213
36.8736
37.3613
38.0539
38.925
39.9492
41.1083
42.3902
43.7922
45.3249
47.0135
48.8972
51.025
53.4636
56.2704
19.2643
19.1675
19.0745
18.9859
18.9029
18.827
18.7604
18.7061
18.6688
18.6549
18.6746
18.7431
18.8831
19.1292
19.5334
20.1612
21.0287
22.0329
23.129
24.2172
25.1581
25.8512
26.2683
26.4421
26.4424
26.4239
26.3757
26.3158
26.2552
26.2017
26.163
26.1756
26.2434
26.3685
26.5526
26.7991
27.1137
27.5051
27.987
28.5793
29.3098
30.2135
31.3328
32.7198
19.2646
19.1673
19.0734
18.9836
18.8988
18.8203
18.7496
18.6892
18.6421
18.6127
18.6071
18.6339
18.7046
18.8343
19.0419
19.3468
19.7527
20.2264
20.7199
21.1818
21.5688
21.8574
22.0429
22.135
22.1524
22.1189
22.0732
22.016
21.9508
21.883
21.8154
21.7571
21.7142
21.6881
21.68
21.692
21.7268
21.7887
21.8836
22.0198
22.209
22.4664
22.8096
23.2607
19.2649
19.167
19.0722
18.9812
18.8947
18.8135
18.739
18.6727
18.617
18.5746
18.5489
18.5447
18.5677
18.6241
18.7205
18.8608
19.0429
19.2526
19.4673
19.6636
19.8256
19.9441
20.0187
20.0517
20.0485
20.0152
19.9606
19.8949
19.824
19.7501
19.6764
19.6069
19.5431
19.4857
19.4356
19.3934
19.3601
19.337
19.3261
19.3302
19.353
19.3995
19.4759
19.5891
19.2651
19.1666
19.0711
18.9789
18.8907
18.8071
18.7291
18.6578
18.5947
18.5416
18.5005
18.4739
18.4642
18.474
18.505
18.5572
18.6272
18.7075
18.7882
18.8592
18.9137
18.9477
18.9602
18.9519
18.9242
18.8799
18.823
18.7573
18.6866
18.6137
18.5408
18.4693
18.4003
18.3344
18.2721
18.2138
18.1598
18.1107
18.0672
18.0302
18.001
17.9812
17.9725
17.9771
19.2654
19.1663
19.07
18.9768
18.887
18.8013
18.7202
18.6447
18.5755
18.5139
18.461
18.4181
18.3863
18.3662
18.3579
18.3604
18.371
18.3856
18.3992
18.407
18.4059
18.394
18.3706
18.3357
18.2902
18.2357
18.1739
18.1069
18.0367
17.9649
17.8928
17.8215
17.7515
17.6833
17.6173
17.5537
17.4926
17.4344
17.3793
17.3276
17.28
17.2369
17.1989
17.1666
19.2657
19.1662
19.0692
18.975
18.8839
18.7962
18.7126
18.6335
18.5594
18.4912
18.4294
18.3746
18.3274
18.2877
18.255
18.2283
18.2057
18.1846
18.1623
18.1365
18.1053
18.0677
18.0234
17.9725
17.9156
17.8535
17.7873
17.718
17.6469
17.5749
17.5029
17.4316
17.3612
17.2922
17.2248
17.159
17.0951
17.0331
16.9732
16.9155
16.8603
16.8077
16.758
16.7115
19.266
19.1661
19.0685
18.9734
18.8811
18.7919
18.7062
18.6241
18.5462
18.4729
18.4044
18.341
18.2829
18.2299
18.1814
18.1365
18.0939
18.0521
18.0093
17.9642
17.9157
17.8633
17.8069
17.7464
17.6824
17.6153
17.5458
17.4746
17.4024
17.3299
17.2577
17.1861
17.1154
17.0458
16.9776
16.9107
16.8454
16.7815
16.7193
16.6588
16.6
16.5432
16.4883
16.4354
19.2665
19.1661
19.068
18.9722
18.8789
18.7884
18.7008
18.6165
18.5355
18.4583
18.3848
18.3152
18.2494
18.1872
18.1281
18.0714
18.0162
17.9614
17.9061
17.8492
17.7903
17.729
17.6651
17.5988
17.5303
17.46
17.3883
17.3157
17.2427
17.1697
17.0972
17.0253
16.9543
16.8845
16.8157
16.7483
16.6821
16.6172
16.5538
16.4917
16.4312
16.3721
16.3145
16.2585
19.2669
19.1662
19.0676
18.9712
18.8771
18.7855
18.6965
18.6103
18.527
18.4467
18.3695
18.2953
18.2241
18.1556
18.0893
18.0248
17.9614
17.8983
17.8349
17.7707
17.7052
17.6382
17.5697
17.4996
17.4283
17.3558
17.2827
17.2092
17.1356
17.0623
16.9895
16.9175
16.8464
16.7763
16.7072
16.6394
16.5727
16.5073
16.4431
16.3801
16.3185
16.2581
16.199
16.1412
19.2674
19.1664
19.0674
18.9705
18.8757
18.7832
18.693
18.6053
18.5201
18.4376
18.3576
18.2801
18.2049
18.132
18.0608
17.991
17.922
17.8535
17.785
17.716
17.6462
17.5756
17.5041
17.4316
17.3585
17.2848
17.2107
17.1366
17.0627
16.9892
16.9164
16.8443
16.773
16.7028
16.6336
16.5655
16.4985
16.4327
16.368
16.3045
16.2421
16.1809
16.1208
16.0618
19.2679
19.1667
19.0674
18.97
18.8746
18.7814
18.6903
18.6014
18.5148
18.4304
18.3483
18.2683
18.1903
18.1141
18.0395
17.966
17.8934
17.8213
17.7492
17.6771
17.6045
17.5316
17.4581
17.3842
17.3099
17.2354
17.1609
17.0865
17.0125
16.939
16.8661
16.794
16.7228
16.6525
16.5832
16.515
16.4479
16.3818
16.3168
16.2528
16.1899
16.1281
16.0673
16.0075
19.2685
19.1671
19.0674
18.9697
18.8738
18.78
18.6881
18.5983
18.5105
18.4248
18.3411
18.2592
18.1791
18.1007
18.0235
17.9475
17.8723
17.7976
17.7232
17.6489
17.5746
17.5001
17.4254
17.3505
17.2756
17.2006
17.1259
17.0514
16.9774
16.9039
16.8312
16.7592
16.688
16.6178
16.5486
16.4803
16.4131
16.3468
16.2816
16.2174
16.1541
16.0919
16.0305
15.97
19.269
19.1674
19.0676
18.9695
18.8733
18.7789
18.6865
18.5959
18.5072
18.4204
18.3355
18.2522
18.1706
18.0904
18.0115
17.9336
17.8565
17.7801
17.7041
17.6283
17.5527
17.4772
17.4017
17.3262
17.2509
17.1758
17.101
17.0265
16.9526
16.8793
16.8067
16.7349
16.6639
16.5938
16.5246
16.4563
16.389
16.3227
16.2574
16.1929
16.1294
16.0668
16.005
15.9441
19.2695
19.1678
19.0678
18.9695
18.8729
18.7782
18.6852
18.5941
18.5047
18.4171
18.3311
18.2468
18.164
18.0826
18.0023
17.9231
17.8447
17.7671
17.6899
17.6131
17.5366
17.4604
17.3844
17.3086
17.233
17.1578
17.083
17.0087
16.9349
16.8618
16.7894
16.7177
16.6469
16.5769
16.5078
16.4396
16.3724
16.306
16.2406
16.176
16.1123
16.0494
15.9873
15.926
19.27
19.1682
19.068
18.9695
18.8727
18.7776
18.6843
18.5927
18.5028
18.4145
18.3278
18.2427
18.159
18.0766
17.9954
17.9152
17.8359
17.7573
17.6793
17.6018
17.5247
17.448
17.3716
17.2956
17.22
17.1448
17.07
16.9958
16.9222
16.8493
16.777
16.7056
16.6349
16.5651
16.4961
16.428
16.3608
16.2944
16.2289
16.1642
16.1003
16.0373
15.9749
15.9133
19.2705
19.1686
19.0683
18.9696
18.8726
18.7773
18.6837
18.5917
18.5013
18.4126
18.3254
18.2396
18.1553
18.0722
17.9902
17.9093
17.8293
17.75
17.6714
17.5934
17.5159
17.4389
17.3623
17.2861
17.2104
17.1352
17.0606
16.9865
16.9131
16.8403
16.7683
16.697
16.6265
16.5568
16.4879
16.4199
16.3527
16.2863
16.2208
16.156
16.0921
16.0288
15.9663
15.9044
19.2709
19.1689
19.0685
18.9698
18.8726
18.7771
18.6832
18.591
18.5003
18.4112
18.3235
18.2373
18.1525
18.0689
17.9864
17.9049
17.8244
17.7446
17.6656
17.5872
17.5094
17.4322
17.3554
17.2792
17.2035
17.1284
17.0538
16.9798
16.9065
16.8339
16.762
16.6909
16.6205
16.551
16.4822
16.4142
16.3471
16.2808
16.2152
16.1504
16.0863
16.023
15.9603
15.8982
19.2713
19.1692
19.0688
18.9699
18.8726
18.777
18.6829
18.5905
18.4995
18.4101
18.3222
18.2357
18.1504
18.0664
17.9836
17.9017
17.8208
17.7407
17.6614
17.5828
17.5047
17.4273
17.3505
17.2742
17.1985
17.1234
17.0489
16.9751
16.9019
16.8294
16.7576
16.6866
16.6164
16.5469
16.4782
16.4103
16.3432
16.2769
16.2113
16.1465
16.0824
16.0189
15.9561
15.8939
19.2716
19.1695
19.069
18.97
18.8727
18.7769
18.6827
18.5901
18.499
18.4094
18.3213
18.2345
18.149
18.0648
17.9816
17.8995
17.8183
17.738
17.6585
17.5797
17.5015
17.424
17.3471
17.2708
17.1951
17.1201
17.0456
16.9718
16.8988
16.8264
16.7547
16.6838
16.6136
16.5442
16.4756
16.4078
16.3407
16.2744
16.2088
16.1439
16.0797
16.0162
15.9533
15.891
19.2718
19.1696
19.0691
18.9701
18.8727
18.7769
18.6826
18.5899
18.4987
18.409
18.3207
18.2337
18.1481
18.0636
17.9803
17.898
17.8167
17.7362
17.6566
17.5776
17.4994
17.4218
17.3449
17.2685
17.1928
17.1178
17.0434
16.9697
16.8966
16.8243
16.7527
16.6819
16.6118
16.5424
16.4739
16.4061
16.339
16.2727
16.2071
16.1422
16.078
16.0145
15.9515
15.8891
19.2719
19.1697
19.0692
18.9702
18.8728
18.7769
18.6826
18.5898
18.4986
18.4088
18.3205
18.2334
18.1477
18.0632
17.9798
17.8974
17.816
17.7355
17.6558
17.5768
17.4985
17.4209
17.3439
17.2676
17.1919
17.1169
17.0425
16.9688
16.8958
16.8235
16.7519
16.6811
16.611
16.5417
16.4732
16.4054
16.3383
16.272
16.2064
16.1415
16.0773
16.0137
15.9507
15.8883
18.0619
17.9785
17.896
17.8145
17.7339
17.6541
17.575
17.4966
17.4189
17.3419
17.2655
17.1897
17.1146
17.0402
16.9664
16.8933
16.8209
16.7493
16.6784
16.6083
16.5389
16.4703
18.0624
17.979
17.8966
17.8152
17.7346
17.6549
17.5759
17.4975
17.4199
17.3428
17.2664
17.1907
17.1156
17.0411
16.9673
16.8942
16.8218
16.7501
16.6792
16.609
16.5396
16.471
18.0635
17.9802
17.898
17.8168
17.7364
17.6567
17.5778
17.4996
17.422
17.345
17.2686
17.1929
17.1177
17.0432
16.9693
16.8962
16.8237
16.752
16.681
16.6108
16.5413
16.4726
18.065
17.982
17.9
17.819
17.7388
17.6594
17.5807
17.5026
17.4251
17.3481
17.2718
17.196
17.1208
17.0462
16.9723
16.899
16.8265
16.7546
16.6836
16.6132
16.5437
16.475
18.0671
17.9845
17.9029
17.8223
17.7424
17.6633
17.5848
17.5069
17.4295
17.3527
17.2763
17.2006
17.1253
17.0507
16.9766
16.9033
16.8306
16.7586
16.6874
16.617
16.5473
16.4785
18.07
17.9879
17.9069
17.8267
17.7473
17.6686
17.5905
17.5128
17.4357
17.359
17.2827
17.207
17.1317
17.0569
16.9828
16.9093
16.8364
16.7643
16.6929
16.6223
16.5526
16.4836
18.0741
17.9927
17.9124
17.8329
17.7542
17.676
17.5984
17.5212
17.4443
17.3679
17.2917
17.216
17.1407
17.0659
16.9916
16.9179
16.8449
16.7726
16.701
16.6303
16.5604
16.4913
18.0798
17.9994
17.92
17.8415
17.7636
17.6863
17.6093
17.5327
17.4563
17.3802
17.3043
17.2286
17.1533
17.0784
17.004
16.9302
16.857
16.7845
16.7127
16.6418
16.5718
16.5026
18.0874
18.0083
17.9302
17.853
17.7763
17.7001
17.6242
17.5484
17.4727
17.3971
17.3215
17.2461
17.1708
17.0959
17.0214
16.9474
16.8741