/*--------------------------------*- C++ -*----------------------------------*\
  =========                 |
  \\      /  F ield         | OpenFOAM: The Open Source CFD Toolbox
   \\    /   O peration     | Website:  https://openfoam.org
    \\  /    A nd           | Version:  13
     \\/     M anipulation  |
\*---------------------------------------------------------------------------*/
FoamFile
{
    format      ascii;
    class       volScalarField;
    location    "200";
    object      p;
}
// * * * * * * * * * * * * * * * * * * * * * * * * * * * * * * * * * * * * * //

dimensions      [0 2 -2 0 0 0 0];

internalField   nonuniform List<scalar> 
171634
(
7.19615
6.69048
6.17669
5.65772
5.13654
4.616
4.09873
3.58695
3.08238
2.58628
2.09934
1.62174
1.15308
0.692525
0.238877
-0.209276
-0.653571
-1.09571
-1.53743
-1.9804
-2.42607
-2.8756
7.19618
6.68677
6.16924
5.64665
5.1221
4.59855
4.07874
3.56496
3.05901
2.56216
2.07511
1.59799
1.13035
0.67126
0.21943
-0.226696
-0.668854
-1.10887
-1.54857
-1.9897
-2.43378
-2.88203
7.19884
6.68187
6.15672
5.62673
5.09525
4.5655
4.04041
3.52247
3.0136
2.51513
2.02774
1.5515
1.08583
0.629632
0.181404
-0.260647
-0.698497
-1.1342
-1.56979
-2.00716
-2.44798
-2.8936
7.20279
6.67409
6.13711
5.5956
5.05333
4.51393
3.98067
3.45631
2.94299
2.44211
1.95434
1.47961
1.01716
0.5656
0.123105
-0.312486
-0.743524
-1.17242
-1.60151
-2.03296
-2.46866
-2.91014
7.20851
6.66354
6.11011
5.55254
4.99522
4.44235
3.89772
3.3645
2.8451
2.34105
1.85298
1.38064
0.922943
0.478121
0.0438634
-0.382507
-0.80386
-1.2231
-1.643
-2.06611
-2.4946
-2.93025
7.21577
6.64937
6.07418
5.49532
4.91802
4.34729
3.78765
3.24284
2.71563
2.2077
1.71963
1.2509
0.799991
0.364562
-0.0583529
-0.472129
-0.880335
-1.28653
-1.69406
-2.10597
-2.5248
-2.95265
7.22475
6.63095
6.02779
5.42149
4.81842
4.2247
3.64582
3.08629
2.54939
2.03699
1.54956
1.08618
0.644738
0.222112
-0.185549
-0.582553
-0.973387
-1.36245
-1.75383
-2.15117
-2.55748
-2.97521
7.23573
6.60743
5.9689
5.32777
4.69194
4.06904
3.46588
2.88802
2.33936
1.82204
1.33631
0.880719
0.452312
0.0469149
-0.340513
-0.715511
-1.08375
-1.45072
-1.8214
-2.20016
-2.59058
-2.99548
7.24934
6.57806
5.89515
5.21012
4.53293
3.87325
3.23971
2.63922
2.07656
1.55408
1.07175
0.627349
0.21675
-0.165643
-0.526453
-0.87284
-1.21201
-1.5508
-1.89531
-2.25075
-2.62131
-3.0102
7.26676
6.54217
5.80375
5.06351
4.33421
3.62828
2.95681
2.32856
1.74938
1.22188
0.745534
0.317013
-0.069396
-0.421221
-0.747196
-1.05661
-1.35864
-1.66183
-1.97361
-2.30014
-2.64621
-3.01542
7.29001
6.49945
5.69161
4.88187
4.08676
3.32256
2.6037
1.94143
1.34296
0.811101
0.344564
-0.0615849
-0.415247
-0.726559
-1.00708
-1.26891
-1.52378
-1.78232
-2.05355
-2.34463
-2.66094
-3.00631
7.32246
6.45023
5.5554
4.65782
3.77923
2.94124
2.16295
1.45898
0.838194
0.303504
-0.147658
-0.522492
-0.831921
-1.08962
-1.31094
-1.5117
-1.70694
-1.9099
-2.13136
-2.37951
-2.66013
-2.97709
7.36944
6.39605
5.3918
4.38254
3.39728
2.46517
1.6119
0.856649
0.210365
-0.324322
-0.751992
-1.08312
-1.3328
-1.51952
-1.66376
-1.78633
-1.90655
-2.04082
-2.20186
-2.3987
-2.63722
-2.92089
7.4394
6.34051
5.19793
4.04563
2.92287
1.86964
0.921062
0.102555
-0.572518
-1.10243
-1.49495
-1.76521
-1.93408
-2.02664
-2.07043
-2.093
-2.11923
-2.16931
-2.25789
-2.39442
-2.58421
-2.82975
7.54539
6.29056
4.97196
3.63453
2.33226
1.12126
0.0506124
-0.845705
-1.55204
-2.06901
-2.40949
-2.59512
-2.65452
-2.62191
-2.53467
-2.4296
-2.33881
-2.28683
-2.28986
-2.35687
-2.49161
-2.69457
7.70733
6.25921
4.7163
3.13756
1.59773
0.177031
-1.05375
-2.04731
-2.78593
-3.27587
-3.53868
-3.60559
-3.5157
-3.31574
-3.05704
-2.78934
-2.55405
-2.3802
-2.28446
-2.27375
-2.3486
-2.50602
7.95927
6.27429
4.44471
2.54812
0.690061
-1.01202
-2.45501
-3.5735
-4.347
-4.79001
-4.9379
-4.83701
-4.54185
-4.11694
-3.63356
-3.15949
-2.74766
-2.43082
-2.22377
-2.12876
-2.14075
-2.25136
8.35351
6.37789
4.17845
1.85672
-0.436079
-2.52342
-4.25029
-5.52479
-6.32833
-6.69417
-6.67532
-6.33562
-5.7539
-5.02297
-4.24459
-3.5116
-2.88957
-2.41178
-2.0864
-1.90671
-1.85873
-1.92607
8.95926
6.62927
3.94941
1.04868
-1.85385
-4.4824
-6.59265
-8.05596
-8.87015
-9.1052
-8.8422
-8.16457
-7.18019
-6.02771
-4.85865
-3.80156
-2.93293
-2.27873
-1.83284
-1.57382
-1.47443
-1.50708
-5.40099
-3.96643
-2.83432
-2.00798
-1.45695
-1.13843
-1.0073
-1.02154
-5.67888
-3.82713
-2.44171
-1.47429
-0.857192
-0.519629
-0.393554
-0.419727
31.2838
31.3417
31.0363
30.2688
30.5718
31.086
31.3919
31.411
31.05
30.2069
28.7917
30.6812
31.1875
31.4801
31.478
31.0849
30.197
28.7216
30.7351
31.2382
31.5249
31.513
31.1046
30.1955
28.6897
26.5177
30.7333
31.236
31.5223
31.5099
31.1008
30.1909
28.684
26.5106
28.4695
29.2735
30.0224
30.6757
31.181
31.4723
31.4687
31.0737
30.1833
28.7047
26.5709
27.53
28.3551
29.1572
29.9063
30.5628
31.0753
31.3793
31.396
31.032
30.185
28.7652
26.7094
27.3678
28.1891
28.9904
29.743
30.4085
30.9374
31.2672
31.322
31.0128
30.2405
28.9139
26.9722
27.1574
27.9759
28.7796
29.5415
30.2257
30.7851
31.1603
31.2786
31.0552
30.3942
29.1988
27.4024
26.9021
27.72
28.5309
29.3105
30.0262
30.635
31.0811
31.2957
31.1961
30.6877
29.6657
28.044
25.7726
25.802
26.6038
27.4235
28.2469
29.0537
29.8159
30.4957
31.0427
31.392
31.4621
31.1546
30.3525
28.9388
26.823
24.7042
25.4662
26.2621
27.0854
27.9259
28.7686
29.5917
30.3644
31.0437
31.5701
31.863
31.816
31.2925
30.1328
28.181
24.3386
25.086
25.8744
26.7009
27.5603
28.4441
29.3386
30.2224
31.0627
31.8087
32.3835
32.6725
32.5111
31.6809
29.9229
23.93
24.6588
25.4355
26.2614
27.1368
28.0606
29.0289
30.0324
31.0526
32.0536
32.9687
33.6847
34.0081
33.6384
32.1698
29.1567
24.4022
17.7932
9.89832
23.4771
24.1812
24.9391
25.7559
26.6376
27.5908
28.6221
29.737
30.9356
32.2042
33.5026
34.737
35.7047
36.0258
35.0922
32.0843
26.656
19.8662
10.3985
22.9793
23.6503
24.3788
25.173
26.0434
27.0034
28.0698
29.2622
30.6016
32.1038
33.7716
35.5625
37.3258
38.6927
38.8734
36.4296
30.9188
21.056
7.82438
-6.89302
22.4367
23.0648
23.7504
24.5036
25.3377
26.2702
27.3241
28.5296
29.9231
31.5463
33.4456
35.6522
38.1376
40.6866
41.6678
41.1118
36.2099
24.347
8.70996
-15.6734
-36.8944
21.8519
22.4261
23.0538
23.745
24.5128
25.3747
26.3542
27.4818
28.7942
30.3376
32.1651
34.3226
36.8113
39.5133
41.8066
42.9295
39.625
31.1536
8.39282
-28.0361
-77.0281
-72.366
21.2299
21.7398
22.2949
22.9031
23.5745
24.3218
25.1618
26.1133
27.195
28.4222
29.7929
31.26
32.6627
33.5978
35.4571
32.9418
22.3917
5.40932
-45.7382
-155.92
-86.4698
-45.7546
20.5783
21.0152
21.4855
21.9936
22.544
23.1413
23.7896
24.4893
25.2281
25.9674
26.618
26.9869
26.6671
24.8111
20.071
16.5582
-1.56046
-32.4269
-63.2443
-100.979
-108.495
-64.9078
-43.9466
-23.6496
-10.4587
19.9072
20.2653
20.6429
21.04
21.4548
21.8826
22.313
22.7279
23.0851
23.2999
23.2206
22.5753
20.8901
17.3731
10.8922
0.303074
-10.5303
-30.4424
-46.7539
-55.5633
-53.1365
-44.4933
-34.1342
-23.279
-12.2612
-6.69464
-2.98681
-0.784001
0.550667
1.26908
1.50247
1.4039
1.11672
0.746207
0.365164
0.0271855
-0.226029
-0.362947
-0.364731
-0.231792
0.00349479
0.25268
19.2277
19.5048
19.787
20.0698
20.3458
20.6019
20.8164
20.9567
20.964
20.7336
20.0991
18.8034
16.4651
12.569
6.53888
-1.91695
-12.1182
-22.0206
-31.0075
-35.3326
-35.3728
-32.049
-26.8444
-18.4994
-13.1025
-8.36853
-4.70197
-2.18158
-0.567239
0.386614
0.855486
0.984082
0.895053
0.681613
0.410872
0.133183
-0.113345
-0.303655
-0.428672
-0.502698
-0.573755
-0.740379
-1.17486
18.5514
18.7488
18.9376
19.11
19.254
19.3512
19.373
19.2782
19.0051
18.4544
17.478
15.8765
13.3977
9.76608
4.77456
-1.53447
-8.48189
-14.7789
-19.5733
-22.1063
-22.5736
-21.4024
-19.0305
-15.8669
-12.1774
-8.56632
-5.53348
-3.25933
-1.68712
-0.674453
-0.0890743
0.178343
0.221555
0.117616
-0.0742244
-0.309346
-0.555746
-0.794951
-1.02462
-1.26357
-1.55935
-2.00075
-2.7244
17.7544
17.8892
18.011
18.1125
18.1836
18.2096
18.1693
18.0322
17.7546
17.2795
16.5254
15.3768
13.6928
11.3219
8.13289
4.08091
-0.697858
-5.77045
-10.4064
-13.9734
-16.0074
-16.6347
-16.1489
-14.8055
-12.8117
-10.3808
-7.86056
-5.58411
-3.73915
-2.36872
-1.42599
-0.837189
-0.528491
-0.431795
-0.487556
-0.647779
-0.876283
-1.14826
-1.45105
-1.78632
-2.17333
-2.65309
-3.29287
-4.18758
17.1767
17.2503
17.3029
17.326
17.3082
17.2337
17.0809
16.8205
16.4127
15.8067
14.94
13.7323
12.0906
9.92891
7.19539
3.91246
0.226838
-3.5528
-6.98354
-9.65083
-11.3433
-12.1045
-12.0795
-11.4103
-10.2242
-8.67378
-6.96579
-5.31833
-3.89599
-2.77819
-1.97132
-1.4433
-1.14957
-1.04432
-1.08531
-1.23689
-1.47159
-1.77102
-2.12691
-2.54266
-3.03537
-3.63752
-4.39636
-5.37321
16.6239
16.6421
16.6332
16.5881
16.4952
16.3388
16.0987
15.7485
15.2545
14.5749
13.662
12.4636
10.9248
9.00148
6.68211
4.01291
1.12145
-1.77523
-4.4028
-6.51649
-7.98464
-8.80047
-9.0301
-8.75773
-8.07417
-7.0921
-5.94928
-4.79276
-3.74825
-2.89365
-2.25658
-1.83071
-1.59347
-1.51699
-1.57347
-1.73816
-1.99151
-2.32055
-2.72008
-3.19373
-3.75485
-4.42694
-5.24245
-6.23947
16.1007
16.07
16.0079
15.9053
15.7509
15.5303
15.2255
14.8138
14.2681
13.5565
12.6434
11.4949
10.0819
8.38733
6.41952
4.22771
1.91256
-0.375719
-2.46129
-4.18892
-5.46513
-6.2691
-6.63237
-6.60926
-6.26727
-5.68789
-4.9639
-4.19536
-3.47371
-2.86459
-2.40184
-2.0936
-1.93262
-1.90458
-1.9929
-2.18174
-2.45813
-2.81344
-3.24454
-3.75446
-4.35274
-5.05516
-5.88213
-6.85551
15.6105
15.5376
15.4303
15.2804
15.0773
14.8082
14.4577
14.0073
13.4356
12.7193
11.834
10.7575
9.47535
7.98593
6.30679
4.48282
2.59108
0.736591
-0.963567
-2.40613
-3.5249
-4.29832
-4.74025
-4.88677
-4.78585
-4.49345
-4.07438
-3.59928
-3.13516
-2.73487
-2.43142
-2.23941
-2.16079
-2.19036
-2.31956
-2.53916
-2.84113
-3.22011
-3.67422
-4.20568
-4.82066
-5.52887
-6.34228
-7.27213
15.1555
15.0465
14.902
14.714
14.4734
14.169
13.7882
13.3161
12.7366
12.0331
11.1895
10.1931
9.03767
7.72798
6.28425
4.74553
3.17046
1.63347
0.214575
-1.01537
-2.00872
-2.74727
-3.23711
-3.50008
-3.56827
-3.48153
-3.28687
-3.03542
-2.77658
-2.55163
-2.38958
-2.30699
-2.31064
-2.40096
-2.57481
-2.82768
-3.1552
-3.55431
-4.02402
-4.56574
-5.1832
-5.88183
-6.66766
-7.54515
14.7364
14.5974
14.4225
14.2047
13.9359
13.6071
13.2077
12.7265
12.1514
11.4709
10.675
9.75716
8.71653
7.561
6.30951
4.99408
3.65944
2.35941
1.14993
0.0801046
-0.815962
-1.52245
-2.03993
-2.38145
-2.56907
-2.63184
-2.6042
-2.52351
-2.4264
-2.34485
-2.3033
-2.31791
-2.39759
-2.54602
-2.76356
-3.04886
-3.40008
-3.81578
-4.29548
-4.83996
-5.45112
-6.13147
-6.88312
-7.70644
14.3535
14.1897
13.9905
13.7497
13.4607
13.1157
12.7067
12.2249
11.6618
11.0096
10.2625
9.41767
8.47747
7.45074
6.3544
5.21423
4.06405
2.94299
1.89094
0.942973
0.124546
-0.550933
-1.08174
-1.47579
-1.74844
-1.92077
-2.01804
-2.06781
-2.09755
-2.13205
-2.19144
-2.29032
-2.43807
-2.63999
-2.89847
-3.21416
-3.58684
-4.01611
-4.50181
-5.04425
-5.64403
-6.30171
-7.01707
-7.78814
14.006
13.8222
13.6038
13.3459
13.0426
12.688
12.2756
11.799
11.2521
10.6301
9.92977
9.15084
8.29705
7.37714
6.40568
5.40324
4.39555
3.41154
2.48025
1.62734
0.871956
0.225035
-0.31083
-0.740308
-1.07401
-1.32717
-1.51836
-1.66812
-1.7972
-1.92488
-2.0675
-2.23773
-2.44456
-2.69384
-2.98902
-3.33188
-3.7232
-4.16321
-4.65194
-5.18935
-5.77522
-6.40888
-7.08874
-7.81158
13.6931
13.4931
13.26
12.9894
12.6767
12.3171
11.9057
11.4377
10.9092
10.317
9.65991
8.93905
8.15873
7.32703
6.45624
5.56274
4.6663
3.78857
2.95109
2.17291
1.46858
0.84695
0.310881
-0.142252
-0.519743
-0.832599
-1.09456
-1.32099
-1.52771
-1.72972
-1.9402
-2.1699
-2.42696
-2.71719
-3.0444
-3.41095
-3.81814
-4.26656
-4.75632
-5.28714
-5.85829
-6.46839
-7.11509
-7.79461
13.4132
13.2004
12.9561
12.6765
12.3581
11.9969
11.5892
11.1318
10.6219
10.058
9.43981
8.76936
8.05098
7.2919
6.50238
5.69548
4.88653
4.09197
3.328
2.609
1.94618
1.34668
0.813309
0.344701
-0.0641287
-0.421136
-0.736499
-1.02179
-1.2891
-1.55013
-1.81548
-2.09412
-2.39321
-2.71812
-3.07266
-3.45936
-3.87976
-4.3346
-4.82401
-5.34756
-5.90421
-6.4922
-7.10882
-7.75016
13.165
12.9422
12.6894
12.4037
12.0821
11.7215
11.3193
10.8732
10.3814
9.84331
9.25952
8.63228
7.96577
7.26632
6.54246
5.80468
5.06494
4.33592
3.62999
2.95817
2.3292
1.74885
1.21973
0.741259
0.310069
-0.0795866
-0.435261
-0.765698
-1.08017
-1.38786
-1.69724
-2.01573
-2.34948
-2.70329
-3.08072
-3.48425
-3.91544
-4.37508
-4.86326
-5.37945
-5.92246
-6.49036
-7.08033
-7.68852
12.9468
12.7163
12.4573
12.1676
11.8446
11.4862
11.0903
10.6553
10.1804
9.66542
9.11147
8.52088
7.89753
7.24691
6.5761
5.89358
5.20882
4.53169
3.87181
3.23775
2.63639
2.07246
1.54828
1.0638
0.616758
0.203016
-0.183041
-0.548041
-0.899132
-1.2435
-1.58796
-1.93859
-2.30058
-2.67812
-3.07442
-3.49177
-3.93163
-4.39475
-4.88118
-5.39031
-5.92089
-6.47094
-7.03769
-7.61748
12.7572
12.5207
12.2574
11.9651
11.6421
11.2866
10.8971
10.4728
10.0131
9.51836
8.98993
8.43011
7.84242
7.2316
6.60357
5.96523
5.32417
4.68823
4.06496
3.46114
2.88228
2.33227
1.81319
1.3253
0.86712
0.435672
0.0267784
-0.364599
-0.743991
-1.11705
-1.48924
-1.86553
-2.25027
-2.64704
-3.05866
-3.48717
-3.93388
-4.39945
-4.88387
-5.38648
-5.90602
-6.44054
-6.98737
-7.54311
12.5947
12.3537
12.0872
11.7936
11.4713
11.1191
10.7359
10.3212
9.87484
9.39754
8.89061
8.3563
7.79779
7.21919
6.62548
6.02235
5.41597
4.81263
4.21842
3.63876
3.07815
2.53982
2.02564
1.53605
1.07012
0.625731
0.19976
-0.211642
-0.612774
-1.0081
-1.40201
-1.79858
-2.20141
-2.61355
-3.03742
-3.4748
-3.92684
-4.39406
-4.87639
-5.37317
-5.88313
-6.40438
-6.93441
-7.47007
12.458
12.2137
11.9451
11.6508
11.3297
10.9807
10.6032
10.197
9.7621
9.2994
8.81025
8.29678
7.76184
7.20903
6.64258
6.06727
5.48819
4.91051
4.33918
3.77868
3.23271
2.70403
2.1943
1.70409
1.23285
0.779082
0.340436
-0.0860405
-0.503716
-0.916147
-1.32687
-1.73924
-2.15625
-2.58048
-3.01399
-3.45829
-3.91438
-4.38266
-4.863
-5.35471
-5.85655
-6.36671
-6.88284
-7.402
12.3459
12.0992
11.8292
11.5347
11.2149
10.869
10.4965
10.0974
9.67204
9.22126
8.74646
8.24963
7.73336
7.20081
6.65568
6.10201
5.54411
4.98631
4.43276
3.8872
3.35279
2.83189
2.32603
1.83583
1.36102
0.900532
0.452606
0.0149385
-0.41514
-0.840495
-1.26402
-1.68847
-2.11638
-2.54992
-2.99084
-3.44045
-3.89955
-4.36847
-4.84701
-5.33447
-5.82963
-6.33078
-6.83567
-7.34161
12.2575
12.0091
11.7382
11.4438
11.1253
10.7819
10.4136
10.0203
9.60246
9.16104
8.6974
8.21341
7.71145
7.19436
6.66538
6.12807
5.58614
5.04333
4.50319
3.96896
3.44337
2.92852
2.42583
1.93594
1.45878
0.993597
0.539027
0.0932512
-0.34589
-0.780751
-1.21374
-1.64717
-2.0832
-2.52368
-2.97013
-3.42366
-3.88494
-4.3542
-4.83122
-5.31526
-5.80514
-6.29922
-6.79537
-7.29105
12.192
11.9425
11.671
11.3769
11.0594
10.7181
10.353
9.96403
9.55187
9.1174
8.66196
8.18736
7.69579
7.18986
6.67253
6.14697
5.61649
5.08442
4.5539
4.02782
3.50862
2.99822
2.49794
2.00845
1.52979
1.06143
0.602298
0.150895
-0.29458
-0.736118
-1.17578
-1.61557
-2.05736
-2.50278
-2.95315
-3.40944
-3.87223
-4.34167
-4.81749
-5.29897
-5.78494
-6.27381
-6.76355
-7.25174
12.1488
11.8985
11.6268
11.3329
11.0162
10.6763
10.3133
9.92727
9.51884
9.08893
8.63887
8.17037
7.68554
7.18684
6.67702
6.15902
5.63591
5.11074
4.58642
4.06559
3.55054
3.04304
2.54438
2.05523
1.57571
1.10541
0.64344
0.188515
-0.260945
-0.706702
-1.15059
-1.59443
-2.03988
-2.48844
-2.9413
-3.39933
-3.86305
-4.33257
-4.80757
-5.28734
-5.77073
-6.25617
-6.74171
-7.225
12.1276
11.8771
11.6053
11.3116
10.9953
10.6563
10.2944
9.90996
9.50348
9.07592
8.62859
8.16317
7.68173
7.18662
6.68051
6.16624
5.64674
5.12493
4.60361
4.08532
3.57225
3.06613
2.5682
2.07916
1.59917
1.12788
0.66448
0.207792
-0.243655
-0.691509
-1.1375
-1.58333
-2.0306
-2.48071
-2.93479
-3.39368
-3.85785
-4.32739
-4.80197
-5.28089
-5.76299
-6.24673
-6.73019
-7.21105
7.20172
6.69694
6.184
5.66585
5.14545
4.62561
4.10897
3.59772
3.09359
2.59781
2.1111
1.63361
1.16497
0.704318
0.250501
-0.197919
-0.642532
-1.08505
-1.52718
-1.97058
-2.4167
-2.86671
7.20186
6.69335
6.17669
5.65495
5.13119
4.60838
4.08921
3.57598
3.07047
2.57394
2.08711
1.6101
1.14246
0.683258
0.231231
-0.215174
-0.657677
-1.09809
-1.53823
-1.97982
-2.42439
-2.87312
7.20473
6.6887
6.16448
5.63538
5.10473
4.57575
4.05134
3.53397
3.02555
2.52741
2.04024
1.56409
1.09839
0.64205
0.193587
-0.248783
-0.687023
-1.12317
-1.55924
-1.99713
-2.43848
-2.88463
7.209
6.68132
6.14534
5.60479
5.06343
4.52484
3.9923
3.46855
2.95571
2.45516
1.9676
1.49294
1.03042
0.578672
0.135883
-0.300093
-0.73159
-1.161
-1.59065
-2.0227
-2.45901
-2.90108
7.21514
6.6713
6.11897
5.56246
5.00613
4.45416
3.91032
3.37776
2.85887
2.35517
1.86729
1.39498
0.937167
0.492089
0.0574548
-0.369393
-0.791304
-1.21116
-1.63173
-2.05553
-2.48473
-2.92108
7.22293
6.65779
6.08383
5.50617
4.92998
4.36027
3.80152
3.25743
2.73077
2.22321
1.73532
1.26658
0.815473
0.379693
-0.0437098
-0.458087
-0.866984
-1.27393
-1.68227
-2.09501
-2.51469
-2.94336
7.23254
6.64016
6.03842
5.43348
4.8317
4.23914
3.66127
3.10257
2.56628
2.05427
1.56699
1.10353
0.661798
0.238695
-0.169601
-0.567368
-0.959062
-1.34906
-1.74142
-2.13976
-2.54708
-2.9658
7.24425
6.61758
5.98068
5.34113
4.7068
4.08525
3.48328
2.90637
2.35842
1.8415
1.35589
0.900137
0.471309
0.0652686
-0.322984
-0.69895
-1.06827
-1.43638
-1.80826
-2.18824
-2.57987
-2.98596
7.25866
6.58926
5.90823
5.22506
4.54964
3.89159
3.25945
2.66011
2.09825
1.57622
1.09396
0.649278
0.238082
-0.145171
-0.507049
-0.85466
-1.19517
-1.53536
-1.88134
-2.23826
-2.61028
-3.0006
7.27692
6.55451
5.81829
5.08024
4.35306
3.64909
2.97934
2.35248
1.77426
1.24725
0.770921
0.341954
-0.0452903
-0.39826
-0.725611
-1.03656
-1.34025
-1.64516
-1.95871
-2.28701
-2.63486
-3.00579
7.30101
6.51293
5.70766
4.90052
4.10797
3.34618
2.62948
1.96896
1.37168
0.840388
0.373762
-0.0330693
-0.387897
-0.700733
-0.98302
-1.24677
-1.50365
-1.76428
-2.03763
-2.33084
-2.64927
-2.99671
7.33415
6.46475
5.57289
4.67837
3.8029
2.96795
2.19245
1.49076
0.871525
0.337496
-0.113911
-0.489786
-0.800856
-1.06058
-1.28415
-1.48727
-1.68494
-1.89037
-2.11434
-2.36501
-2.64815
-2.96757
7.38154
6.41128
5.41038
4.4047
3.42326
2.49508
1.64555
0.893441
0.249259
-0.284626
-0.712823
-1.04558
-1.29762
-1.48706
-1.63414
-1.75954
-1.88259
-2.01972
-2.18367
-2.38346
-2.62492
-2.91152
7.45135
6.35572
5.21674
4.06852
2.95046
1.90245
0.959153
0.145195
-0.52686
-1.05578
-1.44934
-1.72223
-1.89459
-1.99086
-2.03818
-2.06402
-2.09338
-2.14662
-2.23847
-2.37836
-2.57158
-2.82055
7.55623
6.30441
4.98928
3.65625
2.3598
1.15605
0.0933198
-0.796024
-1.49787
-2.01374
-2.35634
-2.54638
-2.61112
-2.5836
-2.50061
-2.399
-2.31135
-2.26259
-2.26911
-2.33987
-2.47851
-2.68546
7.7155
6.26926
4.72869
3.15389
1.62101
0.210852
-1.00705
-1.98883
-2.72028
-3.20922
-3.47665
-3.55152
-3.4702
-3.27732
-3.02336
-2.75861
-2.5257
-2.35462
-2.26233
-2.25563
-2.33484
-2.49684
7.96252
6.27654
4.44605
2.55118
0.70091
-0.985322
-2.40673
-3.50448
-4.26538
-4.70771
-4.86561
-4.7799
-4.49914
-4.08399
-3.60487
-3.13147
-2.71966
-2.40413
-2.19997
-2.10901
-2.12575
-2.24156
8.34887
6.36618
4.1583
1.83198
-0.453441
-2.51585
-4.20413
-5.44032
-6.2218
-6.58907
-6.59155
-6.28178
-5.72534
-5.00764
-4.23039
-3.49221
-2.86526
-2.38595
-2.06226
-1.88631
-1.8433
-1.91641
8.94335
6.59418
3.88916
0.967567
-1.93179
-4.51723
-6.55388
-7.94528
-8.72236
-8.96669
-8.74907
-8.12907
-7.18862
-6.05177
-4.87282
-3.79614
-2.91245
-2.25201
-1.80634
-1.55074
-1.45658
-1.49567
-5.4706
-3.98764
-2.82321
-1.98353
-1.43061
-1.11532
-0.990336
-1.01251
-5.83237
-3.87139
-2.42723
-1.43922
-0.818513
-0.484636
-0.367011
-0.404554
31.5474
31.6582
31.3983
30.6587
30.7542
31.322
31.6873
31.766
31.4577
30.6454
29.2115
30.8778
31.4424
31.7998
31.8637
31.5302
30.6753
29.1746
30.9393
31.5029
31.8572
31.915
31.5696
30.6939
29.1591
26.863
30.9374
31.5007
31.8546
31.9119
31.5658
30.6891
29.1529
26.8553
28.5453
29.3809
30.1698
30.8723
31.4359
31.792
31.8543
31.5187
30.661
29.1568
26.9089
27.5774
28.4253
29.2568
30.0431
30.7452
31.3113
31.6746
31.7508
31.4394
30.6229
29.1837
27.0333
27.4095
28.2514
29.0793
29.8653
30.5716
31.1482
31.5306
31.6383
31.3745
30.6299
29.2938
27.2845
27.1922
28.0289
28.8558
29.647
30.3667
30.9676
31.3886
31.5534
31.3706
30.7361
29.5433
27.7101
26.9295
27.7629
28.5937
29.3984
30.1447
30.7893
31.2756
31.5321
31.4719
30.9935
29.9872
28.3594
26.0535
25.8119
26.6236
27.4564
28.2966
29.1248
29.9134
30.6247
31.2081
31.5974
31.7088
31.4397
30.6695
29.2783
27.1697
24.7026
25.4706
26.2747
27.1089
27.9636
28.8247
29.6711
30.473
31.1877
31.7558
32.0964
32.1007
31.6297
30.5202
28.608
24.3332
25.0854
25.8804
26.7159
27.5876
28.4878
29.4042
30.3169
31.195
31.9896
32.6251
32.987
32.9078
32.1578
30.4578
23.9212
24.6537
25.4358
26.2694
27.1557
28.0949
29.0851
30.1198
31.1844
32.2473
33.2473
34.0749
34.5303
34.2874
32.88
29.7709
25.0477
18.6899
10.8248
23.4655
24.1724
24.9347
25.7582
26.65
27.6184
28.6732
29.8239
31.0775
32.4298
33.8543
35.2677
36.4643
37.0276
36.1929
32.6155
27.6637
20.5626
11.4931
22.9653
23.6385
24.3706
25.1707
26.0508
27.0266
28.1185
29.3527
30.7607
32.3765
34.2278
36.3038
38.4858
40.4061
39.2394
37.6527
30.842
20.5278
8.38234
-5.06788
22.421
23.0507
23.7393
24.4979
25.3413
26.2897
27.3709
28.6236
30.0984
31.8633
34.0062
36.6255
39.7909
43.4979
44.2347
44.0616
36.777
23.6307
4.91289
-9.66805
21.835
22.4103
23.0405
23.7365
24.513
25.3903
26.3973
27.5736
28.9725
30.6703
32.7708
35.4062
38.6626
41.5118
46.0698
47.8339
44.8508
52.6082
21.2123
21.7229
22.28
22.8923
23.5714
24.3325
25.1975
26.1938
27.3545
28.7194
30.3273
32.1942
34.1847
36.7148
39.3941
37.6399
27.6175
20.5604
20.9977
21.4695
21.9808
22.5376
23.1464
23.8152
24.5507
25.35
26.1883
26.9944
27.5901
27.5231
25.8513
25.5896
15.4486
-1.31931
-76.3874
-26.3825
-9.11184
19.8894
20.2477
20.6263
21.0258
21.4455
21.8819
22.3273
22.7672
23.1639
23.4367
23.4333
22.8642
21.182
17.3827
10.1621
3.13598
-16.7966
-38.7245
-54.5151
-56.9579
-54.6345
-46.9106
-38.5779
-26.2546
-15.7706
-7.53668
-2.84224
-0.311535
0.979695
1.61451
1.78473
1.6318
1.29593
0.882073
0.463222
0.0948707
-0.178299
-0.321637
-0.312211
-0.144361
0.160201
0.521079
19.2104
19.4874
19.7702
20.0548
20.3342
20.5964
20.8208
20.977
21.0072
20.8053
20.1983
18.9078
16.5021
12.3558
5.77832
-3.52592
-12.272
-24.6116
-31.7574
-34.3496
-33.7533
-31.0237
-27.2725
-22.0047
-14.3066
-9.28937
-5.07018
-2.16298
-0.401807
0.57891
1.02762
1.11663
0.983672
0.730381
0.427086
0.124968
-0.137532
-0.334162
-0.453184
-0.503899
-0.530627
-0.635643
-1.00597
18.5348
18.732
18.9212
19.0947
19.2411
19.3423
19.3704
19.2849
19.0243
18.4861
17.5162
15.901
13.3615
9.57932
4.29889
-2.339
-9.43883
-15.6378
-19.6931
-21.5922
-21.8569
-20.9401
-19.1016
-16.3365
-12.9007
-9.16736
-5.83182
-3.32468
-1.64676
-0.604869
-0.0217107
0.232003
0.25766
0.135402
-0.0740503
-0.325192
-0.585141
-0.835034
-1.07241
-1.31506
-1.61004
-2.04706
-2.76997
17.7393
17.8736
17.9951
18.0969
18.1687
18.1963
18.1586
18.0255
17.7533
17.2847
16.5362
15.3874
13.6896
11.2783
8.00645
3.81738
-1.12538
-6.26907
-10.8078
-13.9969
-15.7042
-16.2208
-15.8431
-14.7414
-12.9838
-10.6817
-8.12027
-5.72233
-3.7717
-2.34379
-1.37984
-0.787364
-0.483376
-0.396105
-0.464096
-0.637488
-0.879268
-1.16445
-1.48013
-1.82794
-2.22739
-2.72038
-3.3751
-4.28955
17.1626
17.2358
17.2882
17.3114
17.2941
17.2208
17.0699
16.8121
16.4077
15.8052
14.9413
13.7325
12.0815
9.8966
7.12052
3.77583
0.0261638
-3.77073
-7.12045
-9.62533
-11.1732
-11.8777
-11.8919
-11.3253
-10.2525
-8.77367
-7.06993
-5.38195
-3.9124
-2.76319
-1.94283
-1.41232
-1.12165
-1.02257
-1.07145
-1.23203
-1.4764
-1.78594
-2.15223
-2.5788
-3.08293
-3.6979
-4.47243
-5.4693
16.6109
16.6288
16.6197
16.5748
16.4823
16.3268
16.0882
15.74
15.2484
14.5712
13.6601
12.4615
10.9181
8.98341
6.64452
3.94996
1.0376
-1.85584
-4.44019
-6.48032
-7.87689
-8.65614
-8.89462
-8.6663
-8.03872
-7.09918
-5.97128
-4.80495
-3.74142
-2.87211
-2.22857
-1.80222
-1.56793
-1.49645
-1.5593
-1.73132
-1.99258
-2.32989
-2.73803
-3.22073
-3.7916
-4.47448
-5.30232
-6.31399
16.0889
16.058
15.9958
15.8933
15.7394
15.5196
15.216
14.806
14.2624
13.5529
12.6416
11.4939
10.0797
8.38098
6.40586
4.20543
1.88565
-0.395203
-2.45574
-4.14468
-5.38257
-6.16451
-6.52912
-6.52677
-6.21388
-5.65915
-4.94794
-4.18025
-3.45341
-2.83942
-2.37504
-2.0683
-1.91089
-1.88768
-1.98165
-2.17667
-2.45958
-2.82167
-3.25978
-3.77702
-4.38308
-5.09387
-5.92995
-6.91334
15.5999
15.5268
15.4196
15.2698
15.0672
14.7989
14.4496
14.0006
13.4309
12.7166
11.8334
10.7586
9.47744
7.98784
6.30751
4.48251
2.59245
0.745792
-0.938414
-2.35926
-3.4572
-4.21793
-4.65908
-4.81537
-4.7293
-4.45099
-4.04144
-3.57046
-3.1071
-2.70691
-2.40463
-2.21532
-2.14057
-2.1747
-2.3089
-2.53377
-2.84123
-3.22582
-3.68567
-4.22299
-4.84408
-5.55875
-6.37885
-7.31551
15.1459
15.0369
14.8925
14.7048
14.4647
14.1612
13.7814
13.3108
12.7332
12.0317
11.1904
10.1963
9.04294
7.7351
6.29313
4.75666
3.18551
1.65549
0.247213
-0.969749
-1.95121
-2.6825
-3.17126
-3.43875
-3.51473
-3.4364
-3.24867
-3.00188
-2.74597
-2.52336
-2.36398
-2.2847
-2.29222
-2.38674
-2.56499
-2.82237
-3.15446
-3.55818
-4.03251
-4.57886
-5.20097
-5.90429
-6.69476
-7.57674
14.7278
14.5889
14.4141
14.1967
13.9285
13.6005
13.2023
12.7224
12.1491
11.4707
10.6772
9.76181
8.72381
7.57101
6.32245
5.01043
3.68018
2.38598
1.18381
0.121978
-0.767036
-1.46897
-1.98526
-2.32883
-2.52078
-2.58881
-2.56618
-2.48966
-2.39595
-2.31748
-2.27908
-2.29709
-2.38039
-2.53258
-2.75394
-3.04309
-3.39813
-3.81761
-4.30104
-4.84917
-5.46387
-6.14762
-6.90252
-7.72883
14.3458
14.1822
13.9832
13.7429
13.4544
13.1103
12.7024
12.222
11.6605
11.0104
10.2655
9.42325
8.48581
7.46203
6.36889
5.23228
4.08618
2.96984
1.92304
0.980407
0.166588
-0.505817
-1.03558
-1.43062
-1.70584
-1.88161
-1.98254
-2.03578
-2.06874
-2.10632
-2.16879
-2.27084
-2.42185
-2.62707
-2.88884
-3.20778
-3.58364
-4.01601
-4.50471
-5.05002
-5.65251
-6.31273
-7.0304
-7.80349
13.9993
13.8156
13.5975
13.34
13.0374
12.6836
12.2723
11.797
11.2517
10.6316
9.9334
9.15689
8.30575
7.38871
6.42034
5.42122
4.41712
3.43694
2.5096
1.66047
0.908265
0.263489
-0.271533
-0.701497
-1.03678
-1.29226
-1.48614
-1.63869
-1.77056
-1.90102
-2.04642
-2.21948
-2.42916
-2.68129
-2.97927
-3.32487
-3.71883
-4.16137
-4.65252
-5.19219
-5.78016
-6.41572
-7.09723
-7.82144
13.6871
13.4873
13.2545
12.9844
12.6724
12.3136
11.9032
11.4365
10.9094
10.319
9.66387
8.94525
8.16736
7.3383
6.47031
5.57977
4.68638
3.81178
2.97736
2.20198
1.49997
0.879921
0.344548
-0.1088
-0.487299
-0.801763
-1.06572
-1.29437
-1.5034
-1.70779
-1.92068
-2.15282
-2.41233
-2.70497
-3.03455
-3.40339
-3.81276
-4.26326
-4.75497
-5.28759
-5.86036
-6.4719
-7.1198
-7.80027
13.4079
13.1953
12.9513
12.6723
12.3544
11.994
11.5873
11.1311
10.6226
10.0602
9.4439
8.77546
8.05927
7.30255
6.5155
5.71116
4.9048
4.1128
3.35126
2.63444
1.97338
1.37511
0.842327
0.373657
-0.0358273
-0.393973
-0.710829
-0.997854
-1.26704
-1.53005
-1.79744
-2.07814
-2.37929
-2.70623
-3.06275
-3.45136
-3.87357
-4.33011
-4.8211
-5.34608
-5.904
-6.49309
-7.11061
-7.75262
13.1602
12.9377
12.6853
12.4001
12.079
11.7193
11.318
10.8729
10.3824
9.84576
9.2636
8.63815
7.97358
7.2762
6.5545
5.81891
5.08136
4.35446
3.65051
2.98043
2.35285
1.7735
1.24489
0.76645
0.334838
-0.0556289
-0.412423
-0.744208
-1.06019
-1.36949
-1.68055
-2.00076
-2.33623
-2.69173
-3.07081
-3.47592
-3.90861
-4.36965
-4.85911
-5.37645
-5.92046
-6.48921
-7.07986
-7.68854
12.9426
12.7123
12.4537
12.1645
11.8421
11.4844
11.0893
10.6553
10.1816
9.66794
9.11544
8.52645
7.90481
7.25599
6.58705
5.90641
5.2235
4.54815
3.88991
3.25727
2.65706
2.09395
1.57024
1.08585
0.638551
0.224232
-0.162663
-0.528706
-0.880994
-1.22667
-1.5725
-1.92454
-2.28796
-2.6669
-3.06457
-3.48322
-3.92433
-4.38859
-4.87607
-5.38613
-5.91752
-6.46824
-7.03551
-7.61566
12.7534
12.5172
12.2542
11.9624
11.64
11.2851
10.8965
10.473
10.0144
9.52088
8.99376
8.43535
7.84916
7.23991
6.6135
5.97678
5.33731
4.70287
4.08097
3.47835
2.90046
2.35116
1.83252
1.34476
0.886431
0.454579
0.0450624
-0.347119
-0.727455
-1.10156
-1.47487
-1.85232
-2.23823
-2.63616
-3.04891
-3.4785
-3.92624
-4.39275
-4.87803
-5.3814
-5.90159
-6.43665
-6.98389
-7.53992
12.5912
12.3505
12.0844
11.7913
11.4695
11.1179
10.7355
10.3216
9.87625
9.40001
8.89426
8.36121
7.80403
7.22681
6.63451
6.03279
5.42777
4.82573
4.23269
3.65405
3.09428
2.55658
2.0428
1.55338
1.08739
0.642724
0.216292
-0.195726
-0.5976
-0.993767
-1.38858
-1.78609
-2.18989
-2.60299
-3.0278
-3.46607
-3.91896
-4.38697
-4.87001
-5.36742
-5.87791
-6.3996
-6.92997
-7.46585
12.4548
12.2108
11.9425
11.6487
11.3281
10.9798
10.603
10.1975
9.76355
9.30182
8.81372
8.30138
7.76763
7.21604
6.65084
6.07676
5.49888
4.92232
4.35202
3.79241
3.24718
2.71907
2.20972
1.7197
1.24846
0.794514
0.355533
-0.0714149
-0.489673
-0.902774
-1.31423
-1.72737
-2.14518
-2.57021
-3.00449
-3.44955
-3.90635
-4.37529
-4.85622
-5.34846
-5.85074
-6.36127
-6.87767
-7.39702
12.3429
12.0965
11.8269
11.5329
11.2135
10.8682
10.4964
10.098
9.67349
9.22361
8.74977
8.25396
7.73876
7.20732
6.6633
6.11073
5.55389
4.99709
4.44445
3.89969
3.36594
2.84556
2.34007
1.85007
1.37531
0.91472
0.466553
0.0285245
-0.402014
-0.827909
-1.25203
-1.67713
-2.1057
-2.5399
-2.98148
-3.43172
-3.89143
-4.36091
-4.83995
-5.32785
-5.82339
-6.32484
-6.82997
-7.33607
12.2547
12.0066
11.7361
11.4421
11.1241
10.7813
10.4136
10.0209
9.6039
9.16333
8.70058
8.21753
7.71655
7.20046
6.67249
6.13618
5.59521
5.0533
4.51399
3.98049
3.45551
2.94116
2.43882
1.94915
1.47207
1.00683
0.552087
0.106033
-0.333477
-0.768779
-1.20226
-1.63623
-2.07282
-2.51388
-2.96089
-3.41496
-3.87676
-4.34651
-4.82396
-5.30838
-5.79859
-6.29294
-6.78929
-7.28512
12.1893
11.9401
11.669
11.3753
11.0583
10.7176
10.353
9.96473
9.5533
9.11962
8.66502
8.1913
7.70065
7.19566
6.67926
6.15462
5.62504
5.0938
4.56405
4.03865
3.52003
3.0101
2.51016
2.02089
1.54234
1.07397
0.61471
0.163087
-0.28269
-0.724598
-1.16468
-1.60494
-2.04722
-2.49313
-2.944
-3.40077
-3.86402
-4.33389
-4.8101
-5.29192
-5.77819
-6.26729
-6.75722
-7.24554
12.1462
11.8963
11.6249
11.3314
11.0151
10.6758
10.3134
9.92799
9.52027
9.09112
8.64186
8.17421
7.69025
7.19244
6.68351
6.16638
5.64412
5.11974
4.59615
4.07597
3.56147
3.05443
2.5561
2.06718
1.58778
1.11749
0.655433
0.200327
-0.249393
-0.695475
-1.13974
-1.58399
-2.02989
-2.4789
-2.93221
-3.39069
-3.85483
-4.32473
-4.80009
-5.28018
-5.76384