/*--------------------------------*- C++ -*----------------------------------*\
  =========                 |
  \\      /  F ield         | OpenFOAM: The Open Source CFD Toolbox
   \\    /   O peration     | Website:  https://openfoam.org
    \\  /    A nd           | Version:  13
     \\/     M anipulation  |
\*---------------------------------------------------------------------------*/
FoamFile
{
    format      ascii;
    class       volScalarField;
    location    "100";
    object      k;
}
// * * * * * * * * * * * * * * * * * * * * * * * * * * * * * * * * * * * * * //

dimensions      [0 2 -2 0 0 0 0];

internalField   nonuniform List<scalar> 
172836
(
0.216626
0.216282
0.215954
0.215642
0.215346
0.215068
0.214808
0.214581
0.217129
0.216792
0.216472
0.216168
0.215882
0.215614
0.215363
0.215146
0.218091
0.217747
0.217418
0.217105
0.21681
0.216532
0.216272
0.216029
0.21582
0.218937
0.2186
0.218277
0.217971
0.217682
0.217411
0.217156
0.216919
0.216716
0.220058
0.219727
0.21941
0.219109
0.218825
0.218558
0.218308
0.218075
0.217875
0.221484
0.221158
0.220846
0.220549
0.220268
0.220004
0.219757
0.219527
0.219329
0.223207
0.222886
0.222578
0.222286
0.222008
0.221747
0.221503
0.221274
0.221079
0.225176
0.224855
0.224557
0.224271
0.224
0.223744
0.223503
0.223278
0.223085
0.227006
0.226706
0.226422
0.226153
0.2259
0.225663
0.225441
0.225252
0.217637
0.217223
0.216828
0.21645
0.216091
0.215751
0.21543
0.215127
0.214842
0.214575
0.214326
0.21411
0.213898
0.21809
0.217687
0.217302
0.216934
0.216586
0.216256
0.215945
0.215652
0.215377
0.21512
0.21488
0.214674
0.21447
0.218683
0.218289
0.217911
0.217552
0.21721
0.216888
0.216584
0.216299
0.216031
0.215781
0.215549
0.21535
0.215152
0.219497
0.219111
0.21874
0.218388
0.218054
0.217738
0.217441
0.217161
0.2169
0.216656
0.216429
0.216235
0.216043
0.220585
0.220204
0.21984
0.219493
0.219164
0.218854
0.218562
0.218287
0.21803
0.21779
0.217567
0.217377
0.217187
0.221975
0.2216
0.221241
0.220899
0.220575
0.220268
0.21998
0.219708
0.219454
0.219217
0.218996
0.218808
0.218619
0.223657
0.223288
0.222934
0.222597
0.222277
0.221974
0.221689
0.221421
0.22117
0.220935
0.220715
0.220529
0.220341
0.225576
0.225214
0.224867
0.224536
0.224222
0.223925
0.223645
0.223381
0.223133
0.222902
0.222685
0.222501
0.222314
0.227633
0.227274
0.226934
0.226611
0.226304
0.226015
0.225742
0.225486
0.225246
0.225021
0.224811
0.224633
0.22445
0.226767
0.274709
0.273501
0.272299
0.271103
0.269912
0.268729
0.267552
0.266383
0.26522
0.264065
0.262919
0.26178
0.260651
0.25953
0.258419
0.257318
0.256226
0.255145
0.254073
0.253012
0.251961
0.25092
0.24989
0.248871
0.247862
0.246864
0.245877
0.2449
0.243933
0.242976
0.24203
0.241094
0.240168
0.239252
0.238345
0.23745
0.236564
0.235688
0.234823
0.233969
0.233125
0.232293
0.231472
0.230662
0.229866
0.229082
0.228311
0.227555
0.226812
0.226085
0.225374
0.224679
0.224001
0.22334
0.222697
0.222073
0.221468
0.220882
0.220315
0.219769
0.219244
0.218739
0.218256
0.217794
0.217352
0.21693
0.216528
0.216147
0.215785
0.215443
0.21512
0.214815
0.21453
0.214262
0.214011
0.213777
0.213552
0.27483
0.273625
0.272425
0.271231
0.270044
0.268863
0.267689
0.266521
0.265361
0.264208
0.263063
0.261927
0.260799
0.259679
0.25857
0.25747
0.256379
0.255298
0.254228
0.253168
0.252118
0.251078
0.25005
0.249032
0.248025
0.247028
0.246043
0.245068
0.244103
0.243149
0.242206
0.241273
0.24035
0.239438
0.238536
0.237645
0.236764
0.235894
0.235034
0.234186
0.233348
0.232523
0.231709
0.230907
0.230118
0.229342
0.22858
0.227832
0.227099
0.226381
0.225679
0.224993
0.224324
0.223673
0.22304
0.222426
0.22183
0.221254
0.220698
0.220162
0.219647
0.219153
0.218681
0.218229
0.217798
0.217386
0.216994
0.216622
0.21627
0.215938
0.215625
0.215331
0.215055
0.214797
0.214555
0.214331
0.214114
0.275117
0.273917
0.272721
0.271531
0.270347
0.269169
0.267998
0.266834
0.265676
0.264525
0.263382
0.262248
0.261121
0.260004
0.258895
0.257796
0.256706
0.255627
0.254557
0.253497
0.252448
0.25141
0.250382
0.249365
0.248359
0.247364
0.24638
0.245407
0.244444
0.243492
0.242551
0.241621
0.240701
0.239792
0.238894
0.238007
0.23713
0.236265
0.235411
0.234568
0.233736
0.232916
0.232109
0.231314
0.230532
0.229763
0.229009
0.228269
0.227543
0.226833
0.22614
0.225462
0.224802
0.22416
0.223535
0.222929
0.222342
0.221775
0.221227
0.2207
0.220193
0.219707
0.219243
0.2188
0.218376
0.217972
0.217588
0.217224
0.216879
0.216555
0.216249
0.215963
0.215694
0.215444
0.21521
0.214993
0.214783
0.275643
0.274449
0.273259
0.272075
0.270896
0.269723
0.268556
0.267396
0.266242
0.265094
0.263955
0.262822
0.261698
0.260583
0.259476
0.258378
0.25729
0.256211
0.255142
0.254084
0.253035
0.251997
0.25097
0.249954
0.248949
0.247954
0.246971
0.245999
0.245037
0.244087
0.243147
0.242218
0.2413
0.240394
0.239498
0.238613
0.23774
0.236878
0.236028
0.235188
0.234361
0.233546
0.232744
0.231954
0.231178
0.230415
0.229667
0.228933
0.228214
0.227512
0.226825
0.226155
0.225502
0.224867
0.22425
0.223652
0.223073
0.222514
0.221974
0.221455
0.220956
0.220479
0.220022
0.219586
0.21917
0.218773
0.218397
0.21804
0.217703
0.217385
0.217087
0.216807
0.216545
0.2163
0.216072
0.215861
0.215656
0.276492
0.275306
0.274123
0.272945
0.271773
0.270605
0.269443
0.268287
0.267137
0.265994
0.264857
0.263727
0.262605
0.261492
0.260386
0.259289
0.258202
0.257124
0.256055
0.254996
0.253948
0.25291
0.251882
0.250865
0.249859
0.248865
0.247881
0.246908
0.245946
0.244996
0.244056
0.243128
0.24221
0.241304
0.240409
0.239526
0.238654
0.237794
0.236946
0.236109
0.235285
0.234473
0.233674
0.232888
0.232116
0.231358
0.230614
0.229886
0.229173
0.228475
0.227795
0.227131
0.226484
0.225856
0.225246
0.224654
0.224082
0.22353
0.222997
0.222485
0.221993
0.221522
0.221072
0.220643
0.220233
0.219843
0.219472
0.219122
0.21879
0.218478
0.218185
0.21791
0.217653
0.217412
0.217189
0.216981
0.216779
0.277687
0.276509
0.275335
0.274165
0.272999
0.271837
0.270681
0.26953
0.268384
0.267244
0.26611
0.264983
0.263864
0.262751
0.261647
0.260551
0.259463
0.258385
0.257316
0.256256
0.255206
0.254167
0.253138
0.252119
0.251112
0.250115
0.249129
0.248154
0.247191
0.246238
0.245297
0.244367
0.243448
0.242541
0.241646
0.240762
0.23989
0.23903
0.238183
0.237347
0.236524
0.235714
0.234918
0.234135
0.233366
0.232611
0.231872
0.231147
0.230439
0.229746
0.229071
0.228412
0.227772
0.227149
0.226545
0.22596
0.225394
0.224848
0.224321
0.223816
0.22333
0.222866
0.222422
0.221998
0.221594
0.22121
0.220845
0.220499
0.220173
0.219865
0.219576
0.219305
0.219051
0.218814
0.218593
0.218387
0.218186
0.279153
0.277986
0.27682
0.275658
0.2745
0.273346
0.272196
0.27105
0.26991
0.268774
0.267645
0.266521
0.265404
0.264294
0.263191
0.262096
0.261009
0.259931
0.258862
0.257802
0.256751
0.25571
0.254679
0.253659
0.252649
0.251651
0.250663
0.249686
0.24872
0.247766
0.246822
0.245891
0.24497
0.244062
0.243165
0.242281
0.241409
0.240549
0.239702
0.238867
0.238046
0.237238
0.236443
0.235663
0.234897
0.234146
0.233411
0.232691
0.231987
0.2313
0.230629
0.229977
0.229342
0.228726
0.228128
0.227549
0.22699
0.226451
0.225931
0.225432
0.224954
0.224496
0.224058
0.223641
0.223243
0.222864
0.222504
0.222164
0.221842
0.221539
0.221254
0.220986
0.220736
0.220501
0.220282
0.220078
0.219879
0.28074
0.279584
0.278431
0.277279
0.276131
0.274986
0.273845
0.272707
0.271574
0.270445
0.269322
0.268204
0.267092
0.265986
0.264887
0.263796
0.262711
0.261635
0.260568
0.259509
0.258459
0.257418
0.256388
0.255367
0.254356
0.253357
0.252368
0.25139
0.250423
0.249467
0.248523
0.24759
0.24667
0.245761
0.244864
0.24398
0.243108
0.24225
0.241404
0.240571
0.239752
0.238947
0.238156
0.23738
0.236619
0.235873
0.235142
0.234429
0.233731
0.233051
0.232388
0.231743
0.231116
0.230508
0.229918
0.229348
0.228798
0.228267
0.227757
0.227266
0.226797
0.226347
0.225918
0.225509
0.225119
0.224748
0.224396
0.224063
0.223747
0.22345
0.22317
0.222908
0.222661
0.222431
0.222215
0.222013
0.221815
0.28231
0.281169
0.28003
0.278891
0.277755
0.276622
0.275492
0.274365
0.273241
0.272122
0.271007
0.269897
0.268792
0.267693
0.2666
0.265514
0.264435
0.263363
0.262299
0.261243
0.260196
0.259158
0.25813
0.257111
0.256102
0.255103
0.254115
0.253139
0.252173
0.251218
0.250275
0.249343
0.248424
0.247517
0.246622
0.24574
0.244871
0.244016
0.243174
0.242345
0.24153
0.24073
0.239945
0.239175
0.23842
0.237681
0.236959
0.236253
0.235565
0.234893
0.23424
0.233605
0.232988
0.23239
0.231812
0.231253
0.230713
0.230194
0.229695
0.229216
0.228757
0.228319
0.227901
0.227503
0.227124
0.226763
0.226421
0.226097
0.225791
0.225502
0.22523
0.224975
0.224736
0.224511
0.224301
0.224104
0.22391
0.28383
0.282706
0.281583
0.28046
0.279339
0.278219
0.277102
0.275987
0.274875
0.273767
0.272662
0.271561
0.270465
0.269374
0.268288
0.267209
0.266135
0.265069
0.264009
0.262958
0.261914
0.260879
0.259853
0.258836
0.257829
0.256832
0.255845
0.254869
0.253905
0.252951
0.252009
0.251079
0.250161
0.249255
0.248363
0.247484
0.246618
0.245766
0.244928
0.244104
0.243295
0.242501
0.241722
0.240959
0.240212
0.239481
0.238768
0.238072
0.237393
0.236732
0.23609
0.235466
0.234862
0.234276
0.23371
0.233164
0.232638
0.232132
0.231646
0.23118
0.230735
0.23031
0.229906
0.229519
0.229154
0.228806
0.228478
0.228167
0.227873
0.227596
0.227336
0.227092
0.226863
0.226649
0.226447
0.226259
0.22607
0.285347
0.284243
0.283138
0.282032
0.280927
0.279822
0.278719
0.277618
0.276519
0.275422
0.274328
0.273237
0.27215
0.271067
0.269989
0.268916
0.267848
0.266786
0.265731
0.264683
0.263642
0.262609
0.261584
0.260568
0.259562
0.258565
0.257579
0.256603
0.255638
0.254685
0.253743
0.252813
0.251895
0.25099
0.250099
0.249222
0.248358
0.247509
0.246674
0.245854
0.24505
0.244261
0.243488
0.242731
0.241992
0.24127
0.240565
0.239878
0.239209
0.238559
0.237928
0.237316
0.236723
0.23615
0.235597
0.235064
0.234551
0.234058
0.233586
0.233134
0.232702
0.232291
0.231899
0.231527
0.231173
0.230838
0.230519
0.23022
0.229937
0.229671
0.22942
0.229185
0.228963
0.228756
0.228561
0.228378
0.228195
0.28695
0.285869
0.284784
0.283698
0.282611
0.281523
0.280436
0.27935
0.278265
0.277181
0.276099
0.275019
0.273942
0.272867
0.271796
0.270729
0.269666
0.268608
0.267555
0.266509
0.265469
0.264436
0.26341
0.262392
0.261384
0.260384
0.259395
0.258416
0.257447
0.25649
0.255544
0.254611
0.25369
0.252783
0.25189
0.25101
0.250146
0.249297
0.248463
0.247644
0.246842
0.246056
0.245287
0.244536
0.243802
0.243087
0.24239
0.241711
0.241052
0.240411
0.239791
0.23919
0.238609
0.238048
0.237507
0.236987
0.236487
0.236008
0.235549
0.235111
0.234693
0.234296
0.233918
0.233558
0.233217
0.232894
0.23259
0.232301
0.232029
0.231772
0.231531
0.231304
0.23109
0.23089
0.230701
0.230523
0.230343
0.288738
0.287682
0.286621
0.285557
0.28449
0.283422
0.282353
0.281283
0.280214
0.279144
0.278075
0.277006
0.275939
0.274873
0.273809
0.272747
0.271689
0.270633
0.269581
0.268535
0.267493
0.266457
0.265428
0.264406
0.263392
0.262386
0.26139
0.260404
0.259428
0.258463
0.25751
0.25657
0.255643
0.254729
0.25383
0.252946
0.252077
0.251224
0.250388
0.249568
0.248766
0.247981
0.247214
0.246465
0.245736
0.245025
0.244334
0.243663
0.243011
0.242379
0.241768
0.241177
0.240607
0.240058
0.23953
0.239022
0.238535
0.238069
0.237624
0.237199
0.236794
0.23641
0.236044
0.235699
0.23537
0.235059
0.234764
0.234487
0.234226
0.233979
0.233746
0.233526
0.233319
0.233124
0.232941
0.232766
0.232587
0.290818
0.289792
0.28876
0.287722
0.286679
0.285634
0.284586
0.283536
0.282484
0.281431
0.280378
0.279322
0.278266
0.27721
0.276154
0.275098
0.274042
0.272988
0.271936
0.270886
0.26984
0.268798
0.267761
0.26673
0.265705
0.264688
0.26368
0.262681
0.261692
0.260714
0.259747
0.258794
0.257854
0.256928
0.256018
0.255123
0.254246
0.253385
0.252542
0.251717
0.25091
0.250123
0.249355
0.248607
0.247879
0.247172
0.246485
0.24582
0.245175
0.244552
0.24395
0.24337
0.242811
0.242273
0.241758
0.241263
0.24079
0.240338
0.239907
0.239496
0.239106
0.238735
0.238385
0.238051
0.237736
0.237437
0.237156
0.236889
0.236636
0.236397
0.236171
0.235957
0.235755
0.235564
0.235382
0.235209
0.23503
0.293308
0.292318
0.291319
0.290311
0.289297
0.288277
0.287254
0.286227
0.285196
0.284163
0.283127
0.282087
0.281045
0.279999
0.278951
0.2779
0.276848
0.275794
0.274738
0.273683
0.272629
0.271577
0.270528
0.269483
0.268443
0.267409
0.266383
0.265365
0.264357
0.263359
0.262373
0.261401
0.260442
0.259499
0.258571
0.257662
0.25677
0.255896
0.255042
0.254208
0.253394
0.252601
0.251829
0.251079
0.250351
0.249645
0.248962
0.248302
0.247664
0.247048
0.246456
0.245886
0.245339
0.244815
0.244312
0.243832
0.243374
0.242937
0.242521
0.242126
0.241751
0.241396
0.241058
0.240741
0.240439
0.240153
0.239881
0.239625
0.239381
0.23915
0.23893
0.23872
0.238521
0.238331
0.23815
0.237973
0.237789
0.296345
0.295398
0.294437
0.293466
0.292485
0.291497
0.290503
0.289504
0.2885
0.28749
0.286476
0.285455
0.284429
0.283396
0.282358
0.281314
0.280264
0.279208
0.278147
0.277082
0.276015
0.274947
0.273879
0.272813
0.271749
0.27069
0.269636
0.26859
0.267553
0.266527
0.265512
0.264511
0.263524
0.262554
0.261602
0.260669
0.259755
0.258862
0.257991
0.257142
0.256316
0.255513
0.254733
0.253978
0.253248
0.252543
0.251862
0.251206
0.250575
0.249969
0.249387
0.248829
0.248296
0.247786
0.2473
0.246837
0.246396
0.245977
0.24558
0.245203
0.244847
0.244509
0.244191
0.243888
0.243602
0.24333
0.243073
0.242826
0.242591
0.242366
0.24215
0.241943
0.241744
0.241553
0.241367
0.241185
0.240992
0.300084
0.299185
0.298269
0.297337
0.296394
0.295442
0.294481
0.293514
0.292539
0.291557
0.290567
0.289569
0.288561
0.287543
0.286516
0.285477
0.284428
0.283369
0.282299
0.28122
0.280134
0.279043
0.277948
0.276852
0.275755
0.274661
0.27357
0.272486
0.27141
0.270344
0.26929
0.26825
0.267226
0.26622
0.265234
0.264268
0.263326
0.262406
0.261511
0.260641
0.259797
0.25898
0.25819
0.257427
0.256692
0.255985
0.255306
0.254654
0.25403
0.253433
0.252863
0.25232
0.251803
0.251311
0.250844
0.250401
0.249981
0.249584
0.249208
0.248853
0.248518
0.248201
0.247901
0.24762
0.24735
0.247093
0.246847
0.246612
0.246386
0.246167
0.245954
0.245748
0.245547
0.24535
0.245156
0.244962
0.244754
0.304684
0.303836
0.302966
0.302077
0.301174
0.30026
0.299336
0.298404
0.297463
0.296513
0.295553
0.29458
0.293594
0.292594
0.291578
0.290546
0.289497
0.28843
0.287346
0.286246
0.285133
0.284009
0.282876
0.281737
0.280594
0.27945
0.278308
0.27717
0.27604
0.274919
0.273811
0.272718
0.271642
0.270587
0.269554
0.268545
0.267562
0.266606
0.265678
0.26478
0.263911
0.263074
0.262268
0.261493
0.260751
0.26004
0.259361
0.258714
0.258098
0.257512
0.256956
0.256429
0.255931
0.255461
0.255017
0.254598
0.254204
0.253833
0.253484
0.253156
0.252847
0.252555
0.252282
0.252018
0.251771
0.251531
0.251303
0.251079
0.25086
0.250646
0.250435
0.250227
0.25002
0.249815
0.249606
0.249396
0.249167
0.310256
0.309455
0.308626
0.307776
0.306909
0.30603
0.305141
0.304243
0.303336
0.302419
0.301488
0.300544
0.29958
0.298598
0.297594
0.296566
0.295515
0.294437
0.293335
0.292208
0.291058
0.289891
0.288708
0.287514
0.286312
0.285105
0.283897
0.282691
0.281492
0.280302
0.279125
0.277965
0.276825
0.275707
0.274616
0.273552
0.272518
0.271516
0.270546
0.269611
0.268711
0.267847
0.267019
0.266229
0.265475
0.264758
0.264077
0.263433
0.262824
0.262249
0.261708
0.261199
0.260722
0.260275
0.259858
0.259467
0.259102
0.258761
0.258442
0.258144
0.257864
0.257602
0.257353
0.257119
0.256892
0.256673
0.256458
0.256249
0.256041
0.255833
0.255623
0.255412
0.255198
0.25498
0.254756
0.254523
0.254268
0.316791
0.316025
0.315227
0.314405
0.313568
0.312718
0.311859
0.310993
0.310119
0.309233
0.308335
0.307417
0.306479
0.305514
0.304521
0.303498
0.30244
0.301348
0.30022
0.299058
0.297865
0.296641
0.295396
0.294132
0.292855
0.291569
0.290279
0.288989
0.287705
0.28643
0.28517
0.283928
0.282708
0.281515
0.280352
0.279221
0.278125
0.277066
0.276045
0.275064
0.274124
0.273226
0.27237
0.271557
0.270787
0.270059
0.269373
0.268728
0.268124
0.267558
0.267031
0.26654
0.266085
0.265663
0.265273
0.264912
0.264579
0.264272
0.263988
0.263725
0.263481
0.263253
0.263041
0.262835
0.262641
0.262449
0.262263
0.262074
0.261883
0.261688
0.261488
0.261282
0.261069
0.260846
0.26061
0.260361
0.260083
0.32412
0.323376
0.322597
0.321792
0.320968
0.320133
0.319292
0.318445
0.317591
0.316729
0.31585
0.314952
0.314026
0.31307
0.312079
0.311049
0.309976
0.308859
0.307698
0.306492
0.305245
0.303959
0.302641
0.3013
0.29994
0.298567
0.297187
0.295807
0.294431
0.293066
0.291716
0.290387
0.289084
0.28781
0.286571
0.285368
0.284206
0.283085
0.282008
0.280977
0.279992
0.279054
0.278164
0.277323
0.27653
0.275785
0.275088
0.274437
0.273832
0.273272
0.272755
0.27228
0.271845
0.271448
0.271088
0.270761
0.270467
0.270202
0.269964
0.26975
0.269557
0.269384
0.269225
0.269083
0.268946
0.268817
0.268687
0.268561
0.268431
0.268294
0.26815
0.267997
0.26783
0.267647
0.267446
0.267219
0.266955
0.331288
0.330499
0.329679
0.328839
0.327988
0.327132
0.326273
0.325411
0.324538
0.323651
0.322738
0.321797
0.320818
0.319798
0.318732
0.317617
0.316451
0.315234
0.313966
0.312651
0.311294
0.309896
0.308471
0.307025
0.305566
0.304099
0.302633
0.301173
0.299725
0.298296
0.29689
0.295513
0.29417
0.292864
0.291599
0.290378
0.289203
0.288076
0.286998
0.285971
0.284996
0.284073
0.283205
0.28239
0.281629
0.280921
0.280268
0.279667
0.279118
0.278621
0.278176
0.27778
0.277433
0.277133
0.276878
0.276668
0.2765
0.276372
0.276281
0.276227
0.276205
0.276215
0.276247
0.276306
0.27638
0.276472
0.27657
0.276675
0.276777
0.276877
0.276969
0.277043
0.277092
0.277102
0.27707
0.276971
0.339544
0.338665
0.337755
0.336829
0.335891
0.334951
0.334011
0.333067
0.332116
0.331144
0.330148
0.329114
0.328039
0.326918
0.325746
0.324523
0.323249
0.321925
0.320554
0.319142
0.317694
0.316215
0.314712
0.313197
0.311675
0.310154
0.308641
0.30714
0.305658
0.304199
0.302767
0.301368
0.300005
0.298681
0.297401
0.296165
0.294977
0.293838
0.292751
0.291718
0.29074
0.289821
0.288961
0.288163
0.287429
0.286761
0.286161
0.28563
0.285171
0.284786
0.284477
0.284247
0.284097
0.284028
0.284043
0.284142
0.284327
0.284597
0.284954
0.285396
0.285923
0.28653
0.287221
0.28798
0.288807
0.289693
0.290635
0.291614
0.292613
0.293635
0.294659
0.295654
0.296589
0.297437
0.298171
0.298753
0.346772
0.345677
0.344584
0.343501
0.342427
0.341366
0.340312
0.339248
0.338155
0.337024
0.335846
0.334607
0.333301
0.331926
0.330483
0.328979
0.327424
0.325829
0.324208
0.322575
0.320946
0.319329
0.317733
0.316164
0.314626
0.31312
0.311649
0.310213
0.308815
0.307454
0.306132
0.304852
0.303615
0.302423
0.30128
0.300187
0.29915
0.298173
0.297259
0.296417
0.295652
0.294972
0.294385
0.293899
0.293523
0.293268
0.293142
0.293159
0.293328
0.293662
0.294171
0.294869
0.295766
0.296873
0.2982
0.299757
0.30155
0.303585
0.305866
0.308395
0.311166
0.31417
0.317405
0.320838
0.324464
0.328253
0.33216
0.336123
0.340175
0.344224
0.348169
0.351918
0.355391
0.358517
0.36121
0.353619
0.352539
0.351583
0.350713
0.349928
0.349207
0.348516
0.347805
0.347027
0.346123
0.345048
0.343768
0.342261
0.34053
0.338592
0.336485
0.334255
0.33196
0.32966
0.327412
0.325259
0.323231
0.321361
0.319629
0.31802
0.31652
0.315117
0.3138
0.312563
0.311401
0.310312
0.309298
0.308363
0.307513
0.306758
0.30611
0.305586
0.305203
0.304983
0.304948
0.305126
0.305542
0.306229
0.307217
0.308539
0.310232
0.31233
0.314872
0.317893
0.32143
0.325517
0.330186
0.335465
0.341378
0.347942
0.355165
0.363049
0.371587
0.380759
0.390521
0.400849
0.411669
0.422895
0.434469
0.446307
0.458242
0.470092
0.481972
0.493599
0.504716
0.515117
0.524641
0.533162
0.540548
0.366005
0.367096
0.368661
0.370719
0.373222
0.376044
0.379001
0.381842
0.3843
0.386098
0.387003
0.386852
0.385568
0.383172
0.379779
0.375573
0.370791
0.365686
0.360498
0.355472
0.350756
0.34654
0.342889
0.339725
0.336985
0.334617
0.33258
0.330848
0.329406
0.328253
0.327398
0.326862
0.326677
0.326885
0.327536
0.328688
0.330409
0.332769
0.335845
0.339719
0.344473
0.350193
0.356962
0.364859
0.373964
0.384344
0.396061
0.409164
0.423687
0.439648
0.457048
0.475866
0.49606
0.517567
0.540296
0.564138
0.588965
0.614619
0.640918
0.667685
0.694717
0.721739
0.748621
0.775125
0.800926
0.825725
0.849776
0.872533
0.893645
0.912888
0.930127
0.945301
0.958387
0.407465
0.418549
0.432129
0.448323
0.466966
0.487519
0.509058
0.530383
0.550133
0.566983
0.579808
0.587821
0.590653
0.588358
0.581367
0.570417
0.556416
0.540376
0.52328
0.50599
0.489363
0.473794
0.460128
0.448574
0.438871
0.430824
0.424297
0.419209
0.41553
0.413277
0.412506
0.413306
0.415789
0.420088
0.426343
0.4347
0.445295
0.458256
0.473689
0.491679
0.512282
0.535522
0.561392
0.589852
0.620829
0.654219
0.68989
0.727683
0.767413
0.808873
0.851837
0.89606
0.941286
0.987245
1.03365
1.08022
1.12667
1.17269
1.21801
1.26236
1.30539
1.34683
1.3866
1.42436
1.45977
1.49304
1.52383
1.55185
1.57697
1.59917
1.61855
1.63532
1.6496
0.552012
0.600881
0.663575
0.736827
0.8191
0.907266
0.99686
1.08267
1.15957
1.22316
1.2703
1.29939
1.31028
1.30407
1.28284
1.24929
1.20645
1.15724
1.10458
1.05097
0.998391
0.949203
0.903942
0.864931
0.833245
0.808171
0.789236
0.776114
0.768584
0.766497
0.769735
0.778187
0.79173
0.810212
0.833449
0.861221
0.893279
0.929351
0.969148
1.01237
1.05872
1.10789
1.15955
1.21341
1.26914
1.32642
1.38495
1.44441
1.50448
1.56485
1.62522
1.68527
1.74471
1.80323
1.86054
1.91637
1.97044
2.02246
2.07227
2.11956
2.16407
2.20583
2.24451
2.27985
2.31179
2.3411
2.36668
2.38871
2.40742
2.4231
2.43609
2.44682
2.45544
1.20532
1.41875
1.6654
1.92233
2.17538
2.41001
2.61361
2.77714
2.89571
2.96853
2.99804
2.98897
2.94726
2.8795
2.79228
2.69186
2.58375
2.47269
2.36286
2.25757
2.15988
2.07184
1.99576
1.93255
1.88188
1.84336
1.81648
1.79997
1.79254
1.79257
1.79916
1.81147
1.82883
1.8507
1.8767
1.90652
1.93996
1.97685
2.01701
2.06024
2.10627
2.15485
2.20562
2.25823
2.31228
2.36734
2.42299
2.47884
2.53448
2.58952
2.64361
2.6964
2.74755
2.79677
2.84378
2.88826
2.93007
2.96897
3.00469
3.03712
3.06636
3.092
3.11401
3.13315
3.1485
3.1602
3.1687
3.17442
3.17774
3.17913
3.17928
3.17811
3.33777
3.84014
4.30324
4.68835
4.98874
5.20346
5.33739
5.39943
5.40052
5.35224
5.26558
5.15042
5.01551
4.86839
4.71521
4.56107
4.40955
4.26495
4.13029
4.00329
3.88909
3.78414
3.6865
3.59819
3.51961
3.45073
3.39112
3.34
3.29745
3.26211
3.23259
3.20835
3.18929
3.1754
3.16675
3.1637
3.16627
3.17429
3.18753
3.2056
3.22874
3.25604
3.28661
3.3197
3.35462
3.39069
3.42731
3.46392
3.50003
3.53517
3.56895
3.601
3.631
3.65866
3.68375
3.70614
3.72556
3.7419
3.75532
3.7654
3.77219
3.77613
3.77713
3.77489
3.76997
3.76284
3.75392
3.74362
3.73247
3.7212
3.70967
6.71089
7.08978
7.34202
7.48302
7.5357
7.51745
7.44389
7.32864
7.18388
7.01959
6.84392
6.66336
6.48283
6.30571
6.13482
5.97032
5.81404
5.66408
5.52456
5.39019
5.26358
5.14569
5.03373
4.92688
4.82728
4.73547
4.65138
4.57463
4.5048
4.44165
4.38543
4.3356
4.29163
4.25362
4.22177
4.1959
4.17602
4.16162
4.15214
4.14801
4.14871
4.15363
4.16155
4.17157
4.18289
4.19484
4.20685
4.21842
4.22912
4.23857
4.24646
4.25251
4.25653
4.25839
4.25789
4.25496
4.24969
4.24186
4.23155
4.21896
4.20436
4.18741
4.16864
4.14847
4.1273
4.10548
4.08338
4.06146
4.04048
4.02017
8.82316
8.87438
8.82864
8.71971
8.56615
8.38309
8.18296
7.97553
7.76774
7.56469
7.36961
7.18354
7.00752
6.84203
6.68483
6.5385
6.39836
6.26387
6.13792
6.02065
5.91184
5.81035
5.71536
5.62613
5.54227
5.46336
5.3891
5.31919
5.25356
5.19216
5.13497
5.08179
5.03287
4.98823
4.94727
4.90982
4.87649
4.84769
4.82196
4.79883
4.7792
4.76204
4.74652
4.73201
4.71797
4.704
4.68969
4.67475
4.65892
4.642
4.62381
4.60428
4.58328
4.56079
4.53686
4.51141
4.48452
4.45635
4.42706
4.39654
4.36523
4.33347
4.30154
4.26973
4.2383
4.20753
4.17783
4.1497
4.12305
9.38179
9.24555
9.03926
8.80602
8.5619
8.31901
8.08511
7.86627
7.66395
7.48037
7.31427
7.16392
7.02955
6.90553
6.79257
6.6894
6.59468
6.50702
6.42537
6.34855
6.27573
6.20592
6.13856
6.07291
6.00871
5.9456
5.88358
5.82239
5.76215
5.70292
5.64493
5.58796
5.53231
5.47828
5.42591
5.37484
5.32555
5.27817
5.23228
5.18765
5.14515
5.10417
5.06426
5.02511
4.98643
4.948
4.90961
4.87114
4.83241
4.79339
4.75399
4.71418
4.67391
4.6333
4.59225
4.5509
4.50932
4.46758
4.42576
4.38414
4.34298
4.30244
4.26273
4.224
4.18645
4.15024
4.11565
4.08295
4.05233
8.62845
8.34976
8.07544
7.82641
7.60236
7.40515
7.23572
7.09186
6.97113
6.86998
6.78592
6.71545
6.65605
6.60502
6.56087
6.52076
6.48404
6.4486
6.41399
6.37851
6.34208
6.30342
6.26268
6.21896
6.1727
6.12339
6.07152
6.01673
5.95977
5.90061
5.83972
5.77715
5.71378
5.64972
5.58515
5.52035
5.45579
5.39151
5.32765
5.26476
5.20274
5.14163
5.08131
5.02184
4.96305
4.90505
4.84764
4.79095
4.73483
4.67942
4.62454
4.57042
4.51686
4.46408
4.41204
4.36087
4.31045
4.26113
4.21303
4.1662
4.12082
4.07686
4.03453
3.99378
3.95484
3.91772
3.88251
3.84993
7.2178
7.00754
6.82836
6.67857
6.55744
6.46077
6.3903
6.33982
6.30616
6.28449
6.27328
6.26809
6.26887
6.27164
6.277
6.28062
6.2837
6.28261
6.27895
6.26952
6.25602
6.23567
6.21029
6.17771
6.13991
6.09515
6.04525
5.98918
5.92884
5.86347
5.79457
5.72214
5.64754
5.57062
5.49227
5.41298
5.33335
5.2537
5.17432
5.09584
5.01828
4.94213
4.86715
4.79383
4.72178
4.6515
4.58253
4.51539
4.44956
4.38559
4.32295
4.2621
4.20267
4.14519
4.08893
4.03453
3.98196
3.93116
3.88237
3.8352
3.79005
3.74657
3.70514
3.66546
3.62778
3.59177
3.55891
6.10722
5.99017
5.89705
5.82933
0.274482
0.273275
0.272074
0.270879
0.26969
0.268508
0.267333
0.266164
0.265003
0.263849
0.262704
0.261566
0.260437
0.259318
0.258207
0.257106
0.256014
0.254932
0.253861
0.252799
0.251748
0.250707
0.249677
0.248657
0.247648
0.246649
0.245661
0.244683
0.243716
0.242759
0.241812
0.240876
0.239949
0.239033
0.238127
0.237231
0.236345
0.23547
0.234605
0.233751
0.232907
0.232075
0.231254
0.230445
0.229648
0.228865
0.228094
0.227337
0.226595
0.225868
0.225156
0.22446
0.223781
0.22312
0.222476
0.22185
0.221243
0.220656
0.220088
0.21954
0.219013
0.218506
0.21802
0.217556
0.217111
0.216686
0.216282
0.215897
0.215533
0.215188
0.214863
0.214557
0.214269
0.213999
0.213746
0.21351
0.213282
0.274597
0.273393
0.272194
0.271002
0.269816
0.268636
0.267463
0.266297
0.265138
0.263987
0.262843
0.261707
0.26058
0.259462
0.258352
0.257252
0.256162
0.255081
0.25401
0.25295
0.251899
0.25086
0.24983
0.248812
0.247804
0.246807
0.245821
0.244845
0.24388
0.242925
0.241981
0.241048
0.240125
0.239212
0.23831
0.237419
0.236538
0.235668
0.234808
0.23396
0.233122
0.232297
0.231483
0.230681
0.229893
0.229117
0.228355
0.227606
0.226873
0.226155
0.225452
0.224766
0.224097
0.223445
0.22281
0.222195
0.221598
0.22102
0.220463
0.219925
0.219408
0.218911
0.218436
0.217982
0.217547
0.217133
0.216739
0.216364
0.21601
0.215676
0.215361
0.215064
0.214786
0.214526
0.214284
0.214057
0.213838
0.274872
0.273672
0.272478
0.271289
0.270107
0.268931
0.267761
0.266597
0.265441
0.264292
0.26315
0.262016
0.260891
0.259774
0.258666
0.257567
0.256478
0.255398
0.254328
0.253268
0.252218
0.251179
0.250151
0.249133
0.248126
0.24713
0.246145
0.245171
0.244208
0.243255
0.242314
0.241383
0.240463
0.239553
0.238655
0.237767
0.23689
0.236025
0.23517
0.234327
0.233496
0.232676
0.231869
0.231074
0.230292
0.229524
0.228769
0.228029
0.227303
0.226593
0.225899
0.225221
0.22456
0.223917
0.223291
0.222684
0.222096
0.221527
0.220978
0.220448
0.21994
0.219452
0.218985
0.218538
0.218112
0.217705
0.217319
0.216952
0.216605
0.216279
0.215971
0.215683
0.215412
0.21516
0.214924
0.214705
0.214494
0.275378
0.274185
0.272996
0.271813
0.270635
0.269464
0.268298
0.267139
0.265986
0.26484
0.263702
0.262571
0.261448
0.260333
0.259227
0.25813
0.257041
0.255963
0.254894
0.253835
0.252786
0.251747
0.25072
0.249703
0.248696
0.247701
0.246717
0.245744
0.244782
0.24383
0.24289
0.241961
0.241043
0.240135
0.239239
0.238355
0.237481
0.236619
0.235768
0.234929
0.234102
0.233287
0.232485
0.231695
0.230919
0.230156
0.229408
0.228674
0.227955
0.227252
0.226565
0.225894
0.225241
0.224605
0.223987
0.223388
0.222808
0.222247
0.221706
0.221184
0.220684
0.220204
0.219745
0.219306
0.218887
0.218488
0.218109
0.21775
0.217411
0.217091
0.216791
0.216509
0.216245
0.215999
0.21577
0.215557
0.21535
0.276199
0.275013
0.273832
0.272655
0.271484
0.270318
0.269157
0.268003
0.266854
0.265712
0.264577
0.263448
0.262328
0.261215
0.26011
0.259014
0.257927
0.256849
0.25578
0.254721
0.253672
0.252633
0.251605
0.250588
0.249581
0.248586
0.247601
0.246627
0.245665
0.244713
0.243773
0.242844
0.241926
0.24102
0.240125
0.239241
0.238369
0.237509
0.23666
0.235823
0.234999
0.234187
0.233389
0.232603
0.231831
0.231073
0.230329
0.229601
0.228888
0.22819
0.227509
0.226845
0.226198
0.225568
0.224957
0.224365
0.223792
0.223238
0.222704
0.22219
0.221696
0.221223
0.220771
0.220339
0.219927
0.219534
0.219162
0.218809
0.218476
0.218162
0.217867
0.21759
0.217332
0.217091
0.216866
0.216656
0.216453
0.277359
0.276182
0.275008
0.273839
0.272674
0.271514
0.270359
0.269209
0.268065
0.266927
0.265795
0.264669
0.263551
0.26244
0.261336
0.260241
0.259154
0.258076
0.257007
0.255947
0.254897
0.253857
0.252828
0.251809
0.2508
0.249803
0.248816
0.247841
0.246877
0.245924
0.244982
0.244052
0.243133
0.242225
0.24133
0.240446
0.239574
0.238714
0.237866
0.237031
0.236208
0.235399
0.234602
0.23382
0.233051
0.232297
0.231557
0.230833
0.230124
0.229432
0.228756
0.228097
0.227456
0.226833
0.226228
0.225642
0.225075
0.224527
0.224
0.223492
0.223005
0.222539
0.222093
0.221667
0.221261
0.220874
0.220507
0.22016
0.219832
0.219523
0.219232
0.21896
0.218705
0.218467
0.218245
0.218039
0.217837
0.278785
0.277618
0.276453
0.275292
0.274135
0.272982
0.271833
0.27069
0.26955
0.268417
0.267289
0.266167
0.265051
0.263943
0.262841
0.261747
0.260661
0.259583
0.258514
0.257454
0.256403
0.255362
0.254331
0.25331
0.2523
0.2513
0.250312
0.249334
0.248368
0.247413
0.246469
0.245537
0.244616
0.243708
0.242811
0.241927
0.241054
0.240195
0.239348
0.238513
0.237692
0.236884
0.23609
0.23531
0.234545
0.233794
0.233059
0.232339
0.231635
0.230948
0.230278
0.229625
0.22899
0.228374
0.227775
0.227196
0.226636
0.226096
0.225575
0.225075
0.224595
0.224135
0.223696
0.223276
0.222876
0.222495
0.222134
0.221792
0.22147
0.221166
0.22088
0.220612
0.220361
0.220126
0.219906
0.219701
0.219501
0.280326
0.27917
0.278016