/*--------------------------------*- C++ -*----------------------------------*\
  =========                 |
  \\      /  F ield         | OpenFOAM: The Open Source CFD Toolbox
   \\    /   O peration     | Website:  https://openfoam.org
    \\  /    A nd           | Version:  13
     \\/     M anipulation  |
\*---------------------------------------------------------------------------*/
FoamFile
{
    format      ascii;
    class       volScalarField;
    location    "100";
    object      nut;
}
// * * * * * * * * * * * * * * * * * * * * * * * * * * * * * * * * * * * * * //

dimensions      [0 2 -1 0 0 0 0];

internalField   nonuniform List<scalar> 
172836
(
0.0180781
0.0180929
0.018108
0.0181237
0.0181398
0.0181564
0.0181735
0.018192
0.0181127
0.0181278
0.0181432
0.0181592
0.0181756
0.0181925
0.0182099
0.0182287
0.018149
0.018164
0.0181794
0.0181952
0.0182115
0.0182282
0.0182454
0.0182631
0.0182821
0.0182285
0.0182437
0.0182592
0.0182752
0.0182915
0.0183083
0.0183255
0.0183431
0.0183621
0.0183454
0.0183605
0.0183759
0.0183916
0.0184077
0.0184241
0.018441
0.0184582
0.0184768
0.0185062
0.0185209
0.0185357
0.0185508
0.0185662
0.018582
0.0185981
0.0186145
0.0186321
0.0187126
0.0187265
0.0187404
0.0187546
0.018769
0.0187837
0.0187986
0.0188138
0.0188302
0.0189604
0.0189729
0.0189861
0.0189992
0.0190125
0.019026
0.0190396
0.0190533
0.0190682
0.0192443
0.019256
0.0192679
0.0192799
0.0192921
0.0193044
0.0193168
0.0193302
0.0180329
0.018045
0.0180576
0.0180708
0.0180847
0.0180992
0.0181143
0.01813
0.0181462
0.0181629
0.0181802
0.0181989
0.0182168
0.0180648
0.0180774
0.0180906
0.0181043
0.0181187
0.0181336
0.0181491
0.0181652
0.0181818
0.0181989
0.0182164
0.0182354
0.0182535
0.0181149
0.018128
0.0181416
0.0181557
0.0181703
0.0181856
0.0182014
0.0182178
0.0182346
0.0182519
0.0182696
0.0182887
0.018307
0.0181929
0.0182063
0.0182201
0.0182344
0.0182493
0.0182647
0.0182806
0.018297
0.0183139
0.0183311
0.0183488
0.0183679
0.018386
0.0183088
0.0183221
0.0183359
0.0183501
0.0183648
0.0183801
0.0183958
0.0184119
0.0184284
0.0184454
0.0184626
0.0184812
0.0184988
0.0184693
0.0184823
0.0184957
0.0185095
0.0185237
0.0185384
0.0185535
0.0185689
0.0185847
0.0186009
0.0186173
0.0186349
0.0186516
0.018676
0.0186884
0.0187011
0.0187142
0.0187276
0.0187413
0.0187554
0.0187699
0.0187846
0.0187995
0.0188147
0.0188311
0.0188464
0.0189243
0.0189359
0.0189478
0.0189599
0.0189723
0.018985
0.018998
0.0190112
0.0190246
0.0190382
0.0190519
0.0190667
0.0190804
0.0191947
0.0192055
0.0192166
0.019228
0.0192396
0.0192514
0.0192635
0.0192757
0.019288
0.0193005
0.019313
0.0193264
0.0193387
0.0195977
0.0184067
0.0183939
0.0183811
0.0183683
0.0183553
0.0183424
0.0183294
0.0183165
0.0183035
0.0182906
0.0182777
0.0182648
0.0182521
0.0182394
0.0182269
0.0182144
0.0182021
0.01819
0.018178
0.0181662
0.0181546
0.0181432
0.018132
0.018121
0.0181103
0.0180998
0.0180895
0.0180795
0.0180697
0.0180602
0.018051
0.018042
0.0180333
0.018025
0.0180169
0.0180092
0.0180017
0.0179947
0.017988
0.0179816
0.0179757
0.0179702
0.0179652
0.0179606
0.0179565
0.0179529
0.0179499
0.0179475
0.0179457
0.0179445
0.017944
0.0179442
0.0179452
0.0179469
0.0179493
0.0179525
0.0179566
0.0179614
0.0179671
0.0179737
0.0179811
0.0179893
0.0179984
0.0180084
0.0180191
0.0180306
0.0180429
0.0180559
0.0180696
0.018084
0.0180991
0.0181147
0.0181309
0.0181477
0.0181649
0.0181825
0.0181997
0.0184156
0.0184031
0.0183904
0.0183778
0.018365
0.0183523
0.0183395
0.0183267
0.0183139
0.0183011
0.0182884
0.0182757
0.0182631
0.0182505
0.0182381
0.0182258
0.0182137
0.0182017
0.0181898
0.0181782
0.0181667
0.0181554
0.0181444
0.0181336
0.018123
0.0181127
0.0181026
0.0180928
0.0180833
0.018074
0.018065
0.0180563
0.018048
0.0180399
0.0180322
0.0180247
0.0180177
0.018011
0.0180047
0.0179988
0.0179933
0.0179883
0.0179837
0.0179796
0.017976
0.017973
0.0179706
0.0179687
0.0179675
0.0179669
0.017967
0.0179678
0.0179693
0.0179716
0.0179747
0.0179786
0.0179832
0.0179887
0.017995
0.0180022
0.0180102
0.018019
0.0180287
0.0180393
0.0180506
0.0180626
0.0180754
0.0180889
0.0181031
0.018118
0.0181334
0.0181495
0.018166
0.0181831
0.0182006
0.0182186
0.018236
0.0184402
0.0184281
0.0184159
0.0184036
0.0183912
0.0183788
0.0183663
0.0183539
0.0183414
0.0183289
0.0183164
0.0183039
0.0182916
0.0182793
0.0182671
0.018255
0.018243
0.0182312
0.0182195
0.0182081
0.0181968
0.0181857
0.0181749
0.0181643
0.0181539
0.0181438
0.0181339
0.0181244
0.0181151
0.0181061
0.0180974
0.018089
0.0180809
0.0180732
0.0180658
0.0180587
0.0180521
0.0180458
0.0180399
0.0180345
0.0180294
0.0180249
0.0180208
0.0180172
0.0180142
0.0180117
0.0180098
0.0180085
0.0180079
0.0180079
0.0180086
0.01801
0.0180121
0.018015
0.0180186
0.0180231
0.0180283
0.0180344
0.0180412
0.0180489
0.0180575
0.0180668
0.018077
0.0180881
0.0180998
0.0181123
0.0181255
0.0181394
0.018154
0.0181692
0.018185
0.0182013
0.0182182
0.0182355
0.0182532
0.0182713
0.0182889
0.0184945
0.018483
0.0184714
0.0184597
0.0184479
0.0184359
0.0184239
0.0184119
0.0183998
0.0183876
0.0183755
0.0183634
0.0183513
0.0183392
0.0183273
0.0183154
0.0183036
0.018292
0.0182805
0.0182692
0.018258
0.0182471
0.0182364
0.018226
0.0182158
0.0182058
0.0181961
0.0181867
0.0181776
0.0181688
0.0181603
0.0181521
0.0181443
0.0181368
0.0181297
0.0181229
0.0181165
0.0181106
0.0181051
0.0181
0.0180953
0.0180911
0.0180875
0.0180843
0.0180818
0.0180797
0.0180783
0.0180775
0.0180774
0.0180779
0.0180791
0.018081
0.0180836
0.018087
0.0180912
0.0180961
0.0181019
0.0181084
0.0181157
0.0181239
0.0181329
0.0181426
0.0181532
0.0181646
0.0181767
0.0181895
0.018203
0.0182171
0.0182319
0.0182473
0.0182632
0.0182797
0.0182966
0.0183139
0.0183317
0.0183497
0.0183672
0.0185965
0.0185857
0.0185748
0.0185637
0.0185524
0.018541
0.0185295
0.0185179
0.0185062
0.0184944
0.0184825
0.0184706
0.0184587
0.0184468
0.0184349
0.0184231
0.0184114
0.0183998
0.0183883
0.018377
0.0183658
0.0183549
0.0183441
0.0183336
0.0183233
0.0183133
0.0183036
0.0182941
0.018285
0.0182762
0.0182676
0.0182595
0.0182516
0.0182442
0.0182371
0.0182304
0.0182241
0.0182183
0.0182129
0.018208
0.0182035
0.0181996
0.0181961
0.0181932
0.0181909
0.0181892
0.0181881
0.0181876
0.0181877
0.0181886
0.0181901
0.0181924
0.0181954
0.0181991
0.0182036
0.0182089
0.0182149
0.0182217
0.0182293
0.0182377
0.0182469
0.0182569
0.0182676
0.0182791
0.0182913
0.0183041
0.0183176
0.0183317
0.0183464
0.0183616
0.0183774
0.0183936
0.0184103
0.0184273
0.0184447
0.0184623
0.0184793
0.0187586
0.0187485
0.0187382
0.0187276
0.0187168
0.0187058
0.0186946
0.0186833
0.0186718
0.0186601
0.0186484
0.0186366
0.0186246
0.0186127
0.0186007
0.0185888
0.0185769
0.018565
0.0185533
0.0185417
0.0185303
0.018519
0.0185079
0.018497
0.0184864
0.018476
0.0184659
0.0184561
0.0184466
0.0184374
0.0184286
0.0184201
0.0184119
0.0184042
0.0183969
0.0183899
0.0183835
0.0183775
0.0183719
0.0183669
0.0183623
0.0183583
0.0183549
0.018352
0.0183497
0.018348
0.018347
0.0183466
0.0183469
0.0183478
0.0183495
0.0183518
0.018355
0.0183588
0.0183634
0.0183687
0.0183749
0.0183817
0.0183894
0.0183977
0.0184069
0.0184168
0.0184274
0.0184387
0.0184506
0.0184632
0.0184763
0.0184901
0.0185043
0.0185191
0.0185343
0.0185499
0.0185658
0.0185821
0.0185987
0.0186155
0.0186316
0.0189772
0.0189677
0.0189578
0.0189477
0.0189372
0.0189266
0.0189156
0.0189045
0.0188931
0.0188815
0.0188698
0.018858
0.018846
0.0188339
0.0188218
0.0188096
0.0187974
0.0187853
0.0187732
0.0187612
0.0187493
0.0187376
0.018726
0.0187147
0.0187035
0.0186926
0.0186819
0.0186716
0.0186615
0.0186518
0.0186424
0.0186334
0.0186248
0.0186165
0.0186088
0.0186014
0.0185945
0.0185882
0.0185823
0.0185769
0.0185721
0.0185679
0.0185642
0.0185612
0.0185587
0.0185569
0.0185558
0.0185553
0.0185555
0.0185564
0.018558
0.0185603
0.0185634
0.0185672
0.0185717
0.0185769
0.0185829
0.0185896
0.0185971
0.0186053
0.0186141
0.0186237
0.0186339
0.0186448
0.0186563
0.0186683
0.0186808
0.0186939
0.0187074
0.0187213
0.0187356
0.0187502
0.0187651
0.0187803
0.0187957
0.0188112
0.018826
0.0192259
0.0192171
0.019208
0.0191986
0.0191888
0.0191787
0.0191683
0.0191577
0.0191468
0.0191357
0.0191244
0.0191129
0.0191012
0.0190894
0.0190775
0.0190656
0.0190535
0.0190415
0.0190294
0.0190174
0.0190055
0.0189936
0.0189819
0.0189704
0.018959
0.0189478
0.0189369
0.0189263
0.0189159
0.0189059
0.0188962
0.0188868
0.0188779
0.0188693
0.0188613
0.0188536
0.0188465
0.0188399
0.0188338
0.0188282
0.0188233
0.0188189
0.0188151
0.0188119
0.0188094
0.0188075
0.0188063
0.0188058
0.018806
0.0188069
0.0188084
0.0188107
0.0188137
0.0188175
0.0188219
0.0188271
0.0188329
0.0188395
0.0188467
0.0188546
0.0188631
0.0188723
0.0188821
0.0188925
0.0189033
0.0189147
0.0189265
0.0189387
0.0189513
0.0189642
0.0189774
0.0189909
0.0190046
0.0190184
0.0190324
0.0190464
0.0190597
0.0194618
0.0194543
0.0194465
0.0194382
0.0194296
0.0194207
0.0194115
0.019402
0.0193922
0.0193822
0.0193719
0.0193615
0.0193508
0.01934
0.0193291
0.019318
0.0193069
0.0192957
0.0192844
0.0192731
0.0192619
0.0192507
0.0192396
0.0192286
0.0192178
0.0192071
0.0191967
0.0191865
0.0191765
0.0191669
0.0191576
0.0191486
0.01914
0.0191318
0.0191241
0.0191168
0.0191101
0.0191038
0.0190981
0.0190929
0.0190883
0.0190842
0.0190808
0.019078
0.0190759
0.0190744
0.0190735
0.0190734
0.0190739
0.0190751
0.019077
0.0190796
0.0190829
0.0190869
0.0190915
0.0190968
0.0191028
0.0191094
0.0191167
0.0191246
0.019133
0.019142
0.0191516
0.0191617
0.0191721
0.019183
0.0191942
0.0192058
0.0192176
0.0192297
0.019242
0.0192544
0.019267
0.0192797
0.0192923
0.019305
0.0193169
0.01966
0.0196541
0.0196478
0.0196412
0.0196341
0.0196267
0.019619
0.019611
0.0196027
0.0195941
0.0195853
0.0195762
0.019567
0.0195576
0.019548
0.0195383
0.0195285
0.0195186
0.0195086
0.0194985
0.0194885
0.0194785
0.0194685
0.0194587
0.0194489
0.0194394
0.01943
0.0194208
0.0194119
0.0194032
0.0193949
0.0193869
0.0193792
0.019372
0.0193652
0.0193588
0.019353
0.0193476
0.0193427
0.0193384
0.0193347
0.0193315
0.019329
0.019327
0.0193257
0.019325
0.019325
0.0193256
0.0193269
0.0193289
0.0193315
0.0193348
0.0193387
0.0193432
0.0193484
0.0193543
0.0193607
0.0193677
0.0193753
0.0193835
0.0193921
0.0194013
0.019411
0.0194209
0.0194314
0.0194421
0.0194532
0.0194645
0.019476
0.0194877
0.0194995
0.0195113
0.0195232
0.0195351
0.0195469
0.0195587
0.0195695
0.0198207
0.0198165
0.0198119
0.0198068
0.0198014
0.0197956
0.0197894
0.019783
0.0197762
0.0197692
0.0197619
0.0197543
0.0197465
0.0197386
0.0197304
0.0197221
0.0197137
0.0197051
0.0196965
0.0196878
0.0196791
0.0196704
0.0196617
0.0196531
0.0196446
0.0196362
0.019628
0.01962
0.0196123
0.0196048
0.0195976
0.0195908
0.0195843
0.0195782
0.0195725
0.0195673
0.0195626
0.0195583
0.0195546
0.0195514
0.0195487
0.0195466
0.0195452
0.0195443
0.019544
0.0195443
0.0195453
0.0195469
0.0195491
0.019552
0.0195555
0.0195596
0.0195643
0.0195697
0.0195756
0.0195821
0.0195891
0.0195967
0.0196048
0.0196134
0.0196225
0.019632
0.0196418
0.0196521
0.0196626
0.0196733
0.0196843
0.0196954
0.0197067
0.0197181
0.0197295
0.0197409
0.0197523
0.0197635
0.0197747
0.0197857
0.0197957
0.019955
0.0199525
0.0199495
0.0199461
0.0199422
0.019938
0.0199334
0.0199285
0.0199232
0.0199177
0.0199118
0.0199057
0.0198993
0.0198927
0.0198859
0.0198789
0.0198718
0.0198644
0.019857
0.0198495
0.019842
0.0198344
0.0198268
0.0198193
0.0198119
0.0198046
0.0197974
0.0197905
0.0197838
0.0197773
0.0197712
0.0197653
0.0197598
0.0197548
0.0197501
0.0197459
0.0197422
0.019739
0.0197363
0.0197341
0.0197325
0.0197315
0.019731
0.0197312
0.0197319
0.0197333
0.0197352
0.0197378
0.019741
0.0197448
0.0197492
0.0197542
0.0197598
0.0197659
0.0197726
0.0197798
0.0197876
0.0197958
0.0198045
0.0198137
0.0198232
0.0198331
0.0198434
0.0198539
0.0198646
0.0198756
0.0198867
0.0198978
0.019909
0.0199203
0.0199315
0.0199426
0.0199537
0.0199646
0.0199752
0.0199857
0.0199951
0.0200753
0.0200746
0.0200733
0.0200715
0.0200692
0.0200665
0.0200635
0.02006
0.0200562
0.0200521
0.0200477
0.0200429
0.0200378
0.0200325
0.0200269
0.020021
0.020015
0.0200087
0.0200023
0.0199958
0.0199892
0.0199825
0.0199758
0.0199692
0.0199626
0.0199561
0.0199497
0.0199435
0.0199376
0.0199319
0.0199265
0.0199214
0.0199167
0.0199124
0.0199085
0.0199051
0.0199022
0.0198998
0.019898
0.0198967
0.0198959
0.0198958
0.0198962
0.0198973
0.0198989
0.0199012
0.0199041
0.0199076
0.0199117
0.0199164
0.0199217
0.0199275
0.0199339
0.0199409
0.0199484
0.0199564
0.0199648
0.0199737
0.0199831
0.0199928
0.0200029
0.0200133
0.0200239
0.0200348
0.0200458
0.020057
0.0200682
0.0200795
0.0200908
0.020102
0.0201131
0.020124
0.0201348
0.0201454
0.0201557
0.0201657
0.0201747
0.0201928
0.0201939
0.0201944
0.0201943
0.0201937
0.0201926
0.0201912
0.0201893
0.020187
0.0201843
0.0201812
0.0201778
0.020174
0.0201698
0.0201654
0.0201606
0.0201556
0.0201502
0.0201447
0.0201389
0.020133
0.020127
0.0201209
0.0201148
0.0201087
0.0201026
0.0200967
0.020091
0.0200854
0.0200801
0.0200751
0.0200704
0.0200661
0.0200623
0.0200588
0.0200559
0.0200536
0.0200517
0.0200505
0.0200498
0.0200497
0.0200502
0.0200514
0.0200532
0.0200556
0.0200587
0.0200624
0.0200668
0.0200717
0.0200773
0.0200834
0.0200901
0.0200974
0.0201052
0.0201135
0.0201223
0.0201315
0.0201411
0.0201512
0.0201615
0.0201722
0.0201832
0.0201944
0.0202056
0.0202171
0.0202285
0.02024
0.0202514
0.0202627
0.0202739
0.0202849
0.0202957
0.0203062
0.0203165
0.0203264
0.0203359
0.0203444
0.0203164
0.0203195
0.0203219
0.0203237
0.0203248
0.0203255
0.0203257
0.0203254
0.0203246
0.0203235
0.0203218
0.0203198
0.0203173
0.0203144
0.020311
0.0203073
0.0203031
0.0202986
0.0202937
0.0202886
0.0202832
0.0202776
0.0202718
0.020266
0.0202601
0.0202543
0.0202485
0.0202428
0.0202373
0.0202321
0.0202272
0.0202226
0.0202184
0.0202146
0.0202114
0.0202086
0.0202065
0.020205
0.020204
0.0202038
0.0202041
0.0202052
0.0202069
0.0202093
0.0202124
0.0202162
0.0202207
0.0202258
0.0202316
0.020238
0.020245
0.0202526
0.0202607
0.0202694
0.0202786
0.0202882
0.0202983
0.0203087
0.0203195
0.0203306
0.020342
0.0203536
0.0203652
0.0203771
0.0203889
0.0204007
0.0204124
0.020424
0.0204354
0.0204465
0.0204574
0.020468
0.0204782
0.0204881
0.0204976
0.0205065
0.0205143
0.0204534
0.0204587
0.0204631
0.0204668
0.0204699
0.0204725
0.0204744
0.0204759
0.0204769
0.0204773
0.0204773
0.0204767
0.0204756
0.020474
0.0204718
0.0204691
0.0204658
0.0204621
0.0204578
0.0204531
0.020448
0.0204426
0.020437
0.0204311
0.0204251
0.0204191
0.020413
0.0204071
0.0204013
0.0203957
0.0203904
0.0203855
0.020381
0.020377
0.0203735
0.0203707
0.0203685
0.0203669
0.0203661
0.0203659
0.0203665
0.0203679
0.02037
0.0203729
0.0203766
0.020381
0.0203862
0.0203921
0.0203987
0.0204059
0.0204138
0.0204224
0.0204315
0.0204411
0.0204513
0.0204619
0.0204729
0.0204843
0.020496
0.0205079
0.0205201
0.0205324
0.0205448
0.0205572
0.0205695
0.0205817
0.0205938
0.0206055
0.0206169
0.020628
0.0206387
0.0206489
0.0206588
0.0206682
0.020677
0.0206853
0.0206923
0.0206086
0.0206161
0.0206227
0.0206285
0.0206335
0.0206379
0.0206417
0.020645
0.0206477
0.0206499
0.0206515
0.0206525
0.0206528
0.0206525
0.0206516
0.0206499
0.0206475
0.0206445
0.0206408
0.0206364
0.0206315
0.0206261
0.0206203
0.0206142
0.0206078
0.0206013
0.0205947
0.0205882
0.0205817
0.0205755
0.0205695
0.0205639
0.0205588
0.0205542
0.0205502
0.0205469
0.0205443
0.0205424
0.0205414
0.0205412
0.0205418
0.0205433
0.0205457
0.0205489
0.020553
0.020558
0.0205637
0.0205703
0.0205777
0.0205858
0.0205947
0.0206041
0.0206143
0.0206249
0.0206361
0.0206478
0.0206598
0.0206722
0.0206848
0.0206977
0.0207107
0.0207238
0.0207369
0.02075
0.0207627
0.0207754
0.0207875
0.0207995
0.0208109
0.0208219
0.0208323
0.0208422
0.0208515
0.0208603
0.0208684
0.0208758
0.0208818
0.0207834
0.0207929
0.0208014
0.0208089
0.0208156
0.0208217
0.0208271
0.020832
0.0208364
0.0208402
0.0208434
0.0208458
0.0208476
0.0208486
0.0208489
0.0208483
0.0208468
0.0208445
0.0208413
0.0208373
0.0208324
0.0208269
0.0208208
0.0208142
0.0208072
0.0207999
0.0207924
0.0207849
0.0207774
0.0207701
0.0207631
0.0207564
0.0207503
0.0207447
0.0207398
0.0207357
0.0207323
0.0207299
0.0207283
0.0207277
0.0207281
0.0207294
0.0207317
0.020735
0.0207393
0.0207446
0.0207508
0.020758
0.0207659
0.0207748
0.0207843
0.0207947
0.0208056
0.0208172
0.0208294
0.020842
0.0208549
0.0208682
0.0208818
0.0208955
0.0209093
0.0209231
0.0209369
0.0209503
0.0209636
0.0209765
0.0209891
0.0210009
0.0210123
0.021023
0.0210331
0.0210425
0.0210512
0.0210593
0.0210665
0.0210729
0.021078
0.0209716
0.0209819
0.0209909
0.020999
0.0210062
0.0210128
0.0210188
0.0210244
0.0210294
0.0210341
0.0210381
0.0210415
0.0210443
0.0210463
0.0210475
0.0210479
0.0210473
0.0210458
0.0210433
0.0210398
0.0210352
0.0210298
0.0210235
0.0210166
0.021009
0.0210011
0.0209928
0.0209843
0.0209759
0.0209675
0.0209593
0.0209515
0.0209442
0.0209375
0.0209315
0.0209263
0.020922
0.0209186
0.0209162
0.0209149
0.0209145
0.0209153
0.0209171
0.02092
0.020924
0.0209291
0.0209351
0.0209422
0.0209502
0.0209591
0.0209688
0.0209793
0.0209905
0.0210024
0.0210148
0.0210277
0.021041
0.0210546
0.0210684
0.0210824
0.0210964
0.0211104
0.0211242
0.0211379
0.0211512
0.021164
0.0211763
0.0211881
0.0211992
0.0212096
0.0212193
0.0212282
0.0212364
0.0212439
0.0212506
0.0212563
0.0212606
0.0211477
0.0211556
0.0211623
0.021168
0.021173
0.0211774
0.0211815
0.0211854
0.021189
0.0211924
0.0211956
0.0211985
0.021201
0.0212031
0.0212048
0.0212059
0.0212063
0.021206
0.0212049
0.0212027
0.0211995
0.0211952
0.0211899
0.0211837
0.0211767
0.0211691
0.0211609
0.0211524
0.0211437
0.0211349
0.0211263
0.0211178
0.0211098
0.0211022
0.0210953
0.0210891
0.0210837
0.0210792
0.0210757
0.021073
0.0210714
0.0210709
0.0210713
0.0210728
0.0210754
0.021079
0.0210836
0.0210892
0.0210957
0.021103
0.0211112
0.0211202
0.0211299
0.0211402
0.0211511
0.0211625
0.0211744
0.0211866
0.0211991
0.0212117
0.0212245
0.0212373
0.0212502
0.0212627
0.0212752
0.0212872
0.021299
0.0213101
0.0213208
0.0213309
0.0213405
0.0213495
0.0213579
0.0213657
0.0213728
0.0213793
0.0213842
0.0212517
0.0212516
0.02125
0.0212474
0.0212442
0.0212407
0.0212371
0.0212337
0.0212307
0.0212282
0.0212262
0.0212248
0.0212242
0.0212242
0.021225
0.0212264
0.0212282
0.0212304
0.0212325
0.0212344
0.0212357
0.0212362
0.0212356
0.0212339
0.0212311
0.0212274
0.0212229
0.0212177
0.0212119
0.0212057
0.0211992
0.0211925
0.0211858
0.0211793
0.0211729
0.0211668
0.0211611
0.0211558
0.021151
0.0211468
0.0211431
0.0211401
0.0211378
0.0211361
0.021135
0.0211347
0.0211351
0.0211361
0.0211378
0.0211402
0.0211431
0.0211468
0.021151
0.0211558
0.0211611
0.021167
0.0211735
0.0211804
0.0211877
0.0211955
0.0212038
0.0212124
0.0212214
0.0212308
0.0212403
0.0212502
0.0212602
0.0212705
0.0212809
0.0212914
0.0213021
0.0213128
0.0213237
0.0213346
0.0213456
0.0213564
0.0213658
0.0211511
0.0211289
0.0211058
0.0210823
0.0210587
0.0210356
0.0210135
0.020993
0.0209745
0.0209585
0.0209453
0.0209355
0.0209294
0.0209269
0.0209283
0.0209333
0.0209414
0.020952
0.0209646
0.0209782
0.0209921
0.0210057
0.0210178
0.0210286
0.0210379
0.0210458
0.0210523
0.0210575
0.0210613
0.0210639
0.0210652
0.0210654
0.0210646
0.0210629
0.0210602
0.0210566
0.0210523
0.0210473
0.0210415
0.0210352
0.0210282
0.0210208
0.0210129
0.0210046
0.020996
0.0209872
0.0209781
0.0209689
0.0209597
0.0209505
0.0209415
0.0209326
0.0209242
0.0209161
0.0209087
0.0209019
0.020896
0.020891
0.0208871
0.0208845
0.0208832
0.0208835
0.0208852
0.0208888
0.0208941
0.0209014
0.0209105
0.0209216
0.0209349
0.0209502
0.0209674
0.0209867
0.021008
0.021031
0.0210554
0.0210788
0.0206409
0.0205756
0.0205083
0.0204415
0.0203757
0.0203116
0.0202505
0.0201934
0.0201417
0.0200966
0.0200594
0.0200311
0.0200127
0.0200048
0.0200074
0.0200203
0.0200427
0.0200735
0.020111
0.0201535
0.0201992
0.0202463
0.020293
0.0203375
0.0203797
0.0204191
0.0204557
0.0204891
0.0205193
0.020546
0.0205692
0.0205889
0.0206049
0.0206172
0.0206259
0.020631
0.0206325
0.0206304
0.0206248
0.0206158
0.0206036
0.0205882
0.0205699
0.0205487
0.0205249
0.0204986
0.0204702
0.0204398
0.0204077
0.0203743
0.0203398
0.0203047
0.0202693
0.0202342
0.0201996
0.0201662
0.0201344
0.0201048
0.020078
0.0200543
0.0200345
0.020019
0.0200085
0.020003
0.0200034
0.0200097
0.0200224
0.0200417
0.020068
0.0201006
0.0201396
0.0201851
0.0202365
0.0202931
0.0203537
0.0204133
0.0192319
0.0190938
0.0189548
0.0188202
0.0186908
0.0185681
0.0184545
0.018352
0.0182631
0.0181904
0.0181363
0.0181024
0.0180898
0.018099
0.0181295
0.0181801
0.0182488
0.018333
0.0184296
0.0185352
0.0186461
0.01876
0.0188715
0.0189792
0.0190822
0.0191798
0.0192712
0.0193558
0.0194329
0.0195022
0.0195633
0.0196157
0.0196594
0.0196941
0.0197197
0.0197363
0.0197438
0.0197424
0.0197322
0.0197135
0.0196864
0.0196515
0.019609
0.0195594
0.0195034
0.0194414
0.0193743
0.0193027
0.0192276
0.01915
0.0190708
0.0189913
0.0189128
0.0188366
0.0187641
0.0186969
0.0186363
0.0185839
0.0185412
0.0185097
0.0184907
0.0184852
0.0184945
0.0185192
0.0185599
0.0186169
0.0186902
0.0187791
0.0188833
0.0190017
0.0191322
0.0192723
0.019419
0.0195693
0.0197139
0.0165436
0.0163351
0.0161292
0.0159352
0.0157547
0.0155902
0.015445
0.0153221
0.0152248
0.0151555
0.0151161
0.0151081
0.0151318
0.0151869
0.0152726
0.0153867
0.0155267
0.0156889
0.0158694
0.0160634
0.0162658
0.0164733
0.0166778
0.0168773
0.0170696
0.0172528
0.0174249
0.0175845
0.0177301
0.0178605
0.0179747
0.018072
0.0181519
0.0182138
0.0182577
0.0182835
0.0182915
0.018282
0.0182556
0.0182132
0.0181557
0.0180844
0.0180008
0.0179068
0.0178043
0.0176958
0.0175838
0.0174711
0.0173607
0.0172559
0.0171598
0.0170755
0.0170062
0.0169548
0.016924
0.0169163
0.0169336
0.0169778
0.0170499
0.0171506
0.0172807
0.0174395
0.0176262
0.0178402
0.0180804
0.0183432
0.0186245
0.0189271
0.0192442
0.0195687
0.0198941
0.020215
0.020526
0.0208142
0.0128931
0.0126918
0.0125122
0.0123561
0.0122259
0.0121237
0.0120508
0.0120069
0.0119912
0.012002
0.0120378
0.012097
0.0121788
0.012283
0.0124099
0.0125599
0.0127333
0.0129299
0.0131489
0.0133874
0.0136426
0.01391
0.0141823
0.0144545
0.0147221
0.0149807
0.0152262
0.0154549
0.0156637
0.0158501
0.0160121
0.0161484
0.0162582
0.0163415
0.0163991
0.0164323
0.0164434
0.0164353
0.0164115
0.0163764
0.0163348
0.0162918
0.0162529
0.0162233
0.0162085
0.0162132
0.0162419
0.0162982
0.0163853
0.0165056
0.0166608
0.0168518
0.0170793
0.0173431
0.0176426
0.0179769
0.0183448
0.0187444
0.0191735
0.0196304
0.0201123
0.0206149
0.0211373
0.0216758
0.0222242
0.0227759
0.0233386
0.0238991
0.0244476
0.0249768
0.0254815
0.0259573
0.0263915
0.00983724
0.0098182
0.00984428
0.00991794
0.0100386
0.0102009
0.0103948
0.0106071
0.0108233
0.0110302
0.0112172
0.0113774
0.0115084
0.0116118
0.0116926
0.0117582
0.0118177
0.0118808
0.0119562
0.0120521
0.0121744
0.0123267
0.0125127
0.0127276
0.0129632
0.0132117
0.0134662
0.0137207
0.0139703
0.0142117
0.0144432
0.0146647
0.0148777
0.0150854
0.0152919
0.0155025
0.0157226
0.0159578
0.0162132
0.0164932
0.0168015
0.0171407
0.0175123
0.0179172
0.0183555
0.0188266
0.0193297
0.0198635
0.0204266
0.0210175
0.0216346
0.0222761
0.0229405
0.0236259
0.0243305
0.0250523
0.0257894
0.0265392
0.0272993
0.0280677
0.0288402
0.0296128
0.030386
0.0311541
0.0319101
0.0326559
0.0333887
0.0340981
0.0347776
0.0354233
0.0360335
0.036608
0.0371347
0.00862352
0.0090659
0.00964879
0.0103311
0.0110929
0.0119012
0.0127138
0.0134861
0.0141781
0.0147589
0.0152091
0.0155214
0.0156995
0.0157556
0.015708
0.0155791
0.0153932
0.0151738
0.0149441
0.0147246
0.0145325
0.0143876
0.0142983
0.0142869
0.0143613
0.0145123
0.014734
0.0150223
0.0153747
0.0157895
0.0162655
0.0168013
0.0173946
0.0180422
0.0187397
0.019482
0.020263
0.0210765
0.0219165
0.0227774
0.0236542
0.0245428
0.02544
0.0263433
0.0272511
0.0281623
0.0290763
0.0299928
0.030912
0.0318338
0.0327583
0.0336855
0.0346152
0.0355468
0.0364794
0.0374121
0.0383432
0.0392704
0.0401929
0.0411067
0.0420083
0.0428974
0.0437693
0.0446178
0.0454394
0.0462464
0.0470182
0.0477528
0.0484501
0.0491111
0.0497382
0.0503347
0.0508838
0.0120711
0.0137892
0.0157409
0.0177432
0.019696
0.0215007
0.0230744
0.0243597
0.0253269
0.0259734
0.0263177
0.0263937
0.026244
0.025916
0.025458
0.0249174
0.0243369
0.0237551
0.023208
0.0227241
0.0223382
0.0220711
0.0219569
0.0220118
0.0222287
0.0226019
0.0231249
0.0237855
0.0245694
0.0254569
0.0264312
0.0274738
0.0285661
0.0296911
0.0308336
0.0319809
0.0331233
0.034254
0.035369
0.0364663
0.0375455
0.0386077
0.0396545
0.040688
0.0417102
0.0427233
0.0437289
0.0447289
0.0457244
0.0467165
0.0477054
0.0486912
0.049673
0.0506501
0.0516206
0.0525818
0.0535323
0.0544691
0.0553876
0.056285
0.0571621
0.05801
0.0588252
0.059619
0.060373
0.0610848
0.0617578
0.0623951
0.0630006
0.0635787
0.0641354
0.0646432
0.0250935
0.0288521
0.0324272
0.0355418
0.0381222
0.0401356
0.0415924
0.0425343
0.0430237
0.0431334
0.0429378
0.0425086
0.041913
0.0412122
0.0404605
0.0397057
0.0389886
0.038348
0.0378274
0.0374258
0.0372063
0.0371485
0.0372358
0.0374816
0.0378838
0.0384351
0.039123
0.0399294
0.0408446
0.041838
0.0428768
0.0439375
0.0450035
0.0460624
0.047106
0.0481331
0.049142
0.0501325
0.0511059
0.0520644
0.0530199
0.0539708
0.0549167
0.0558583
0.0567968
0.0577331
0.0586679
0.0596015
0.0605338
0.0614641
0.062391
0.063313
0.0642278
0.0651324
0.0660241
0.0669007
0.0677572
0.0685899
0.0694007
0.0701792
0.0709227
0.0716372
0.0723183
0.0729545
0.0735517
0.0741147
0.0746479
0.0751557
0.075644
0.0761184
0.0765422
0.0481771
0.0520341
0.0550695
0.0573096
0.0588797
0.0598824
0.0604143
0.0605651
0.0604197
0.060054
0.0595346
0.058921
0.0582613
0.0575983
0.0569679
0.0563908
0.0559008
0.0554931
0.0552305
0.0550386
0.0549565
0.055003
0.0551413
0.055361
0.0556888
0.0561261
0.0566626
0.057282
0.0579657
0.0586957
0.0594589
0.0602384
0.0610201
0.0617976
0.0625697
0.0633342
0.0640934
0.0648466
0.0655939
0.0663468
0.0671092
0.0678872
0.0686741
0.0694675
0.0702658
0.0710678
0.0718721
0.0726776
0.0734821
0.0742833
0.0750786
0.0758647
0.0766382
0.0773969
0.0781356
0.0788508
0.0795424
0.0802038
0.0808314
0.0814269
0.0819949
0.0825194
0.0830073
0.0834638
0.0838932
0.0842998
0.0846881
0.0850636
0.0854314
0.0857478
0.0682082
0.0705469
0.072124
0.0731526
0.0737545
0.0740239
0.0740409
0.0738768
0.0735884
0.0732251
0.0728244
0.0724075
0.0719989
0.0716183
0.0712436
0.0709511
0.0706303
0.0702844
0.0699996
0.0698053
0.0697168
0.0697327
0.0698483
0.0700567
0.0703497
0.0707155
0.0711406
0.0716111
0.0721153
0.072642
0.0731816
0.0737255
0.0742722
0.0748197
0.0753611
0.0758969
0.0764387
0.0769935
0.0775483
0.0781066
0.0786906
0.0792919
0.0799055
0.0805286
0.0811585
0.0817931
0.0824298
0.0830657
0.0836979
0.0843229
0.0849369
0.0855374
0.08612
0.0866814
0.0872198
0.0877323
0.0882145
0.0886665
0.0890939
0.0894829
0.08984
0.0901698
0.0904764
0.0907634
0.0910345
0.0912935
0.091546
0.0917939
0.0919939
0.0789006
0.0806112
0.0816982
0.0824035
0.0828575
0.0831275
0.0832594
0.0833015
0.0832712
0.0832075
0.0831006
0.0829571
0.0828071
0.0825709
0.0823188
0.0820724
0.0818342
0.0816325
0.0814814
0.0813899
0.081362
0.0813961
0.0814898
0.0816364
0.0818302
0.0820633
0.0823288
0.0826171
0.0829222
0.0832384
0.0835614
0.0838845
0.0842086
0.0845352
0.0848626
0.0851877
0.0855211
0.0858657
0.0862161
0.0865715
0.0869533
0.0873542
0.0877696
0.0881962
0.0886311
0.0890716
0.0895142
0.089956
0.0903931
0.0908225
0.0912405
0.0916442
0.0920297
0.0923955
0.0927392
0.0930579
0.0933506
0.0936202
0.0938608
0.0940747
0.0942662
0.0944386
0.0945955
0.0947396
0.0948743
0.0950027
0.0951291
0.0952529
0.0953378
0.0860564
0.0869196
0.0876001
0.088196
0.0886874
0.0890811
0.0894069
0.0896537
0.0898575
0.0899436
0.0899787
0.0899896
0.0899786
0.0899581
0.0899296
0.0899112
0.0899126
0.0899318
0.0899749
0.0900364
0.0901195
0.0902172
0.0903309
0.0904527
0.090584
0.0907179
0.0908541
0.0909863
0.0911176
0.0912443
0.0913661
0.0914836
0.0916031
0.0917233
0.0918441
0.0919726
0.0921128
0.092261
0.0924178
0.0925973
0.0927946
0.0930069
0.0932304
0.0934629
0.0937002
0.0939402
0.094178
0.0944118
0.0946369
0.0948519
0.0950521
0.0952371
0.0954037
0.0955514
0.0956778
0.0957855
0.0958719
0.0959374
0.0959859
0.0960197
0.0960428
0.0960562
0.0960638
0.0960668
0.0960694
0.0960729
0.0960753
0.0960541
0.0892167
0.090099
0.0909119
0.0915837
0.0921119
0.0925585
0.0929157
0.0932286
0.0935116
0.0937695
0.0940228
0.0942581
0.0944923
0.094703
0.0949124
0.0951045
0.0952964
0.0954691
0.0956383
0.0957836
0.0959205
0.0960297
0.0961263
0.0961942
0.0962484
0.096274
0.0962844
0.0962708
0.0962466
0.0962027
0.0961519
0.0960933
0.0960348
0.0959731
0.0959182
0.0958723
0.0958331
0.0958047
0.0957925
0.0957968
0.0958126
0.0958403
0.0958734
0.0959129
0.0959511
0.0959898
0.0960209
0.0960472
0.0960608
0.0960655
0.0960541
0.0960311
0.0959908
0.0959393
0.0958707
0.0957885
0.0956948
0.0955913
0.0954834
0.0953678
0.0952516
0.095132
0.0950159
0.094901
0.0947923
0.0946834
0.0945713
0.0894799
0.090396
0.0912217
0.0918729
0.0183998
0.0183871
0.0183743
0.0183615
0.0183486
0.0183356
0.0183227
0.0183097
0.0182968
0.0182838
0.0182709
0.0182581
0.0182453
0.0182326
0.0182201
0.0182076
0.0181953
0.0181831
0.0181711
0.0181593
0.0181476
0.0181362
0.0181249
0.0181139
0.0181031
0.0180925
0.0180822
0.0180721
0.0180623
0.0180527
0.0180434
0.0180344
0.0180257
0.0180173
0.0180091
0.0180013
0.0179939
0.0179868
0.01798
0.0179736
0.0179676
0.0179621
0.017957
0.0179523
0.0179482
0.0179445
0.0179414
0.0179389
0.017937
0.0179358
0.0179352
0.0179352
0.017936
0.0179376
0.0179399
0.017943
0.0179468
0.0179515
0.0179571
0.0179634
0.0179706
0.0179786
0.0179875
0.0179973
0.0180078
0.0180191
0.0180312
0.0180439
0.0180575
0.0180717
0.0180866
0.018102
0.0181181
0.0181347
0.0181518
0.0181693
0.0181864
0.0184084
0.0183959
0.0183833
0.0183706
0.0183579
0.0183452
0.0183324
0.0183196
0.0183068
0.018294
0.0182813
0.0182686
0.018256
0.0182434
0.018231
0.0182187
0.0182065
0.0181944
0.0181826
0.0181709
0.0181593
0.018148
0.0181369
0.0181261
0.0181154
0.018105
0.0180949
0.018085
0.0180754
0.0180661
0.0180571
0.0180483
0.0180399
0.0180317
0.0180239
0.0180165
0.0180094
0.0180026
0.0179963
0.0179903
0.0179848
0.0179797
0.017975
0.0179709
0.0179672
0.0179641
0.0179616
0.0179596
0.0179583
0.0179576
0.0179576
0.0179583
0.0179597
0.0179619
0.0179648
0.0179685
0.017973
0.0179783
0.0179844
0.0179914
0.0179992
0.0180078
0.0180173