/*--------------------------------*- C++ -*----------------------------------*\
  =========                 |
  \\      /  F ield         | OpenFOAM: The Open Source CFD Toolbox
   \\    /   O peration     | Website:  https://openfoam.org
    \\  /    A nd           | Version:  13
     \\/     M anipulation  |
\*---------------------------------------------------------------------------*/
FoamFile
{
    format      ascii;
    class       volScalarField;
    location    "100";
    object      omega;
}
// * * * * * * * * * * * * * * * * * * * * * * * * * * * * * * * * * * * * * //

dimensions      [0 0 -1 0 0 0 0];

internalField   nonuniform List<scalar> 
172836
(
11.9828
11.954
11.9258
11.8983
11.8715
11.8453
11.8199
11.7953
11.9876
11.9591
11.9313
11.9041
11.8776
11.8518
11.8267
11.8026
12.0167
11.9878
11.9595
11.932
11.9051
11.8789
11.8535
11.8287
11.805
12.0107
11.9822
11.9544
11.9272
11.9007
11.875
11.85
11.8257
11.8023
11.9953
11.9674
11.9401
11.9136
11.8877
11.8626
11.8382
11.8145
11.7918
11.9681
11.941
11.9146
11.8889
11.8639
11.8396
11.8161
11.7933
11.7716
11.9281
11.9022
11.8769
11.8523
11.8284
11.8053
11.7829
11.7613
11.7407
11.8761
11.8514
11.8274
11.8042
11.7817
11.7599
11.7389
11.7186
11.6994
11.796
11.7733
11.7512
11.73
11.7095
11.6897
11.6707
11.6529
12.0689
12.0379
12.0076
11.9779
11.9488
11.9205
11.8928
11.8658
11.8395
11.8139
11.789
11.765
11.7418
12.0726
12.042
12.0119
11.9825
11.9537
11.9257
11.8984
11.8717
11.8458
11.8205
11.796
11.7724
11.7495
12.072
12.0415
12.0117
11.9826
11.9541
11.9264
11.8993
11.873
11.8473
11.8224
11.7982
11.775
11.7525
12.065
12.0349
12.0054
11.9767
11.9486
11.9213
11.8946
11.8687
11.8435
11.819
11.7953
11.7725
11.7504
12.048
12.0185
11.9896
11.9614
11.9339
11.9071
11.8811
11.8558
11.8312
11.8073
11.7842
11.762
11.7406
12.0186
11.9898
11.9618
11.9344
11.9077
11.8817
11.8565
11.832
11.8083
11.7853
11.7631
11.7418
11.7212
11.9756
11.9479
11.9209
11.8946
11.869
11.8441
11.82
11.7966
11.774
11.7521
11.731
11.7109
11.6914
11.9199
11.8935
11.8677
11.8427
11.8184
11.7948
11.772
11.7499
11.7287
11.7081
11.6883
11.6696
11.6514
11.8591
11.8338
11.8093
11.7855
11.7624
11.7402
11.7187
11.698
11.678
11.6588
11.6404
11.6231
11.6063
11.5711
14.9244
14.8691
14.814
14.7593
14.7048
14.6507
14.5969
14.5433
14.4901
14.4372
14.3847
14.3325
14.2806
14.2291
14.1779
14.1271
14.0767
14.0266
13.9769
13.9276
13.8786
13.83
13.7817
13.7338
13.6863
13.6391
13.5922
13.5457
13.4995
13.4537
13.4081
13.3629
13.318
13.2733
13.229
13.1849
13.1412
13.0977
13.0545
13.0115
12.9689
12.9265
12.8845
12.8427
12.8013
12.7601
12.7193
12.6789
12.6388
12.5991
12.5598
12.5209
12.4825
12.4445
12.407
12.37
12.3335
12.2975
12.2621
12.2273
12.193
12.1594
12.1264
12.0941
12.0623
12.0312
12.0008
11.971
11.9418
11.9134
11.8857
11.8586
11.8322
11.8066
11.7816
11.7573
11.7338
14.9237
14.8684
14.8134
14.7587
14.7042
14.6501
14.5963
14.5428
14.4896
14.4367
14.3842
14.332
14.2801
14.2286
14.1774
14.1266
14.0762
14.0261
13.9764
13.927
13.878
13.8294
13.7811
13.7332
13.6856
13.6384
13.5915
13.545
13.4988
13.453
13.4074
13.3622
13.3173
13.2727
13.2284
13.1844
13.1406
13.0972
13.054
13.0112
12.9686
12.9263
12.8844
12.8427
12.8014
12.7604
12.7197
12.6794
12.6394
12.5999
12.5607
12.522
12.4837
12.4459
12.4086
12.3717
12.3354
12.2996
12.2644
12.2298
12.1957
12.1623
12.1296
12.0975
12.066
12.0351
12.0049
11.9754
11.9466
11.9185
11.891
11.8643
11.8383
11.813
11.7883
11.7644
11.7413
14.9194
14.8641
14.809
14.7542
14.6998
14.6456
14.5918
14.5383
14.4851
14.4322
14.3796
14.3274
14.2755
14.224
14.1728
14.122
14.0715
14.0214
13.9716
13.9223
13.8732
13.8246
13.7763
13.7283
13.6808
13.6335
13.5867
13.5401
13.4939
13.4481
13.4025
13.3573
13.3124
13.2678
13.2236
13.1796
13.1359
13.0925
13.0494
13.0066
12.9641
12.9219
12.88
12.8385
12.7972
12.7563
12.7158
12.6756
12.6358
12.5964
12.5573
12.5188
12.4806
12.443
12.4058
12.3691
12.333
12.2973
12.2623
12.2279
12.194
12.1608
12.1282
12.0963
12.0651
12.0344
12.0045
11.9752
11.9466
11.9188
11.8916
11.8652
11.8395
11.8145
11.7902
11.7667
11.7439
14.904
14.8487
14.7936
14.7389
14.6844
14.6303
14.5765
14.523
14.4698
14.417
14.3645
14.3123
14.2605
14.209
14.1579
14.1072
14.0568
14.0068
13.9571
13.9078
13.8588
13.8102
13.762
13.7142
13.6667
13.6195
13.5727
13.5263
13.4802
13.4344
13.3889
13.3438
13.299
13.2545
13.2103
13.1664
13.1228
13.0795
13.0366
12.9939
12.9515
12.9094
12.8677
12.8262
12.7851
12.7444
12.704
12.664
12.6243
12.5851
12.5463
12.5079
12.47
12.4325
12.3956
12.3591
12.3232
12.2879
12.2531
12.2189
12.1854
12.1525
12.1203
12.0887
12.0577
12.0275
11.9979
11.969
11.9408
11.9133
11.8866
11.8605
11.8352
11.8107
11.7868
11.7637
11.7413
14.868
14.8127
14.7578
14.7032
14.6489
14.5949
14.5413
14.488
14.435
14.3824
14.3301
14.2782
14.2266
14.1754
14.1246
14.0741
14.024
13.9743
13.9249
13.8758
13.8272
13.7789
13.7309
13.6834
13.6361
13.5893
13.5427
13.4966
13.4507
13.4052
13.36
13.3152
13.2706
13.2264
13.1824
13.1388
13.0955
13.0525
13.0098
12.9674
12.9252
12.8834
12.842
12.8008
12.76
12.7195
12.6794
12.6397
12.6004
12.5615
12.523
12.4849
12.4474
12.4103
12.3737
12.3376
12.3021
12.2672
12.2329
12.1991
12.1661
12.1336
12.1019
12.0708
12.0403
12.0106
11.9815
11.9531
11.9255
11.8986
11.8724
11.847
11.8223
11.7984
11.7751
11.7526
11.7309
14.8032
14.7483
14.6938
14.6396
14.5857
14.5322
14.4791
14.4263
14.3738
14.3217
14.2699
14.2185
14.1674
14.1168
14.0665
14.0166
13.967
13.9178
13.869
13.8205
13.7724
13.7247
13.6773
13.6303
13.5836
13.5373
13.4913
13.4457
13.4003
13.3554
13.3107
13.2664
13.2223
13.1786
13.1352
13.0921
13.0492
13.0067
12.9645
12.9226
12.8809
12.8396
12.7987
12.758
12.7177
12.6777
12.6381
12.5989
12.5601
12.5217
12.4838
12.4463
12.4093
12.3728
12.3368
12.3013
12.2664
12.2321
12.1984
12.1654
12.133
12.1012
12.0702
12.0398
12.0101
11.9811
11.9528
11.9253
11.8985
11.8724
11.847
11.8224
11.7986
11.7755
11.7531
11.7315
11.7106
14.7099
14.6557
14.6019
14.5484
14.4952
14.4424
14.39
14.3379
14.2862
14.2348
14.1837
14.1331
14.0828
14.0329
13.9833
13.9342
13.8854
13.837
13.7889
13.7412
13.6939
13.6469
13.6003
13.554
13.5081
13.4626
13.4174
13.3725
13.328
13.2837
13.2398
13.1962
13.1529
13.1099
13.0673
13.0249
12.9828
12.941
12.8995
12.8583
12.8174
12.7768
12.7365
12.6966
12.657
12.6177
12.5789
12.5404
12.5023
12.4647
12.4275
12.3908
12.3545
12.3188
12.2836
12.249
12.215
12.1815
12.1487
12.1166
12.0851
12.0543
12.0242
11.9948
11.9661
11.9381
11.9108
11.8843
11.8586
11.8335
11.8093
11.7858
11.7631
11.7411
11.7198
11.6993
11.6795
14.6022
14.5487
14.4955
14.4427
14.3902
14.3381
14.2863
14.2349
14.1838
14.133
14.0827
14.0326
13.983
13.9337
13.8848
13.8362
13.7881
13.7403
13.6929
13.6458
13.5992
13.5529
13.5069
13.4613
13.4161
13.3713
13.3268
13.2826
13.2388
13.1952
13.152
13.1092
13.0666
13.0243
12.9824
12.9407
12.8994
12.8583
12.8176
12.7772
12.737
12.6972
12.6577
12.6186
12.5798
12.5414
12.5034
12.4658
12.4286
12.3918
12.3555
12.3197
12.2844
12.2497
12.2155
12.1818
12.1488
12.1164
12.0847
12.0536
12.0233
11.9936
11.9647
11.9364
11.9089
11.8822
11.8562
11.8309
11.8064
11.7827
11.7598
11.7376
11.7162
11.6955
11.6756
11.6564
11.638
14.5059
14.4528
14.4
14.3476
14.2954
14.2436
14.1922
14.1411
14.0903
14.0398
13.9897
13.9399
13.8905
13.8414
13.7927
13.7444
13.6964
13.6488
13.6016
13.5548
13.5084
13.4623
13.4166
13.3713
13.3263
13.2817
13.2375
13.1936
13.1501
13.1069
13.064
13.0215
12.9793
12.9374
12.8959
12.8546
12.8137
12.7731
12.7329
12.693
12.6534
12.6141
12.5752
12.5367
12.4985
12.4608
12.4234
12.3866
12.3501
12.3141
12.2786
12.2437
12.2093
12.1754
12.1421
12.1095
12.0775
12.0461
12.0154
11.9854
11.9562
11.9276
11.8998
11.8728
11.8465
11.821
11.7963
11.7723
11.7491
11.7267
11.7051
11.6843
11.6643
11.645
11.6264
11.6086
11.5915
14.4369
14.3841
14.3315
14.2792
14.2272
14.1755
14.1241
14.0731
14.0223
13.9719
13.9218
13.872
13.8225
13.7734
13.7246
13.6761
13.6281
13.5803
13.533
13.486
13.4394
13.3932
13.3473
13.3018
13.2567
13.2119
13.1676
13.1235
13.0799
13.0366
12.9936
12.951
12.9087
12.8668
12.8252
12.784
12.7432
12.7027
12.6625
12.6227
12.5833
12.5443
12.5057
12.4674
12.4296
12.3923
12.3554
12.319
12.283
12.2476
12.2127
12.1784
12.1447
12.1115
12.079
12.0472
12.016
11.9855
11.9557
11.9267
11.8984
11.8709
11.8441
11.8181
11.793
11.7686
11.745
11.7222
11.7002
11.679
11.6586
11.639
11.6202
11.6021
11.5848
11.5682
11.5522
14.3964
14.3437
14.2913
14.2391
14.1872
14.1356
14.0842
14.0332
13.9824
13.9319
13.8817
13.8318
13.7822
13.7329
13.6839
13.6352
13.5869
13.5389
13.4913
13.444
13.3971
13.3505
13.3043
13.2584
13.2129
13.1678
13.123
13.0786
13.0346
12.9909
12.9476
12.9047
12.8621
12.8199
12.7781
12.7366
12.6956
12.6549
12.6146
12.5748
12.5353
12.4963
12.4577
12.4196
12.3819
12.3447
12.3081
12.2719
12.2363
12.2013
12.1668
12.133
12.0997
12.0672
12.0353
12.004
11.9735
11.9437
11.9147
11.8864
11.859
11.8323
11.8064
11.7813
11.757
11.7335
11.7108
11.689
11.668
11.6477
11.6283
11.6096
11.5918
11.5746
11.5583
11.5426
11.5275
14.3799
14.3275
14.2752
14.2232
14.1715
14.12
14.0687
14.0176
13.9669
13.9163
13.8661
13.8161
13.7664
13.7169
13.6678
13.6189
13.5703
13.522
13.4741
13.4265
13.3792
13.3322
13.2855
13.2392
13.1933
13.1477
13.1024
13.0576
13.013
12.9689
12.9251
12.8817
12.8387
12.7961
12.7538
12.712
12.6706
12.6297
12.5891
12.549
12.5094
12.4702
12.4316
12.3934
12.3558
12.3186
12.2821
12.2461
12.2107
12.1759
12.1418
12.1083
12.0755
12.0433
12.0119
11.9812
11.9513
11.9221
11.8937
11.8661
11.8393
11.8133
11.7882
11.7638
11.7403
11.7176
11.6958
11.6747
11.6544
11.635
11.6163
11.5985
11.5814
11.565
11.5494
11.5344
11.52
14.3827
14.3307
14.2787
14.227
14.1755
14.1241
14.073
14.0221
13.9714
13.9209
13.8707
13.8207
13.7709
13.7214
13.6721
13.623
13.5743
13.5257
13.4775
13.4295
13.3819
13.3345
13.2875
13.2407
13.1943
13.1482
13.1024
13.057
13.012
12.9673
12.923
12.8791
12.8356
12.7925
12.7498
12.7076
12.6658
12.6244
12.5836
12.5432
12.5033
12.464
12.4252
12.3869
12.3492
12.3121
12.2756
12.2397
12.2044
12.1699
12.1359
12.1027
12.0702
12.0385
12.0075
11.9772
11.9478
11.9191
11.8913
11.8642
11.838
11.8127
11.7881
11.7645
11.7416
11.7195
11.6983
11.6779
11.6584
11.6396
11.6216
11.6043
11.5879
11.5721
11.557
11.5427
11.5287
14.402
14.3505
14.299
14.2477
14.1965
14.1454
14.0946
14.0439
13.9934
13.9431
13.893
13.8431
13.7933
13.7438
13.6944
13.6453
13.5964
13.5476
13.4991
13.4509
13.4029
13.3551
13.3076
13.2604
13.2135
13.1668
13.1205
13.0746
13.0289
12.9837
12.9388
12.8943
12.8502
12.8065
12.7633
12.7206
12.6783
12.6366
12.5953
12.5546
12.5144
12.4748
12.4358
12.3974
12.3596
12.3224
12.2859
12.2501
12.215
12.1805
12.1468
12.1139
12.0817
12.0503
12.0197
11.9899
11.9609
11.9327
11.9053
11.8789
11.8532
11.8284
11.8045
11.7814
11.7592
11.7378
11.7172
11.6974
11.6784
11.6602
11.6427
11.626
11.61
11.5947
11.5801
11.5662
11.5526
14.437
14.3861
14.3352
14.2844
14.2337
14.183
14.1326
14.0822
14.0321
13.982
13.9321
13.8824
13.8328
13.7833
13.734
13.6848
13.6357
13.5868
13.5381
13.4895
13.4412
13.393
13.345
13.2973
13.2498
13.2026
13.1557
13.1091
13.0628
13.0169
12.9713
12.9262
12.8815
12.8372
12.7934
12.7501
12.7073
12.665
12.6233
12.5822
12.5417
12.5018
12.4625
12.4239
12.386
12.3488
12.3123
12.2765
12.2414
12.2072
12.1737
12.141
12.1091
12.078
12.0478
12.0184
11.9899
11.9622
11.9354
11.9094
11.8843
11.8601
11.8368
11.8143
11.7926
11.7718
11.7517
11.7325
11.714
11.6963
11.6794
11.6631
11.6476
11.6327
11.6184
11.6048
11.5914
14.4888
14.4388
14.3887
14.3386
14.2885
14.2385
14.1886
14.1388
14.0891
14.0394
13.9899
13.9405
13.8911
13.8418
13.7925
13.7433
13.6942
13.6451
13.5961
13.5472
13.4984
13.4497
13.4012
13.3528
13.3047
13.2567
13.209
13.1616
13.1145
13.0678
13.0214
12.9754
12.9299
12.8848
12.8403
12.7963
12.7528
12.71
12.6677
12.6261
12.5851
12.5449
12.5053
12.4665
12.4284
12.3911
12.3546
12.3188
12.2839
12.2498
12.2165
12.1841
12.1526
12.1219
12.0921
12.0632
12.0352
12.0081
11.9819
11.9565
11.932
11.9085
11.8858
11.8639
11.8429
11.8226
11.8032
11.7845
11.7666
11.7494
11.7328
11.717
11.7018
11.6872
11.6732
11.6597
11.6464
14.5611
14.5122
14.4631
14.4139
14.3647
14.3155
14.2663
14.2172
14.1681
14.119
14.07
14.021
13.972
13.9229
13.8738
13.8246
13.7754
13.7261
13.6768
13.6274
13.578
13.5286
13.4793
13.4301
13.3811
13.3322
13.2835
13.2351
13.1869
13.1391
13.0917
13.0447
12.9982
12.9521
12.9066
12.8617
12.8175
12.7739
12.7309
12.6887
12.6473
12.6065
12.5666
12.5275
12.4893
12.4519
12.4153
12.3797
12.3449
12.3111
12.2781
12.2461
12.215
12.1848
12.1556
12.1272
12.0999
12.0734
12.0479
12.0232
11.9995
11.9766
11.9546
11.9335
11.9131
11.8936
11.8747
11.8567
11.8393
11.8225
11.8064
11.7909
11.776
11.7616
11.7477
11.7343
11.7209
14.66
14.6125
14.5647
14.5167
14.4687
14.4205
14.3724
14.3243
14.2761
14.2279
14.1797
14.1314
14.0829
14.0342
13.9853
13.9362
13.8868
13.8372
13.7873
13.7372
13.687
13.6366
13.5862
13.5358
13.4855
13.4352
13.3851
13.3352
13.2856
13.2363
13.1874
13.139
13.091
13.0437
12.9969
12.9509
12.9055
12.8609
12.8172
12.7742
12.7321
12.6909
12.6505
12.6112
12.5728
12.5353
12.4988
12.4634
12.4289
12.3954
12.3629
12.3315
12.301
12.2716
12.2431
12.2157
12.1892
12.1636
12.139
12.1153
12.0926
12.0707
12.0496
12.0293
12.0099
11.9911
11.9731
11.9556
11.9388
11.9225
11.9067
11.8915
11.8768
11.8625
11.8485
11.8349
11.8212
14.7941
14.7487
14.7028
14.6567
14.6104
14.564
14.5175
14.471
14.4243
14.3776
14.3306
14.2833
14.2357
14.1877
14.1391
14.0901
14.0405
13.9903
13.9396
13.8884
13.8367
13.7848
13.7326
13.6804
13.628
13.5757
13.5235
13.4715
13.4198
13.3684
13.3175
13.2671
13.2173
13.1681
13.1197
13.0721
13.0254
12.9796
12.9348
12.8909
12.8481
12.8063
12.7656
12.726
12.6876
12.6503
12.6141
12.579
12.5452
12.5124
12.4808
12.4503
12.4209
12.3927
12.3655
12.3393
12.3142
12.29
12.2668
12.2445
12.2232
12.2026
12.1828
12.1639
12.1455
12.1278
12.1106
12.094
12.0779
12.0621
12.0467
12.0317
12.017
12.0025
11.9882
11.974
11.9596
14.9799
14.9381
14.8957
14.8529
14.8098
14.7665
14.7232
14.6796
14.6358
14.5917
14.5471
14.5019
14.4558
14.4089
14.361
14.3119
14.2618
14.2105
14.1581
14.1047
14.0505
13.9956
13.9404
13.8848
13.8291
13.7734
13.7177
13.6622
13.6071
13.5525
13.4984
13.4449
13.3923
13.3405
13.2898
13.24
13.1914
13.144
13.0978
13.0529
13.0093
12.967
12.9261
12.8866
12.8485
12.8118
12.7764
12.7425
12.7099
12.6787
12.6488
12.6202
12.5928
12.5667
12.5418
12.518
12.4953
12.4736
12.4528
12.433
12.414
12.3958
12.3783
12.3613
12.3449
12.329
12.3134
12.2981
12.283
12.268
12.2531
12.2383
12.2235
12.2086
12.1935
12.1782
12.1624
15.2515
15.2165
15.1811
15.145
15.1085
15.0717
15.0346
14.9971
14.9591
14.9202
14.8802
14.8388
14.7957
14.7506
14.7034
14.6539
14.6021
14.548
14.4918
14.4337
14.3741
14.3132
14.2516
14.1896
14.1274
14.0652
14.0032
13.9415
13.8805
13.8201
13.7607
13.7023
13.6451
13.5893
13.5348
13.4819
13.4306
13.381
13.3331
13.287
13.2427
13.2002
13.1596
13.1208
13.084
13.0489
13.0157
12.9843
12.9546
12.9267
12.9004
12.8757
12.8526
12.8309
12.8106
12.7916
12.7739
12.7572
12.7415
12.7267
12.7127
12.6994
12.6865
12.6742
12.662
12.6501
12.638
12.626
12.6137
12.601
12.588
12.5744
12.5602
12.5452
12.5293
12.5124
12.4945
15.6629
15.642
15.6203
15.5979
15.5749
15.5514
15.5268
15.5009
15.473
15.4425
15.4086
15.3708
15.3286
15.2816
15.2297
15.1729
15.1113
15.0455
14.976
14.9036
14.8291
14.753
14.6766
14.6004
14.5245
14.4494
14.3753
14.3024
14.2311
14.1615
14.0939
14.0283
13.9651
13.9043
13.846
13.7903
13.7374
13.6871
13.6396
13.5949
13.553
13.5139
13.4777
13.4442
13.4134
13.3854
13.36
13.3372
13.3169
13.299
13.2835
13.2702
13.2589
13.2497
13.2423
13.2365
13.2322
13.2292
13.2274
13.2264
13.2262
13.2265
13.2269
13.2274
13.2276
13.2274
13.2264
13.2243
13.2208
13.216
13.2095
13.2009
13.1898
13.1759
13.1591
13.1398
16.4501
16.4596
16.4692
16.4777
16.4849
16.4906
16.4939
16.4938
16.489
16.4776
16.4585
16.4301
16.3915
16.342
16.2813
16.2097
16.128
16.0373
15.9393
15.8355
15.728
15.6184
15.5085
15.3999
15.2934
15.1894
15.0882
14.9904
14.8961
14.8057
14.7194
14.6374
14.5599
14.487
14.4188
14.3553
14.2967
14.243
14.1941
14.1502
14.1111
14.077
14.0478
14.0234
14.004
13.9893
13.9794
13.9742
13.9737
13.9777
13.9862
13.9991
14.0161
14.0371
14.0618
14.09
14.1214
14.1557
14.1924
14.2311
14.2715
14.3129
14.3549
14.3968
14.4379
14.4776
14.5155
14.5503
14.5811
14.6083
14.6308
14.6471
14.6561
14.657
14.6495
14.6352
18.0311
18.1042
18.1793
18.2517
18.3207
18.3845
18.4406
18.4856
18.5158
18.5276
18.5179
18.4841
18.4247
18.3394
18.229
18.0956
17.9422
17.7727
17.5917
17.4034
17.2125
17.0218
16.8367
16.6585
16.4879
16.3255
16.1718
16.0269
15.8913
15.765
15.6483
15.5412
15.4438
15.356
15.2781
15.2099
15.1516
15.1031
15.0647
15.0363
15.0181
15.0102
15.0128
15.026
15.0499
15.0847
15.1305
15.1874
15.2555
15.3348
15.4252
15.5265
15.6384
15.7604
15.892
16.0325
16.1808
16.3359
16.4965
16.6612
16.8282
16.9958
17.1621
17.3246
17.4819
17.6319
17.7719
17.8988
18.0146
18.1154
18.198
18.2603
18.3011
18.3204
18.3226
21.375
21.5817
21.798
22.0087
22.2111
22.3991
22.565
22.6995
22.7935
22.8382
22.8265
22.7539
22.6188
22.4225
22.1699
21.8685
21.5277
21.1589
20.7733
20.3824
19.9965
19.6216
19.2688
18.9384
18.6308
18.346
18.0842
17.8452
17.6289
17.4352
17.2638
17.1147
16.9879
16.8835
16.8016
16.7424
16.7065
16.6942
16.7062
16.7433
16.8061
16.8954
17.0119
17.1564
17.3294
17.5314
17.7624
18.0224
18.311
18.6272
18.9698
19.3369
19.7261
20.1346
20.559
20.9954
21.4395
21.8867
22.332
22.7701
23.1964
23.6055
23.9924
24.3534
24.6846
24.9816
25.2406
25.4647
25.6492
25.792
25.8929
25.9531
25.975
25.9701
28.3877
28.9239
29.4642
30.003
30.5271
31.0171
31.4504
31.802
32.0486
32.1694
32.1491
31.9792
31.6588
31.1952
30.6028
29.9026
29.1196
28.2822
27.4165
26.5528
25.7103
24.913
24.1773
23.503
22.8897
22.3365
21.8427
21.4073
21.0299
20.7098
20.4468
20.2411
20.0931
20.0033
19.9728
20.0025
20.0937
20.2472
20.464
20.7444
21.0883
21.495
21.963
22.4898
23.0721
23.7056
24.3852
25.1048
25.8577
26.6363
27.4326
28.2383
29.0446
29.8429
30.6245
31.3813
32.1053
32.7894
33.4272
34.0129
34.542
35.0106
35.4171
35.7599
36.0385
36.2543
36.4108
36.5091
36.5535
36.5494
36.5021
36.4176
36.3142
41.4207
42.6299
43.8964
45.2032
46.517
47.7916
48.9724
50.0028
50.8285
51.4026
51.6892
51.6656
51.3234
50.6688
49.7211
48.5123
47.0831
45.4832
43.7665
41.9836
40.196
38.4364
36.7728
35.2441
33.8552
32.6093
31.5083
30.5531
29.7439
29.0801
28.5606
28.1838
27.9471
27.8473
27.8803
28.0406
28.322
28.7167
29.2163
29.8109
30.4902
31.2428
32.057
32.921
33.8225
34.7497
35.6907
36.6342
37.5693
38.4857
39.3739
40.2251
41.0316
41.7865
42.4837
43.1186
43.6874
44.1872
44.6169
44.9755
45.2628
45.4813
45.6328
45.7197
45.7463
45.7203
45.6392
45.5114
45.3443
45.1446
44.9181
44.6711
44.4221
64.0124
66.2793
68.7729
71.3212
73.8399
76.2332
78.408
80.2809
81.786
82.8759
83.5227
83.7159
83.4595
82.7685
81.6681
80.1903
78.3755
76.266
73.914
71.3752
68.7005
65.9735
63.2203
60.5403
58.0204
55.6886
53.5655
51.6641
49.9903
48.5448
47.3231
46.3171
45.5159
44.9066
44.475
44.2061
44.0843
44.0941
44.22
44.4464
44.7584
45.141
45.58
46.0614
46.572
47.0993
47.6317
48.1584
48.6697
49.1569
49.6123
50.0295
50.4029
50.7283
51.0025
51.2233
51.3895
51.5008
51.5582
51.5622
51.5154
51.4209
51.2804
51.0973
50.8763
50.6224
50.3355
50.0223
49.6887
49.3392
48.9782
48.611
48.2559
99.8518
102.889
105.801
108.342
110.448
112.09
113.269
114.006
114.333
114.291
113.917
113.246
112.303
111.109
109.682
108.031
106.166
104.091
101.812
99.3469
96.6902
93.8714
90.8943
87.796
84.6598
81.5579
78.551
75.6749
72.9582
70.4157
68.0695
65.9347
64.0209
62.3318
60.8652
59.6142
58.5679
57.7115
57.0276
56.4969
56.0993
55.814
55.6211
55.5013
55.4367
55.4109
55.4094
55.4192
55.4293
55.4306
55.4153
55.3775
55.3127
55.2175
55.0899
54.929
54.7347
54.5074
54.2484
53.9596
53.6432
53.3012
52.9367
52.5529
52.1508
51.7347
51.3086
50.876
50.4399
50.003
49.5714
49.1639
133.013
133.098
132.705
131.911
130.862
129.647
128.326
126.943
125.524
124.086
122.633
121.162
119.665
118.13
116.538
114.872
113.098
111.217
109.188
106.966
104.528
101.865
99.0042
95.9987
92.9054
89.7808
86.6783
83.6476
80.7318
77.9699
75.3925
73.0208
70.8676
68.9369
67.2261
65.7283
64.4309
63.318
62.3711
61.5699
60.8968
60.3296
59.8472
59.4308
59.0635
58.7305
58.4188
58.118
57.8193
57.5161
57.2029
56.8761
56.5331
56.1726
55.794
55.3976
54.984
54.5546
54.1107
53.6541
53.1874
52.7118
52.2292
51.7431
51.2561
50.7705
50.2883
49.8115
49.3425
48.887
48.4657
139.296
136.253
133.323
130.572
127.985
125.537
123.214
121.004
118.9
116.888
114.957
113.09
111.272
109.477
107.689
105.874
104.006
102.068
100.027
97.9348
95.7771
93.5529
91.2878
88.9954
86.6831
84.372
82.089
79.8615
77.7149
75.6725
73.7557
71.974
70.3315
68.8314
67.473
66.2502
65.1551
64.1764
63.3007
62.5202
61.8202
61.1843
60.5986
60.0507
59.5295
59.026
58.5325
58.043
57.553
57.0595
56.5601
56.0539
55.5406
55.0201
54.4936
53.9622
53.4267
52.8886
52.3503
51.8128
51.2759
50.7446
50.2201
49.7039
49.1971
48.7009
48.2166
47.7461
47.295
46.8837
129.356
125.794
122.409
119.199
116.144
113.248
110.519
107.957
105.557
103.307
101.197
99.2098
97.3281
95.5347
93.8306
92.155
90.5894
89.1217
87.685
86.2492
84.7979
83.3232
81.8254
80.3082
78.7818
77.2584
75.7529
74.2789
72.8495
71.476
70.1675
68.9285
67.7625
66.67
65.6475
64.6906
63.7961
62.9623
62.1802
61.4394
60.734
60.0571
59.4016
58.7618
58.1329
57.5109
56.8931
56.2777
55.6635
55.0503
54.4381
53.8277
53.2197
52.6156
52.0164
51.4225
50.8366
50.2596
49.6898
49.1328
48.589
48.059
47.5433
47.0424
46.5571
46.0879
45.6363
45.2067
44.8188
118.906
114.693
110.642
106.865
103.333
100.075
97.1075
94.4313
92.036
89.9002
88.017
86.3569
84.8907
83.6316
82.5153
81.5061
80.5859
79.7111
78.8569
78.0017
77.1335
76.2434
75.3291
74.3897
73.429
72.4514
71.4644
70.4744
69.4887
68.5131
67.5543
66.6149
65.6977
64.8047
63.9376
63.0941
62.2718
61.47
60.6879
59.9233
59.1714
58.4307
57.6995
56.9765
56.2604
55.5508
54.8473
54.1503
53.46
52.7776
52.104
51.44
50.787
50.1464
49.5179
48.904
48.3052
47.7202
47.1523
46.6028
46.0715
45.558
45.0627
44.5853
44.1263
43.6855
43.2638
42.8643
42.505
100.265
96.063
92.1852
88.7389
85.7208
83.1283
80.9302
79.1028
77.5798
76.381
75.4169
74.6247
73.9737
73.4234
72.9556
72.5244
72.1149
71.7054
71.2864
70.8437
70.3741
69.8693
69.3305
68.7537
68.1434
67.4992
66.8272
66.1278
65.4074
64.6682
63.9155
63.1496
62.3754
61.5952
60.8111
60.0217
59.2294
58.4375
57.6475
56.8565
56.0673
55.2823
54.5027
53.7308
52.9673
52.2146
51.4731
50.7453
50.0316
49.334
48.6527
47.9899
47.3447
46.7192
46.1135
45.5275
44.9605
44.4157
43.8922
43.389
42.9061
42.4425
41.9984
41.5729
41.1665
40.7786
40.4111
40.0808
80.9019
77.776
75.1096
72.9231
71.1899
69.802
68.7753
68.003
67.4372
67.0206
66.7209
66.4992
66.3426
66.2243
66.1347
66.0392
65.9384
65.8077
65.653
65.455
65.2209
64.9348
64.6055
64.2212
63.7923
63.3105
62.7853
62.2118
61.6005
60.9491
60.2647
59.5477
58.8072
58.0435
57.26
56.4603
55.6525
54.8376
54.0159
53.1943
52.376
51.5663
50.7664
49.9811
49.2103
48.4583
47.7243
47.0122
46.3203
45.6521
45.0054
44.3825
43.7821
43.2064
42.6505
42.1192
41.6111
41.1246
40.6601
40.2149
39.7899
39.3829
38.995
38.624
38.2708
37.9345
37.632
68.2524
66.2659
64.6453
63.45
14.9177
14.8623
14.8073
14.7526
14.6982
14.6441
14.5903
14.5368
14.4836
14.4308
14.3782
14.326
14.2742
14.2227
14.1716
14.1208
14.0703
14.0203
13.9706
13.9212
13.8722
13.8236
13.7753
13.7274
13.6799
13.6327
13.5858
13.5393
13.4931
13.4472
13.4017
13.3565
13.3115
13.2669
13.2226
13.1785
13.1348
13.0913
13.0481
13.0052
12.9626
12.9203
12.8782
12.8365
12.7951
12.754
12.7133
12.6728
12.6328
12.5931
12.5539
12.515
12.4766
12.4387
12.4012
12.3642
12.3277
12.2918
12.2564
12.2215
12.1873
12.1536
12.1206
12.0883
12.0565
12.0254
11.9949
11.9651
11.9359
11.9075
11.8797
11.8526
11.8262
11.8005
11.7755
11.7511
11.7276
14.9169
14.8616
14.8066
14.7519
14.6975
14.6434
14.5897
14.5362
14.483
14.4302
14.3777
14.3255
14.2737
14.2222
14.171
14.1203
14.0698
14.0197
13.97
13.9206
13.8716
13.823
13.7747
13.7268
13.6792
13.632
13.5851
13.5385
13.4923
13.4465
13.4009
13.3557
13.3108
13.2662
13.2219
13.1779
13.1341
13.0907
13.0476
13.0048
12.9622
12.92
12.878
12.8364
12.7951
12.7541
12.7135
12.6732
12.6333
12.5938
12.5547
12.516
12.4777
12.4399
12.4026
12.3658
12.3295
12.2937
12.2585
12.2239
12.1899
12.1564
12.1237
12.0915
12.06
12.0292
11.9989
11.9694
11.9405
11.9124
11.8849
11.8582
11.8321
11.8068
11.7821
11.7582
11.735
14.9125
14.8572
14.8022
14.7475
14.6931
14.639
14.5852
14.5317
14.4785
14.4256
14.3731
14.3209
14.2691
14.2175
14.1664
14.1156
14.0651
14.015
13.9653
13.9159
13.8668
13.8182
13.7698
13.7219
13.6743
13.6271
13.5802
13.5336
13.4874
13.4415
13.396
13.3508
13.3059
13.2613
13.217
13.173
13.1293
13.0859
13.0429
13.0001
12.9576
12.9154
12.8736
12.832
12.7908
12.75
12.7094
12.6693
12.6295
12.5901
12.5511
12.5126
12.4745
12.4368
12.3997
12.363
12.3269
12.2913
12.2563
12.2218
12.188
12.1547
12.1222
12.0902
12.0589
12.0283
11.9983
11.969
11.9404
11.9125
11.8853
11.8588
11.8331
11.8081
11.7837
11.7601
11.7373
14.8973
14.8419
14.7869
14.7322
14.6778
14.6237
14.5699
14.5164
14.4633
14.4105
14.358
14.3059
14.2541
14.2026
14.1515
14.1008
14.0504
14.0004
13.9507
13.9014
13.8524
13.8038
13.7556
13.7077
13.6602
13.613
13.5662
13.5197
13.4736
13.4278
13.3823
13.3372
13.2924
13.2479
13.2037
13.1598
13.1162
13.0729
13.0299
12.9873
12.9449
12.9029
12.8611
12.8197
12.7786
12.7379
12.6975
12.6575
12.6179
12.5787
12.5399
12.5016
12.4637
12.4262
12.3893
12.3529
12.317
12.2816
12.2469
12.2127
12.1791
12.1462
12.1139
12.0823
12.0513
12.021
11.9914
11.9624
11.9342
11.9067
11.8799
11.8538
11.8285
11.8039
11.78
11.7568
11.7344
14.8615
14.8062
14.7513
14.6967
14.6424
14.5885
14.5349
14.4816
14.4287
14.3761
14.3238
14.2719
14.2203
14.1691
14.1183
14.0678
14.0177
13.9679
13.9186
13.8695
13.8208
13.7725
13.7245
13.6769
13.6297
13.5828
13.5362
13.49
13.4441
13.3986
13.3534
13.3085
13.2639
13.2197
13.1757
13.1321
13.0888
13.0457
13.003
12.9606
12.9185
12.8767
12.8352
12.7941
12.7533
12.7129
12.6728
12.6331
12.5938
12.5548
12.5164
12.4783
12.4408
12.4037
12.3671
12.3311
12.2956
12.2606
12.2263
12.1925
12.1594
12.1269
12.0951
12.064
12.0335
12.0037
11.9746
11.9462
11.9185
11.8915
11.8653
11.8398
11.8151
11.7911
11.7678
11.7452
11.7234
14.7968
14.742
14.6874
14.6332
14.5793
14.5258
14.4727
14.4198
14.3674
14.3152
14.2635
14.2121
14.161
14.1104
14.0601
14.0101
13.9606
13.9114
13.8625
13.814
13.7659
13.7181
13.6707
13.6237
13.577
13.5306
13.4846
13.4389
13.3936
13.3486
13.3039
13.2595
13.2154
13.1717
13.1282
13.0851
13.0422
12.9997
12.9575
12.9155
12.8739
12.8326
12.7916
12.751
12.7107
12.6707
12.6311
12.5919
12.5531
12.5147
12.4768
12.4393
12.4023
12.3657
12.3297
12.2943
12.2594
12.225
12.1913
12.1582
12.1258
12.094
12.0629
12.0324
12.0027
11.9736
11.9452
11.9176
11.8907
11.8646
11.8392
11.8145
11.7906
11.7674
11.745
11.7233
11.7023
14.7033
14.6491
14.5952
14.5417
14.4885
14.4357
14.3832
14.3311
14.2794
14.228
14.1769
14.1263
14.0759
14.026
13.9765
13.9273
13.8785
13.83
13.782
13.7342
13.6869
13.6399
13.5932
13.5469
13.501
13.4554
13.4101
13.3652
13.3206
13.2763
13.2324
13.1887
13.1454
13.1024
13.0597
13.0173
12.9751
12.9333
12.8918
12.8506
12.8096
12.769
12.7288
12.6888
12.6492
12.61
12.5711
12.5326
12.4945
12.4569
12.4197
12.383
12.3467
12.311
12.2758
12.2411
12.207
12.1736
12.1407
12.1085
12.0769
12.0461
12.0159
11.9864
11.9576
11.9296
11.9022
11.8756
11.8498
11.8247
11.8004
11.7768
11.754
11.7319
11.7106
11.69
11.6701
14.5947
14.5411
14.4879
14.4351
14.3826
14.3304
14.2786
14.2271
14.176
14.1253
14.0749
14.0248
13.9752
13.9259
13.8769
13.8284
13.7802
13.7324
13.6849
13.6379
13.5911
13.5448
13.4988
13.4532
13.4079
13.363
13.3185
13.2743
13.2304
13.1868
13.1436
13.1007
13.0581
13.0158
12.9738
12.9321
12.8908
12.8497
12.8089
12.7685
12.7283
12.6885
12.649
12.6099
12.5711
12.5326
12.4946
12.457
12.4198
12.383
12.3467
12.3108
12.2755
12.2407
12.2065
12.1728
12.1398
12.1073
12.0755
12.0444
12.0139
11.9842
11.9551
11.9268
11.8992
11.8723
11.8463
11.8209
11.7963
11.7725
11.7495
11.7273
11.7058
11.685
11.665
11.6458
11.6272
14.4971
14.4439
14.3911
14.3386
14.2865
14.2346
14.1832
14.132
14.0812
14.0307
13.9806
13.9308
13.8814
13.8323
13.7836
13.7353
13.6873
13.6397
13.5924
13.5456
13.4991
13.453
13.4072
13.3619
13.3168
13.2722
13.2279
13.184
13.1404
13.0972
13.0543
13.0117
12.9695
12.9276
12.886
12.8448
12.8038
12.7632
12.723
12.683
12.6434
12.6041
12.5652
12.5267
12.4885
12.4507
12.4134
12.3765
12.34
12.304
12.2685
12.2335
12.199
12.1651
12.1318
12.0991
12.067
12.0356
12.0048
11.9747
11.9454
11.9168
11.8889
11.8618
11.8354
11.8098
11.7849
11.7609
11.7376
11.7151
11.6934
11.6725
11.6524
11.633
11.6144
11.5965
11.5793
14.4265
14.3736
14.3209
14.2686
14.2166
14.1649
14.1135
14.0624
14.0116
13.9612
13.9111
13.8613
13.8118
13.7627
13.7139
13.6655
13.6174
13.5696
13.5223
13.4752
13.4286
13.3823
13.3364
13.2909
13.2458
13.201
13.1566
13.1125
13.0688
13.0255
12.9825
12.9398
12.8976
12.8556
12.8141
12.7728
12.732
12.6914
12.6513
12.6115
12.5721
12.533
12.4944
12.4562
12.4184
12.381
12.3441
12.3076
12.2716
12.2362
12.2013
12.1669
12.1331
12.0999
12.0674
12.0355
12.0042
11.9736
11.9438
11.9146
11.8862
11.8586
11.8318
11.8057
11.7804
11.7559
11.7322
11.7093
11.6872
11.6659
11.6454
11.6256
11.6067
11.5885
11.5711
11.5543
11.5382
14.384
14.3313
14.2788
14.2266
14.1746
14.123
14.0716
14.0205
13.9697
13.9193
13.8691
13.8192
13.7696
13.7203
13.6714
13.6227
13.5744
13.5264
13.4788
13.4315
13.3845
13.3379
13.2917
13.2458
13.2003
13.1551
13.1103
13.0659
13.0219
12.9782
12.9349
12.8919
12.8493
12.8071
12.7653
12.7238
12.6828
12.6421
12.6018
12.562
12.5225
12.4835
12.4449
12.4067
12.3691
12.3319
12.2952
12.259
12.2234
12.1883
12.1538
12.1199
12.0867
12.054
12.0221
11.9908
11.9602
11.9303
11.9012
11.8729
11.8453
11.8185
11.7925
11.7673
11.743
11.7194
11.6966
11.6747
11.6535
11.6332
11.6137
11.5949
11.577
11.5597
11.5432
11.5275
11.5123
14.3651
14.3126
14.2603
14.2082
14.1564
14.1049
14.0536
14.0025
13.9518
13.9013
13.8511
13.8011
13.7514
13.702
13.6529
13.604
13.5555
13.5072
13.4593
13.4117
13.3644
13.3174
13.2708
13.2245
13.1785
13.1329
13.0877
13.0428
12.9983
12.9541
12.9104
12.867
12.824
12.7814
12.7392
12.6974
12.656
12.615
12.5745
12.5345
12.4948
12.4557
12.417
12.3789
12.3412
12.3041
12.2675
12.2315
12.1961
12.1613