/*--------------------------------*- C++ -*----------------------------------*\
  =========                 |
  \\      /  F ield         | OpenFOAM: The Open Source CFD Toolbox
   \\    /   O peration     | Website:  https://openfoam.org
    \\  /    A nd           | Version:  13
     \\/     M anipulation  |
\*---------------------------------------------------------------------------*/
FoamFile
{
    format      ascii;
    class       volScalarField;
    location    "100";
    object      p;
}
// * * * * * * * * * * * * * * * * * * * * * * * * * * * * * * * * * * * * * //

dimensions      [0 2 -2 0 0 0 0];

internalField   nonuniform List<scalar> 
172836
(
-0.857434
-0.762897
-0.671054
-0.581741
-0.494035
-0.407313
-0.321005
-0.234569
-0.854072
-0.759682
-0.668028
-0.578896
-0.491469
-0.405093
-0.319218
-0.233301
-0.945757
-0.84853
-0.754429
-0.663378
-0.574781
-0.487918
-0.402161
-0.316938
-0.231706
-0.937618
-0.840944
-0.747441
-0.657101
-0.569252
-0.483176
-0.398245
-0.313869
-0.22949
-0.926911
-0.831033
-0.738359
-0.648908
-0.562003
-0.476934
-0.393053
-0.309745
-0.226461
-0.913683
-0.818774
-0.727113
-0.638733
-0.552973
-0.469124
-0.386525
-0.304548
-0.222619
-0.89789
-0.804146
-0.71367
-0.626538
-0.542099
-0.459671
-0.378576
-0.298175
-0.21791
-0.879264
-0.787249
-0.698113
-0.612385
-0.529442
-0.448602
-0.369203
-0.290604
-0.212208
-0.767723
-0.680639
-0.596479
-0.51522
-0.436159
-0.358631
-0.281975
-0.205693
-1.17834
-1.07278
-0.970377
-0.8714
-0.775901
-0.682896
-0.592121
-0.502876
-0.414597
-0.326689
-0.238626
-0.149975
-0.0616357
-1.17445
-1.06927
-0.966865
-0.868075
-0.772599
-0.6797
-0.589083
-0.500121
-0.412194
-0.32474
-0.237236
-0.149466
-0.0625366
-1.16812
-1.06316
-0.961225
-0.862814
-0.767452
-0.67495
-0.584814
-0.496402
-0.409093
-0.322297
-0.235484
-0.148445
-0.0622794
-1.15908
-1.05458
-0.953212
-0.855382
-0.760582
-0.668724
-0.579297
-0.491648
-0.405147
-0.31918
-0.233227
-0.147072
-0.0618225
-1.14722
-1.04334
-0.942694
-0.845658
-0.751658
-0.66065
-0.572125
-0.485445
-0.399951
-0.31503
-0.230154
-0.14512
-0.0610208
-1.13254
-1.02943
-0.929685
-0.833605
-0.740597
-0.650611
-0.563187
-0.47767
-0.393419
-0.309789
-0.226265
-0.142637
-0.0599753
-1.11497
-1.01279
-0.914059
-0.819182
-0.72733
-0.63856
-0.552397
-0.468255
-0.385452
-0.303376
-0.221482
-0.139577
-0.058684
-1.09438
-0.993213
-0.895911
-0.802315
-0.711875
-0.624484
-0.53979
-0.45718
-0.376046
-0.295724
-0.215723
-0.135814
-0.0570607
-1.0704
-0.970879
-0.874784
-0.782705
-0.694151
-0.60843
-0.525402
-0.444583
-0.365311
-0.286998
-0.209093
-0.131461
-0.0551432
-0.0523838
-9.12643
-9.25346
-9.35771
-9.43989
-9.50072
-9.54104
-9.56174
-9.56377
-9.54803
-9.51544
-9.46696
-9.40362
-9.32651
-9.2368
-9.13555
-9.02372
-8.9021
-8.7714
-8.63233
-8.48565
-8.3321
-8.17247
-8.00748
-7.83782
-7.66412
-7.48695
-7.30681
-7.12417
-6.93943
-6.75301
-6.56529
-6.37669
-6.18759
-5.99835
-5.8093
-5.62077
-5.43302
-5.2463
-5.06079
-4.8767
-4.69423
-4.51365
-4.33518
-4.15905
-3.98546
-3.81463
-3.64673
-3.48188
-3.32019
-3.16172
-3.00656
-2.85481
-2.70652
-2.56174
-2.42044
-2.28266
-2.14841
-2.01773
-1.89068
-1.76724
-1.64731
-1.53061
-1.41681
-1.30534
-1.19611
-1.08951
-0.985678
-0.885269
-0.788105
-0.69375
-0.60159
-0.510928
-0.421142
-0.331687
-0.241998
-0.151662
-0.0617555
-9.15199
-9.27844
-9.38203
-9.46345
-9.52346
-9.56291
-9.58271
-9.5838
-9.56712
-9.53358
-9.48417
-9.41989
-9.34187
-9.25124
-9.14909
-9.0364
-8.91397
-8.78253
-8.64278
-8.49546
-8.34131
-8.18107
-8.01549
-7.84524
-7.67096
-7.49322
-7.31254
-7.12938
-6.94416
-6.75727
-6.56911
-6.38008
-6.19055
-6.00088
-5.81141
-5.62245
-5.43429
-5.24717
-5.06129
-4.87686
-4.69408
-4.51319
-4.33441
-4.15796
-3.98406
-3.8129
-3.64468
-3.47954
-3.31759
-3.1589
-3.00356
-2.85165
-2.70321
-2.55828
-2.41686
-2.27897
-2.14463
-2.01389
-1.88677
-1.76328
-1.64329
-1.52657
-1.41279
-1.30146
-1.19241
-1.08594
-0.982371
-0.881967
-0.784854
-0.690563
-0.598542
-0.508125
-0.418695
-0.329678
-0.240548
-0.151094
-0.0626396
-9.20264
-9.32809
-9.43042
-9.5104
-9.56882
-9.60656
-9.62455
-9.62377
-9.60517
-9.56972
-9.51836
-9.45218
-9.37227
-9.27981
-9.17589
-9.06149
-8.93743
-8.80446
-8.66328
-8.51459
-8.35913
-8.19764
-8.03083
-7.85941
-7.68399
-7.50516
-7.32344
-7.13929
-6.95311
-6.76531
-6.57629
-6.38642
-6.19608
-6.00561
-5.81535
-5.62563
-5.43671
-5.24886
-5.06228
-4.87719
-4.69379
-4.5123
-4.33294
-4.15591
-3.98144
-3.80973
-3.64098
-3.47535
-3.31296
-3.1539
-2.99824
-2.84603
-2.69733
-2.55215
-2.41052
-2.27245
-2.13799
-2.00717
-1.88001
-1.7565
-1.6365
-1.51979
-1.40607
-1.29489
-1.18606
-1.07999
-0.976697
-0.87666
-0.779834
-0.685892
-0.594285
-0.504368
-0.415514
-0.327125
-0.238677
-0.149963
-0.062329
-9.27926
-9.40313
-9.50353
-9.58128
-9.63724
-9.67233
-9.68754
-9.68388
-9.66234
-9.62391
-9.56959
-9.50047
-9.4177
-9.32247
-9.21588
-9.09894
-8.97245
-8.83718
-8.69381
-8.54304
-8.3856
-8.22221
-8.05359
-7.88041
-7.70333
-7.52291
-7.33966
-7.15404
-6.96647
-6.77734
-6.58704
-6.39594
-6.20439
-6.01275
-5.82134
-5.63048
-5.44046
-5.25153
-5.06393
-4.87785
-4.69352
-4.51114
-4.3309
-4.15303
-3.97773
-3.80524
-3.63575
-3.46943
-3.30642
-3.14681
-2.99067
-2.83803
-2.68893
-2.54339
-2.40144
-2.26313
-2.12849
-1.99755
-1.87035
-1.74682
-1.62684
-1.51018
-1.39656
-1.28561
-1.17711
-1.07151
-0.968772
-0.869318
-0.773069
-0.679739
-0.588797
-0.499603
-0.411517
-0.323933
-0.236339
-0.148528
-0.0618536
-9.38189
-9.50364
-9.60143
-9.67617
-9.72879
-9.76029
-9.77172
-9.76415
-9.73862
-9.69616
-9.63782
-9.56475
-9.47813
-9.37919
-9.26904
-9.14869
-9.01897
-8.88062
-8.73432
-8.58077
-8.42068
-8.25476
-8.08373
-7.90826
-7.72898
-7.54646
-7.3612
-7.17366
-6.98424
-6.79334
-6.60134
-6.40859
-6.21545
-6.02225
-5.82931
-5.63696
-5.44548
-5.25514
-5.06617
-4.87879
-4.6932
-4.50961
-4.32822
-4.14923
-3.97287
-3.79936
-3.62891
-3.46171
-3.29789
-3.13755
-2.98076
-2.82754
-2.67791
-2.53189
-2.38952
-2.25087
-2.11598
-1.9849
-1.85761
-1.73408
-1.61414
-1.49758
-1.38415
-1.2735
-1.16546
-1.06047
-0.958446
-0.859765
-0.764297
-0.671779
-0.581696
-0.493418
-0.406298
-0.319729
-0.233205
-0.146522
-0.0610204
-9.51162
-9.63056
-9.72496
-9.7958
-9.84412
-9.871
-9.87757
-9.86498
-9.83434
-9.78672
-9.72328
-9.64519
-9.55371
-9.45008
-9.33546
-9.21085
-9.07707
-8.93485
-8.78488
-8.62785
-8.46445
-8.29538
-8.12135
-7.94302
-7.76102
-7.57589
-7.38814
-7.19821
-7.0065
-6.81339
-6.61926
-6.42446
-6.22932
-6.03416
-5.83932
-5.64511
-5.45181
-5.25971
-5.06903
-4.88
-4.69284
-4.50774
-4.3249
-4.14451
-3.96682
-3.79205
-3.62042
-3.45212
-3.2873
-3.12606
-2.96844
-2.81448
-2.66417
-2.51755
-2.37466
-2.23559
-2.10039
-1.96909
-1.84171
-1.71816
-1.59831
-1.48191
-1.36876
-1.2585
-1.15104
-1.04679
-0.945639
-0.847889
-0.753378
-0.661848
-0.572814
-0.485655
-0.399729
-0.314425
-0.229237
-0.143966
-0.0599166
-9.66903
-9.78446
-9.8746
-9.94058
-9.98355
-10.0047
-10.0053
-9.98649
-9.94955
-9.89564
-9.82594
-9.74175
-9.64435
-9.53505
-9.41503
-9.28528
-9.14662
-8.99977
-8.84541
-8.68421
-8.51685
-8.34403
-8.16643
-7.98471
-7.79947
-7.61126
-7.42055
-7.22778
-7.03334
-6.8376
-6.64091
-6.44364
-6.2461
-6.0486
-5.85147
-5.65503
-5.45956
-5.26534
-5.07261
-4.8816
-4.69253
-4.5056
-4.32101
-4.13895
-3.95965
-3.78337
-3.61032
-3.4407
-3.27466
-3.11231
-2.9537
-2.79882
-2.64769
-2.50033
-2.35682
-2.21722
-2.08163
-1.95007
-1.82255
-1.69899
-1.57924
-1.46308
-1.35028
-1.24055
-1.13379
-1.03043
-0.930339
-0.833628
-0.740229
-0.649862
-0.562063
-0.476233
-0.391733
-0.307956
-0.224395
-0.140835
-0.0585665
-9.85542
-9.96642
-10.0513
-10.1113
-10.1478
-10.162
-10.1553
-10.1291
-10.0846
-10.0231
-9.946
-9.85454
-9.75016
-9.63418
-9.5078
-9.37203
-9.22767
-9.07542
-8.91594
-8.7499
-8.57795
-8.40077
-8.21905
-8.0334
-7.84443
-7.65265
-7.45853
-7.26247
-7.06485
-6.86603
-6.66638
-6.46621
-6.26585
-6.06562
-5.86582
-5.66676
-5.46875
-5.27205
-5.07691
-4.88358
-4.69227
-4.50318
-4.31651
-4.13248
-3.95131
-3.77324
-3.59853
-3.42735
-3.25989
-3.09623
-2.93642
-2.78046
-2.62835
-2.48013
-2.33587
-2.19566
-2.0596
-1.92772
-1.80002
-1.67644
-1.55682
-1.44093
-1.32859
-1.2195
-1.11355
-1.01131
-0.91223
-0.816841
-0.724746
-0.635742
-0.54939
-0.465108
-0.382271
-0.300277
-0.218609
-0.13707
-0.0569205
-10.0718
-10.1774
-10.2559
-10.3088
-10.3374
-10.3433
-10.328
-10.2929
-10.2395
-10.1692
-10.0834
-9.98353
-9.87103
-9.74733
-9.61363
-9.47095
-9.32007
-9.16167
-8.99638
-8.82483
-8.64769
-8.4656
-8.27923
-8.08917
-7.89599
-7.7002
-7.50221
-7.30244
-7.10122
-6.89892
-6.69586
-6.4924
-6.28882
-6.08545
-5.88258
-5.68053
-5.47959
-5.28004
-5.08213
-4.88611
-4.69221
-4.50063
-4.31157
-4.12525
-3.94189
-3.76178
-3.58512
-3.41215
-3.24302
-3.07783
-2.91662
-2.75939
-2.60613
-2.4569
-2.31176
-2.17083
-2.0342
-1.90193
-1.77401
-1.65038
-1.5309
-1.41535
-1.30354
-1.19506
-1.09019
-0.989029
-0.891336
-0.797252
-0.706724
-0.619359
-0.534739
-0.45229
-0.3714
-0.291466
-0.212003
-0.132759
-0.0550383
-10.3198
-10.4188
-10.4896
-10.5339
-10.5532
-10.5493
-10.5238
-10.4784
-10.4147
-10.3341
-10.2383
-10.1288
-10.007
-9.87451
-9.73253
-9.58205
-9.42383
-9.25853
-9.08674
-8.90907
-8.72615
-8.53861
-8.34707
-8.15212
-7.95428
-7.75403
-7.55176
-7.34783
-7.14259
-6.93637
-6.7295
-6.52231
-6.3151
-6.10817
-5.90183
-5.69638
-5.49213
-5.28934
-5.08828
-4.8892
-4.69235
-4.49792
-4.30613
-4.11719
-3.93135
-3.74888
-3.57002
-3.39498
-3.22394
-3.05699
-2.89417
-2.73547
-2.5809
-2.4305
-2.28436
-2.14259
-2.0053
-1.87256
-1.74436
-1.62066
-1.50132
-1.38612
-1.27482
-1.16721
-1.06326
-0.963131
-0.866783
-0.774304
-0.685521
-0.600127
-0.517609
-0.437398
-0.358843
-0.281393
-0.204474
-0.127919
-0.0528869
-10.601
-10.692
-10.7535
-10.7875
-10.7959
-10.7805
-10.7432
-10.6858
-10.6102
-10.5179
-10.4106
-10.2901
-10.1579
-10.0155
-9.86426
-9.70509
-9.53875
-9.36582
-9.18689
-9.00251
-8.81328
-8.6198
-8.42264
-8.22237
-8.01946
-7.81435
-7.60739
-7.39893
-7.18927
-6.97873
-6.76764
-6.5563
-6.34504
-6.13414
-5.92391
-5.71466
-5.50668
-5.30025
-5.09565
-4.89312
-4.69293
-4.49528
-4.3004
-4.1085
-3.91984
-3.73469
-3.55332
-3.37593
-3.20271
-3.03374
-2.86908
-2.7087
-2.55262
-2.40088
-2.25357
-2.11083
-1.97277
-1.83946
-1.71092
-1.5871
-1.46788
-1.35306
-1.24234
-1.13554
-1.03263
-0.933736
-0.838866
-0.748077
-0.661225
-0.577972
-0.497801
-0.420095
-0.344209
-0.269556
-0.195665
-0.122165
-0.050385
-10.9174
-10.9986
-11.0491
-11.071
-11.0664
-11.0376
-10.9866
-10.9155
-10.8262
-10.7206
-10.6005
-10.4675
-10.3236
-10.1703
-10.0088
-9.84003
-9.66478
-9.48356
-9.29687
-9.10523
-8.90919
-8.7093
-8.5061
-8.3001
-8.09173
-7.88137
-7.66935
-7.45595
-7.24146
-7.02619
-6.81044
-6.59455
-6.37879
-6.16348
-5.94893
-5.73543
-5.5233
-5.3128
-5.10423
-4.89786
-4.69392
-4.49267
-4.29431
-4.09908
-3.90725
-3.7191
-3.5349
-3.35487
-3.17918
-3.00794
-2.84118
-2.6789
-2.5211
-2.36783
-2.2192
-2.07534
-1.93638
-1.80241
-1.67345
-1.54946
-1.43033
-1.31586
-1.2058
-1.09991
-0.998128
-0.900572
-0.807317
-0.718373
-0.633594
-0.552667
-0.475088
-0.400212
-0.327385
-0.256034
-0.185566
-0.115706
-0.0475839
-11.2709
-11.3405
-11.3777
-11.3853
-11.3656
-11.3212
-11.2544
-11.1676
-11.0628
-10.9421
-10.8074
-10.6608
-10.5038
-10.3384
-10.1656
-9.9865
-9.80162
-9.61146
-9.41647
-9.2171
-9.01384
-8.80718
-8.59759
-8.38554
-8.17138
-7.95545
-7.73801
-7.51932
-7.29964
-7.07924
-6.85843
-6.63754
-6.41687
-6.19671
-5.97737
-5.75919
-5.54244
-5.32744
-5.11446
-4.90379
-4.69569
-4.4904
-4.28816
-4.08921
-3.89382
-3.70231
-3.51492
-3.3319
-3.15344
-2.97962
-2.8105
-2.64605
-2.4863
-2.33127
-2.18111
-2.03596
-1.89596
-1.76119
-1.6317
-1.50746
-1.38837
-1.27427
-1.16487
-1.05992
-0.959406
-0.863344
-0.771816
-0.684813
-0.602287
-0.523929
-0.449243
-0.377589
-0.308295
-0.240702
-0.174251
-0.108434
-0.0444636
-11.6644
-11.7196
-11.741
-11.7316
-11.6943
-11.6319
-11.547
-11.4423
-11.32
-11.1823
-11.0315
-10.8695
-10.6984
-10.5196
-10.3347
-10.1444
-9.94916
-9.74951
-9.54575
-9.33825
-9.12741
-8.91365
-8.69739
-8.47898
-8.25875
-8.03693
-7.81375
-7.58942
-7.36415
-7.13821
-6.9119
-6.68557
-6.4595
-6.23402
-6.00943
-5.78606
-5.56423
-5.34422
-5.12636
-4.91092
-4.69819
-4.48844
-4.28188
-4.07878
-3.87944
-3.68416
-3.49323
-3.30688
-3.1253
-2.9486
-2.77682
-2.60994
-2.44797
-2.29097
-2.13907
-1.99243
-1.85121
-1.7155
-1.58536
-1.46078
-1.34167
-1.22788
-1.11915
-1.01526
-0.91601
-0.821506
-0.731795
-0.646981
-0.566928
-0.491409
-0.419972
-0.351976
-0.286699
-0.223445
-0.161443
-0.100257
-0.0409456
-12.0999
-12.1378
-12.1404
-12.1111
-12.0532
-11.97
-11.8644
-11.7394
-11.5974
-11.4408
-11.272
-11.0933
-10.9064
-10.7134
-10.5153
-10.313
-10.107
-9.89735
-9.68446
-9.46855
-9.24992
-9.02889
-8.80577
-8.58084
-8.35432
-8.1264
-7.89721
-7.66692
-7.43571
-7.20385
-6.97163
-6.7394
-6.50747
-6.27617
-6.04581
-5.81675
-5.5893
-5.36379
-5.14052
-4.91981
-4.70196
-4.48723
-4.27588
-4.06818
-3.86442
-3.66495
-3.47004
-3.27997
-3.09491
-2.91497
-2.74018
-2.57055
-2.40607
-2.2468
-2.09291
-1.94455
-1.80189
-1.66505
-1.5341
-1.40905
-1.28982
-1.1763
-1.06821
-0.965252
-0.867399
-0.774557
-0.686872
-0.604319
-0.526998
-0.454663
-0.386872
-0.322998
-0.262282
-0.203875
-0.146981
-0.0909761
-0.0369667
-12.5808
-12.5977
-12.5778
-12.5249
-12.443
-12.3358
-12.2068
-12.0588
-11.8947
-11.7171
-11.5286
-11.3314
-11.1277
-10.9192
-10.7072
-10.4923
-10.2749
-10.055
-9.83274
-9.60826
-9.38172
-9.15331
-8.92324
-8.69167
-8.45872
-8.22447
-7.98902
-7.75244
-7.51494
-7.27672
-7.03812
-6.7995
-6.56118
-6.32351
-6.08683
-5.8515
-5.61788
-5.38628
-5.15706
-4.93053
-4.70701
-4.48679
-4.27013
-4.05732
-3.84868
-3.64454
-3.44524
-3.251
-3.06205
-2.8785
-2.70036
-2.52763
-2.36031
-2.19849
-2.04231
-1.89197
-1.74765
-1.60947
-1.47753
-1.35184
-1.23238
-1.119
-1.01146
-0.909573
-0.81297
-0.721842
-0.636192
-0.556288
-0.481986
-0.413172
-0.34946
-0.290205
-0.234586
-0.181688
-0.130509
-0.080434
-0.0324653
-13.1098
-13.1014
-13.0544
-12.9737
-12.8639
-12.7292
-12.5733
-12.3995
-12.2108
-12.0101
-11.7998
-11.5827
-11.3608
-11.1359
-10.9093
-10.6814
-10.4523
-10.222
-9.99036
-9.75737
-9.523
-9.28733
-9.05039
-8.81221
-8.57279
-8.33213
-8.09021
-7.84711
-7.60295
-7.35799
-7.11255
-6.86701
-6.62176
-6.37714
-6.13353
-5.89134
-5.65091
-5.41262
-5.17681
-4.94385
-4.71407
-4.48776
-4.26522
-4.04674
-3.83266
-3.62335
-3.41912
-3.22026
-3.02696
-2.83933
-2.65742
-2.48119
-2.31066
-2.14591
-1.9871
-1.83446
-1.68817
-1.54838
-1.41521
-1.28868
-1.1688
-1.05546
-0.948406
-0.847256
-0.752085
-0.662704
-0.5794
-0.502107
-0.431124
-0.366247
-0.307081
-0.252994
-0.203116
-0.156387
-0.111753
-0.0684386
-0.0273797
-13.6905
-13.6516
-13.5725
-13.4589
-13.3166
-13.15
-12.9635
-12.7607
-12.5446
-12.3183
-12.0846
-11.846
-11.6049
-11.3629
-11.1211
-10.8799
-10.6392
-10.3985
-10.1577
-9.9164
-9.67448
-9.43176
-9.18814
-8.94346
-8.69761
-8.45043
-8.20189
-7.95196
-7.70078
-7.4486
-7.19578
-6.94276
-6.68992
-6.43769
-6.18649
-5.93671
-5.6888
-5.4431
-5.20004
-4.95998
-4.72327
-4.49025
-4.2612
-4.03644
-3.81635
-3.60128
-3.39159
-3.18757
-2.98942
-2.79726
-2.61111
-2.43095
-2.25679
-2.08872
-1.92691
-1.77161
-1.62302
-1.48133
-1.34664
-1.21903
-1.09852
-0.984979
-0.878197
-0.778017
-0.683954
-0.596371
-0.515248
-0.441094
-0.373728
-0.31315
-0.259033
-0.210711
-0.167254
-0.127547
-0.0903371
-0.054748
-0.0216407
-14.3263
-14.2506
-14.1331
-13.981
-13.8004
-13.5971
-13.3757
-13.1401
-12.8936
-12.6395
-12.3804
-12.1192
-11.8578
-11.5983
-11.3413
-11.0869
-10.8347
-10.5842
-10.3347
-10.0857
-9.83675
-9.58751
-9.33763
-9.08678
-8.83466
-8.58104
-8.32575
-8.06877
-7.81021
-7.55035
-7.2896
-7.02844
-6.76736
-6.50679
-6.24721
-5.98911
-5.73291
-5.47907
-5.22797
-4.98005
-4.73569
-4.49521
-4.25894
-4.02721
-3.8004
-3.57894
-3.36315
-3.15336
-2.94977
-2.75251
-2.56159
-2.37697
-2.19868
-2.0268
-1.86153
-1.70312
-1.55182
-1.40782
-1.27127
-1.14225
-1.0208
-0.906881
-0.800254
-0.700456
-0.60777
-0.521919
-0.443417
-0.372146
-0.308681
-0.252858
-0.204322
-0.162438
-0.126237
-0.0944563
-0.0657632
-0.0391547
-0.0151934
-15.0205
-14.901
-14.7382
-14.5403
-14.3152
-14.0693
-13.8079
-13.5355
-13.2555
-12.9711
-12.6851
-12.4
-12.1182
-11.841
-11.569
-11.302
-11.0391
-10.7795
-10.5222
-10.2664
-10.0112
-9.75618
-9.50061
-9.24399
-8.98585
-8.72581
-8.46367
-8.19933
-7.93296
-7.66484
-7.39549
-7.12546
-6.85529
-6.58553
-6.31672
-6.04938
-5.78404
-5.52114
-5.26116
-5.00454
-4.75168
-4.50295
-4.25866
-4.01919
-3.78495
-3.55634
-3.33378
-3.11755
-2.90789
-2.70492
-2.50863
-2.31899
-2.136
-1.95978
-1.79052
-1.62853
-1.47405
-1.32731
-1.18847
-1.05767
-0.934954
-0.820264
-0.713406
-0.614343
-0.522456
-0.438365
-0.362033
-0.294331
-0.235028
-0.184298
-0.141904
-0.107177
-0.0791047
-0.0564011
-0.0375567
-0.0212739
-0.00804297
-15.7765
-15.6051
-15.3881
-15.1362
-14.8586
-14.5633
-14.2563
-13.9425
-13.6256
-13.3087
-12.9943
-12.6851
-12.3827
-12.0884
-11.8025
-11.524
-11.2518
-10.9846
-10.7209
-10.4595
-10.1994
-9.93961
-9.67925
-9.41753
-9.1538
-8.88755
-8.61848
-8.34654
-8.07188
-7.79491
-7.51622
-7.23645
-6.9563
-6.67638
-6.39731
-6.11975
-5.84422
-5.5713
-5.30144
-5.03516
-4.77286
-4.51493
-4.26173
-4.01362
-3.77104
-3.53447
-3.30429
-3.08084
-2.86433
-2.65489
-2.45251
-2.25714
-2.06877
-1.88753
-1.71365
-1.54744
-1.38919
-1.23915
-1.09751
-0.964411
-0.839969
-0.724209
-0.616949
-0.517665
-0.42692
-0.344335
-0.270763
-0.20603
-0.151109
-0.105925
-0.0702293
-0.0434526
-0.0245927
-0.0122464
-0.00480034
-0.000907179
-0.000292739
-16.3634
-16.0821
-15.7676
-15.4292
-15.0766
-14.7173
-14.357
-13.9997
-13.648
-13.3046
-12.971
-12.649
-12.3392
-12.041
-11.7531
-11.4737
-11.2008
-10.9327
-10.6676
-10.4041
-10.1409
-9.87685
-9.6108
-9.34192
-9.06959
-8.79348
-8.51351
-8.22997
-7.94334
-7.65434
-7.36381
-7.07252
-6.78126
-6.49078
-6.20177
-5.91493
-5.63079
-5.34995
-5.0729
-4.8001
-4.53194
-4.26877
-4.01103
-3.75917
-3.51366
-3.27496
-3.04339
-2.81918
-2.60244
-2.39314
-2.19124
-1.99672
-1.8097
-1.63046
-1.45934
-1.29664
-1.14264
-0.997571
-0.861626
-0.734931
-0.617493
-0.509186
-0.410159
-0.319604
-0.238492
-0.166784
-0.105864
-0.0554767
-0.0160936
0.0123275
0.0303363
0.038901
0.0393349
0.0332939
0.0226281
0.0077033
-17.176
-16.8206
-16.4311
-16.0215
-15.6024
-15.1835
-14.7712
-14.3696
-13.9816
-13.6084
-13.2519
-12.9121
-12.5893
-12.2819
-11.9878
-11.7043
-11.4289
-11.1592
-10.893
-10.6284
-10.3637
-10.0974
-9.8281
-9.55476
-9.27665
-8.99339
-8.70503
-8.4119
-8.11469
-7.81431
-7.51174
-7.20801
-6.90403
-6.60071
-6.29891
-5.99932
-5.70267
-5.40953
-5.12045
-4.8359
-4.55626
-4.28195
-4.01338
-3.75106
-3.49552
-3.24716
-3.00639
-2.7734
-2.54831
-2.33108
-2.12162
-1.91995
-1.7262
-1.54065
-1.36369
-1.19566
-1.03686
-0.88757
-0.747994
-0.618321
-0.498699
-0.389043
-0.288769
-0.19877
-0.11858
-0.0494823
0.00871553
0.0544507
0.0875936
0.108159
0.116506
0.113446
0.100248
0.0785027
0.0496604
0.0151464
-17.5963
-17.1204
-16.6272
-16.1326
-15.6463
-15.1765
-14.7275
-14.3016
-13.9
-13.5223
-13.1686
-12.8367
-12.5245
-12.2285
-11.9452
-11.6714
-11.404
-11.14
-10.8772
-10.6133
-10.3464
-10.0751
-9.79797
-9.51426
-9.22366
-8.92626
-8.62262
-8.31364
-8.00045
-7.68433
-7.36648
-7.04809
-6.73028
-6.41397
-6.10008
-5.7893
-5.48236
-5.17977
-4.88203
-4.58955
-4.3027
-4.02197
-3.74789
-3.48098
-3.22173
-2.97048
-2.72749
-2.49283
-2.26644
-2.04824
-1.83824
-1.6366
-1.44364
-1.25977
-1.08535
-0.920759
-0.766283
-0.622201
-0.488735
-0.365993
-0.253953
-0.152966
-0.0620889
0.0173019
0.0851964
0.139552
0.180525
0.207204
0.219314
0.2171
0.201188
0.172463
0.132009
0.0813439
0.0205824
-17.8232
-17.2338
-16.6509
-16.0893
-15.5567
-15.0579
-14.5948
-14.167
-13.7733
-13.4107
-13.0761
-12.7652
-12.4735
-12.1965
-11.9298
-11.6697
-11.4126
-11.1554
-10.8954
-10.6305
-10.3587
-10.0788
-9.78985
-9.49165
-9.18454
-8.8693
-8.54716
-8.21955
-7.88801
-7.55414
-7.21936
-6.88501
-6.55229
-6.2221
-5.89537
-5.57278
-5.25492
-4.94228
-4.63522
-4.33419
-4.03966
-3.75218
-3.47233
-3.20057
-2.93726
-2.68268
-2.43686
-2.19971
-1.97119
-1.75133
-1.54027
-1.33842
-1.14625
-0.96414
-0.7925
-0.631712
-0.482058
-0.343845
-0.217381
-0.102684
0.000867045
0.0920102
0.171176
0.236522
0.288097
0.323752
0.34305
0.34564
0.331517
0.300966
0.254503
0.192638
0.114868
0.0199182
-17.8242
-17.1419
-16.4959
-15.8947
-15.3445
-14.8463
-14.3981
-13.9952
-13.6324
-13.3037
-13.0029
-12.7237
-12.4606
-12.2081
-11.9616
-11.7167
-11.4697
-11.2174
-10.957
-10.6865
-10.4046
-10.1104
-9.8041
-9.48623
-9.15799
-8.82096
-8.47694
-8.12788
-7.77571
-7.42226
-7.06913
-6.71763
-6.36896
-6.02403
-5.68361
-5.34834
-5.01864
-4.69489
-4.37755
-4.06715
-3.76421
-3.46939
-3.18315
-2.90578
-2.63764
-2.37876
-2.12899
-1.88838
-1.65697
-1.43496
-1.22284
-1.02114
-0.830274
-0.650759
-0.483001
-0.327342
-0.184188
-0.0537699
0.0638898
0.168224
0.260051
0.337601
0.40065
0.446532
0.475214
0.485401
0.476554
0.448572
0.401504
0.335269
0.249116
0.141477
0.00650686
-18.3838
-17.5828
-16.8411
-16.1657
-15.5637
-15.0353
-14.5743
-14.1729
-13.8212
-13.5103
-13.2309
-12.9751
-12.7357
-12.5066
-12.2819
-12.0564
-11.8255
-11.5855
-11.3333
-11.0665
-10.7835
-10.4841
-10.1688
-9.83867
-9.49546
-9.14123
-8.77825
-8.40892
-8.0356
-7.66055
-7.28574
-6.91263
-6.54257
-6.1767
-5.8157
-5.46034
-5.11101
-4.76801
-4.43197
-4.10337
-3.78278
-3.47095
-3.16823
-2.87502
-2.59165
-2.31809
-2.05433
-1.80043
-1.55642
-1.32265
-1.0997
-0.88812
-0.68836
-0.50109
-0.326714
-0.165465
-0.0180595
0.1152
0.234346
0.339702
0.429709
0.504652
0.562147
0.602003
0.621833
0.62098
0.599125
0.555953
0.491185
0.404314
0.293996
0.155732
-0.0151609
-18.8771
-17.9478
-17.0997
-16.347
-15.6968
-15.1451
-14.6822
-14.294
-13.9663
-13.6852
-13.439
-13.2173
-13.0117
-12.8145
-12.6195
-12.4201
-12.2111
-11.9881
-11.7473
-11.487
-11.2048
-10.9004
-10.5756
-10.2321
-9.87226
-9.49889
-9.11481
-8.72316
-8.32665
-7.92814
-7.52987
-7.13353
-6.74067
-6.35236
-5.96947
-5.59277
-5.2225
-4.85915
-4.50329
-4.15534
-3.81617
-3.48632
-3.16606
-2.8561
-2.55655
-2.26735
-1.98886
-1.72098
-1.46377
-1.21795
-0.984033
-0.762455
-0.554088
-0.3595
-0.178883
-0.0128534
0.137882
0.273347
0.393479
0.497122
0.585083
0.655324
0.707104
0.737617
0.746838
0.733959
0.698236
0.639062
0.556377
0.449637
0.316491
0.152442
-0.0395262
-18.2046
-17.2503
-16.4301
-15.7437
-15.1825
-14.7289
-14.3638
-14.0661
-13.8189
-13.6077
-13.4208
-13.249
-13.0838
-12.9177
-12.7445
-12.5576
-12.3526
-12.126
-11.8751
-11.5985
-11.2962
-10.9695
-10.6204
-10.2519
-9.86691
-9.46909
-9.06179
-8.64848
-8.23235
-7.81545
-7.40002
-6.98748
-6.57875
-6.17522
-5.77733
-5.38561
-5.00087
-4.62343
-4.25422
-3.89437
-3.54389
-3.20368
-2.87459
-2.55624
-2.24937
-1.95436
-1.67068
-1.39908
-1.14046
-0.89472
-0.662824
-0.445998
-0.243934
-0.0573082
0.112657
0.266415
0.403537
0.52286
0.625214
0.709515
0.774662
0.818107
0.840141
0.838997
0.81406
0.764578
0.690622
0.59203
0.467795
0.315992
0.131636
-0.0634013
-17.3406
-16.4635
-15.7573
-15.19
-14.7455
-14.3966
-14.1199
-13.8957
-13.7095
-13.5497
-13.4061
-13.2702
-13.1333
-12.9879
-12.828
-12.6478
-12.4443
-12.2143
-11.9569
-11.6728
-11.3609
-11.0227
-10.6605
-10.2775
-9.87744
-9.4637
-9.04077
-8.61175
-8.1795
-7.74624
-7.31328
-6.88277
-6.4559
-6.03343
-5.61662
-5.20609
-4.803
-4.40878
-4.02396
-3.64953
-3.28649
-2.93483
-2.59561
-2.26933
-1.95563
-1.65532
-1.36886
-1.09625
-0.838573
-0.596716
-0.370786
-0.161451
0.0303724
0.204756
0.361512
0.499494
0.6187
0.719136
0.799901
0.858863
0.896086
0.909513
0.899003
0.863521
0.802757
0.716611
0.604693
0.466775
0.300557
0.103904
-0.0816446
-16.5518
-15.8088
-15.2369
-14.7877
-14.443
-14.1758
-13.9654
-13.7976
-13.6605
-13.5432
-13.4361
-13.3288
-13.2136
-13.0832
-12.933
-12.7582
-12.557
-12.3268
-12.0658
-11.7745
-11.4526
-11.1023
-10.7268
-10.3286
-9.91187
-9.48076
-9.03978
-8.59196
-8.13926
-7.68461
-7.23038
-6.77808
-6.32943
-5.88587
-5.44845
-5.01827
-4.59702
-4.186
-3.78616
-3.3985
-3.02367
-2.66276
-2.3161
-1.98392
-1.66681
-1.36516
-1.0792
-0.809914
-0.557832
-0.323328
-0.107406
0.0897053
0.268222
0.427036
0.565807
0.684655
0.783184
0.85982
0.914364
0.945084
0.951822
0.933809
0.890159
0.820249
0.724382
0.602955
0.45553
0.280039
0.0766831
-0.0912546
-15.8507
-15.2802
-14.8365
-14.4998
-14.2421
-14.0437
-13.8923
-13.7738
-13.6786
-13.5942
-13.5107
-13.4196
-13.3131
-13.1859
-13.0352
-12.8565
-12.6467
-12.403
-12.1263
-11.8168
-11.4765
-11.1078
-10.7142
-10.2985
-9.86456
-9.41726
-8.95982
-8.49386
-8.023
-7.55037
-7.07809
-6.60755
-6.14042
-5.67964
-5.22665
-4.78177
-4.34665
-3.92379
-3.51352
-3.11735
-2.73642
-2.3713
-2.02208
-1.68996
-1.37455
-1.07669
-0.797052
-0.536056
-0.294265
-0.0727702
0.128928
0.310299
0.47102
0.610422
0.728564
0.824698
0.898372
0.948461
0.974622
0.976167
0.952378
0.902344
0.826057
0.723857
0.596098
0.442595
0.261754
0.0578962
-0.090183
-15.88
-15.3171
-14.8877
-14.5567
-14.3033
-14.1122
-13.9677
-13.8576
-13.7711
-13.6953
-13.6215
-13.5399
-13.4435
-13.3266
-13.1846
-13.0154
-12.8176
-12.5866
-12.323
-12.0279
-11.7014
-11.3446
-10.9616
-10.5545
-10.1263
-9.68048
-9.22184
-8.75245
-8.27428
-7.79113
-7.30673
-6.82176
-6.33866
-5.86116
-5.39071
-4.9279
-4.47451
-4.03278
-3.60439
-3.19119
-2.79373
-2.41343
-2.05068
-1.70616
-1.37982
-1.07283
-0.78499
-0.517322
-0.270325
-0.0447774
0.15981
0.342768
0.504166
0.643246
0.759863
0.853462
0.92405
0.970787
0.993153
0.990651
0.962386
0.908022
0.827489
0.721177
0.589541
0.433182
0.251023
0.0498917
-0.0795781
-15.3732
-14.939
-14.5956
-14.3369
-14.1418
-13.9915
-13.8763
-13.7847
-13.7045
-13.6254
-13.5401
-13.4404
-13.3247
-13.1849
-13.0211
-12.8303
-12.6108
-12.3592
-12.0785
-11.7667
-11.4258
-11.0562
-10.6627
-10.2452
-9.80805
-9.35506
-8.88897
-8.4107
-7.92543
-7.43628
-6.94463
-6.45353
-5.96606
-5.48487
-5.01053
-4.54511
-4.09048
-3.65035
-3.22476
-2.81641
-2.42546
-2.05399
-1.70069
-1.36816
-1.05503
-0.762856
-0.491243
-0.242397
-0.0146937
0.190034
0.373056
0.533296
0.671167
0.785008
0.875947
0.943398
0.987184
1.00621
1.00029
0.968779
0.911279
0.827748
0.718919
0.58573
0.42887
0.24749
0.0519047
-0.0617261
-14.955
-14.5973
-14.3205
-14.1123
-13.9549
-13.8226
-13.7156
-13.6186
-13.5294
-13.4302
-13.3261
-13.2032
-13.0662
-12.9023
-12.7199
-12.5058
-12.2677
-11.9971
-11.7012
-11.3724
-11.0191
-10.6377
-10.2339
-9.80655
-9.36375
-8.90361
-8.43061
-7.94826
-7.46007
-6.9682
-6.47467
-5.9849
-5.49871
-5.02046
-4.54809
-4.08902
-3.64137
-3.2116
-2.79607
-2.40224
-2.02465
-1.6702
-1.33342
-1.02057
-0.725847
-0.456184
-0.206163
0.0185257
0.223039
0.402446
0.561386
0.695029
0.806681
0.893332
0.95808
0.998794
1.0149
1.00576
0.971426
0.911343
0.826019
0.715714
0.582569
0.426237
0.248064
0.0595616
-0.0407981
-14.9742
-14.5846
-14.2789
-14.05
-8.95717
-9.08675
-9.1941
-9.27988
-9.34477
-9.38959
-9.41517
-9.42243
-9.41223
-9.38546
-9.343
-9.28585
-9.21507
-9.13178
-9.03701
-8.93169
-8.81656
-8.69231
-8.55962
-8.4192
-8.27178
-8.11813
-7.95895
-7.79493
-7.62668
-7.45477
-7.2797
-7.10191
-6.92183
-6.73984
-6.55634
-6.3717
-6.18632
-6.00054
-5.8147
-5.62913
-5.44409
-5.25985
-5.07662
-4.8946
-4.71401
-4.53508
-4.35805
-4.18316
-4.01062
-3.84064
-3.67342
-3.50911
-3.3478
-3.18958
-3.03452
-2.8827
-2.73418
-2.58902
-2.44727
-2.30895
-2.1741
-2.04276
-1.91494
-1.79062
-1.66965
-1.55182
-1.43672
-1.32401
-1.21347
-1.10541
-1.00036
-0.898497
-0.799984
-0.704329
-0.61087
-0.518864
-0.427679
-0.336747
-0.245542
-0.153663
-0.0623228
-8.98156
-9.11062
-9.21734
-9.30241
-9.36655
-9.41055
-9.43529
-9.44166
-9.43058
-9.40291
-9.35958
-9.30155
-9.2299
-9.14574
-9.05014
-8.944
-8.82812
-8.70319
-8.56986
-8.42885
-8.28088
-8.12666
-7.96693
-7.80236
-7.63357
-7.46112
-7.28553
-7.10725
-6.92669
-6.74426
-6.56032
-6.37527
-6.18948
-6.00329
-5.81705
-5.63107
-5.44564
-5.26101
-5.07741
-4.89504
-4.71412
-4.53487
-4.35752
-4.18231
-4.00944
-3.83915
-3.67161
-3.507
-3.34542
-3.18697
-3.03171
-2.87971
-2.73103
-2.58572
-2.44383
-2.30539
-2.17044
-2.03901
-1.91113
-1.78675
-1.66575
-1.5479
-1.43284
-1.32022
-1.20983
-1.10207
-0.997033
-0.895339
-0.796857
-0.701246
-0.607893
-0.516103
-0.425238
-0.334725
-0.244066
-0.153083
-0.0632267
-9.02988
-9.158
-9.26355
-9.34728
-9.40992
-9.45232
-9.47536
-9.47999
-9.46711
-9.43764
-9.39249
-9.33267
-9.25925
-9.17337
-9.07609
-8.96836
-8.85096
-8.72459
-8.58993
-8.44764
-8.29844
-8.14305
-7.98218
-7.8165
-7.64664
-7.47317
-7.29659
-7.11736
-6.9359
-6.75259
-6.56783
-6.38197
-6.19539
-6.00843
-5.82143
-5.63471
-5.44854
-5.2632
-5.0789
-4.89587
-4.71432
-4.53446
-4.35651
-4.18071
-4.00727
-3.83642
-3.66835
-3.50324
-3.34121
-3.18236
-3.02674
-2.87442
-2.72546
-2.57989
-2.43776
-2.29912
-2.16402
-2.03249
-1.90454
-1.78011
-1.65909
-1.54124
-1.42623
-1.31373
-1.20361
-1.09608
-0.991492
-0.890113
-0.79195
-0.696677
-0.603712
-0.51238
-0.422046
-0.332125
-0.242133
-0.151904
-0.0629097
-9.10292
-9.22958
-9.33333
-9.41496
-9.4753
-9.51522
-9.53566
-9.53759
-9.52196
-9.48969
-9.44175
-9.37917
-9.30307
-9.21458
-9.1148
-9.00468
-8.88501
-8.75648
-8.61977
-8.47554
-8.32449
-8.16733
-8.00475
-7.83744
-7.66602
-7.49105
-7.31303
-7.13242
-6.94963
-6.76505
-6.57906
-6.39202
-6.20428
-6.01619
-5.82808
-5.64025
-5.45302
-5.26662
-5.08131
-4.8973
-4.7148
-4.53402
-4.3552
-4.17854
-4.00427
-3.83262
-3.66381
-3.49799
-3.33532
-3.17588
-3.01974
-2.86695
-2.71755
-2.57159
-2.42912
-2.2902
-2.15488
-2.02319
-1.89515
-1.77068
-1.64963
-1.53181
-1.41688
-1.30457
-1.19478
-1.08772
-0.983674
-0.882878
-0.785294
-0.690612
-0.598271
-0.507612
-0.417994
-0.328843
-0.239692
-0.150382
-0.0623959
-9.20075
-9.32542
-9.42673
-9.50554
-9.56276
-9.59931
-9.61621
-9.61447
-9.59509
-9.55905
-9.50733
-9.44105
-9.36133
-9.26936
-9.16624
-9.05293
-8.93022
-8.79881
-8.65936
-8.51253
-8.359
-8.19947
-8.03465
-7.86518
-7.6917
-7.51476
-7.33485
-7.15242
-6.96788
-6.78161
-6.59399
-6.40537
-6.21609
-6.0265
-5.8369
-5.64763
-5.45897
-5.27119
-5.08453
-4.89921
-4.71545
-4.53347
-4.35347
-4.17568
-4.00033
-3.82766
-3.65786
-3.49114
-3.32762
-3.16741
-3.01058
-2.85716
-2.70719
-2.56071
-2.41779
-2.27849
-2.14288
-2.01099
-1.88283
-1.7583
-1.63727
-1.51951
-1.40473
-1.29269
-1.18333
-1.07686
-0.973535
-0.873494
-0.776681
-0.682781
-0.591258
-0.501464
-0.412766
-0.324594
-0.2365
-0.148327
-0.0615404
-9.32429
-9.44636
-9.5445
-9.61967
-9.67286
-9.70509
-9.71743
-9.71099
-9.68681
-9.64593
-9.58943