/*--------------------------------*- C++ -*----------------------------------*\
  =========                 |
  \\      /  F ield         | OpenFOAM: The Open Source CFD Toolbox
   \\    /   O peration     | Website:  https://openfoam.org
    \\  /    A nd           | Version:  13
     \\/     M anipulation  |
\*---------------------------------------------------------------------------*/
FoamFile
{
    format      ascii;
    class       volScalarField;
    location    "600";
    object      k;
}
// * * * * * * * * * * * * * * * * * * * * * * * * * * * * * * * * * * * * * //

dimensions      [0 2 -2 0 0 0 0];

internalField   nonuniform List<scalar> 
172290
(
0.623748
0.617447
0.611261
0.605187
0.599222
0.593364
0.58761
0.581957
0.576402
0.570943
0.565578
0.560304
0.555119
0.550021
0.545007
0.540077
0.535227
0.530456
0.525762
0.521143
0.516597
0.512124
0.50772
0.503385
0.499117
0.494915
0.490777
0.486701
0.482687
0.478732
0.474837
0.470999
0.467217
0.463491
0.459818
0.456199
0.452631
0.449115
0.445648
0.44223
0.43886
0.435538
0.432262
0.429031
0.425845
0.422704
0.419605
0.41655
0.413537
0.410565
0.407635
0.404745
0.401896
0.399087
0.396317
0.393588
0.390897
0.388247
0.385636
0.383064
0.380533
0.378041
0.37559
0.37318
0.370811
0.368483
0.366197
0.363953
0.361751
0.359591
0.357473
0.355396
0.353359
0.351361
0.3494
0.347474
0.34558
0.623748
0.617447
0.611261
0.605187
0.599222
0.593364
0.58761
0.581957
0.576402
0.570943
0.565578
0.560304
0.555119
0.550021
0.545008
0.540077
0.535227
0.530456
0.525762
0.521143
0.516597
0.512124
0.50772
0.503385
0.499117
0.494915
0.490776
0.486701
0.482687
0.478732
0.474837
0.470999
0.467217
0.46349
0.459818
0.456198
0.452631
0.449114
0.445647
0.442229
0.43886
0.435537
0.432261
0.42903
0.425844
0.422703
0.419604
0.416549
0.413535
0.410564
0.407633
0.404743
0.401894
0.399085
0.396315
0.393586
0.390895
0.388245
0.385634
0.383062
0.380531
0.378039
0.375589
0.373179
0.37081
0.368483
0.366197
0.363954
0.361753
0.359594
0.357477
0.355402
0.353367
0.351371
0.349412
0.347488
0.345597
0.623748
0.617447
0.611261
0.605187
0.599222
0.593364
0.58761
0.581957
0.576402
0.570943
0.565578
0.560304
0.555119
0.550021
0.545007
0.540077
0.535227
0.530456
0.525762
0.521143
0.516597
0.512124
0.50772
0.503385
0.499117
0.494914
0.490776
0.4867
0.482686
0.478732
0.474836
0.470998
0.467216
0.46349
0.459817
0.456197
0.45263
0.449113
0.445646
0.442228
0.438858
0.435535
0.432259
0.429028
0.425842
0.4227
0.419602
0.416546
0.413533
0.410561
0.40763
0.40474
0.401891
0.399081
0.396312
0.393582
0.390892
0.388241
0.38563
0.383059
0.380528
0.378037
0.375587
0.373177
0.37081
0.368484
0.3662
0.363959
0.36176
0.359604
0.35749
0.355419
0.353388
0.351397
0.349443
0.347525
0.34564
0.623748
0.617447
0.611261
0.605187
0.599222
0.593364
0.58761
0.581957
0.576402
0.570943
0.565578
0.560304
0.555119
0.550021
0.545007
0.540077
0.535227
0.530456
0.525761
0.521142
0.516597
0.512123
0.50772
0.503384
0.499116
0.494914
0.490775
0.4867
0.482685
0.478731
0.474835
0.470997
0.467215
0.463488
0.459816
0.456196
0.452628
0.449111
0.445644
0.442226
0.438856
0.435533
0.432256
0.429025
0.425839
0.422697
0.419598
0.416542
0.413529
0.410557
0.407626
0.404736
0.401886
0.399077
0.396307
0.393577
0.390887
0.388236
0.385625
0.383054
0.380524
0.378033
0.375584
0.373176
0.370809
0.368485
0.366204
0.363965
0.36177
0.359618
0.35751
0.355444
0.353419
0.351435
0.349489
0.347579
0.345703
0.623748
0.617447
0.611261
0.605187
0.599222
0.593364
0.58761
0.581957
0.576402
0.570943
0.565578
0.560304
0.555119
0.550021
0.545007
0.540076
0.535226
0.530455
0.525761
0.521142
0.516597
0.512123
0.507719
0.503384
0.499116
0.494913
0.490775
0.486699
0.482684
0.47873
0.474834
0.470995
0.467213
0.463486
0.459814
0.456194
0.452626
0.449108
0.445641
0.442223
0.438853
0.43553
0.432253
0.429021
0.425835
0.422693
0.419594
0.416537
0.413523
0.410551
0.40762
0.40473
0.40188
0.39907
0.3963
0.39357
0.39088
0.38823
0.385619
0.383049
0.380518
0.378029
0.375581
0.373174
0.37081
0.368488
0.36621
0.363975
0.361785
0.359639
0.357537
0.355479
0.353464
0.351489
0.349555
0.347658
0.345795
0.623748
0.617447
0.611261
0.605187
0.599222
0.593364
0.58761
0.581957
0.576402
0.570943
0.565578
0.560304
0.555119
0.55002
0.545007
0.540076
0.535226
0.530455
0.525761
0.521142
0.516596
0.512122
0.507718
0.503383
0.499115
0.494912
0.490773
0.486697
0.482683
0.478728
0.474832
0.470994
0.467211
0.463484
0.459811
0.456191
0.452623
0.449105
0.445638
0.442219
0.438849
0.435525
0.432248
0.429017
0.42583
0.422687
0.419588
0.416531
0.413517
0.410544
0.407613
0.404722
0.401872
0.399062
0.396292
0.393562
0.390872
0.388222
0.385612
0.383042
0.380512
0.378024
0.375577
0.373173
0.370811
0.368493
0.366219
0.363989
0.361805
0.359667
0.357574
0.355526
0.353523
0.351562
0.349643
0.347762
0.345917
0.623748
0.617447
0.611261
0.605187
0.599222
0.593364
0.58761
0.581957
0.576402
0.570943
0.565578
0.560304
0.555118
0.55002
0.545007
0.540076
0.535226
0.530455
0.52576
0.521141
0.516595
0.512121
0.507718
0.503382
0.499114
0.494911
0.490772
0.486696
0.482681
0.478726
0.47483
0.470991
0.467209
0.463482
0.459808
0.456188
0.452619
0.449102
0.445634
0.442215
0.438844
0.43552
0.432243
0.429011
0.425824
0.422681
0.419581
0.416524
0.413509
0.410536
0.407605
0.404714
0.401863
0.399053
0.396283
0.393553
0.390863
0.388212
0.385603
0.383033
0.380505
0.378018
0.375573
0.373171
0.370813
0.368499
0.36623
0.364007
0.361831
0.359702
0.357621
0.355587
0.353599
0.351657
0.349758
0.347899
0.346077
0.623748
0.617447
0.611261
0.605187
0.599222
0.593364
0.58761
0.581957
0.576402
0.570943
0.565577
0.560303
0.555118
0.55002
0.545006
0.540076
0.535225
0.530454
0.52576
0.521141
0.516595
0.512121
0.507717
0.503381
0.499113
0.49491
0.490771
0.486694
0.482679
0.478724
0.474828
0.470989
0.467206
0.463479
0.459805
0.456184
0.452616
0.449098
0.445629
0.44221
0.438839
0.435515
0.432237
0.429004
0.425817
0.422673
0.419573
0.416516
0.413501
0.410527
0.407595
0.404703
0.401853
0.399042
0.396272
0.393542
0.390851
0.388202
0.385592
0.383024
0.380497
0.378011
0.375569
0.37317
0.370816
0.368507
0.366245
0.36403
0.361864
0.359747
0.357681
0.355664
0.353696
0.351777
0.349904
0.348074
0.346284
0.623748
0.617447
0.611261
0.605187
0.599222
0.593364
0.58761
0.581957
0.576402
0.570943
0.565577
0.560303
0.555118
0.55002
0.545006
0.540075
0.535225
0.530454
0.525759
0.52114
0.516594
0.51212
0.507716
0.50338
0.499111
0.494908
0.490769
0.486692
0.482677
0.478722
0.474825
0.470986
0.467203
0.463475
0.459801
0.45618
0.452611
0.449093
0.445624
0.442205
0.438833
0.435508
0.43223
0.428997
0.425809
0.422665
0.419564
0.416506
0.413491
0.410517
0.407584
0.404692
0.401841
0.39903
0.396259
0.393529
0.390839
0.388189
0.385581
0.383013
0.380488
0.378004
0.375565
0.37317
0.37082
0.368518
0.366263
0.364059
0.361905
0.359804
0.357755
0.35576
0.353818
0.351929
0.35009
0.348298
0.346549
0.623748
0.617447
0.611261
0.605187
0.599222
0.593364
0.58761
0.581956
0.576402
0.570943
0.565577
0.560303
0.555118
0.55002
0.545006
0.540075
0.535225
0.530453
0.525759
0.521139
0.516593
0.512119
0.507714
0.503379
0.49911
0.494906
0.490767
0.48669
0.482675
0.478719
0.474823
0.470983
0.4672
0.463472
0.459797
0.456176
0.452606
0.449088
0.445619
0.442198
0.438826
0.435501
0.432222
0.428989
0.4258
0.422656
0.419554
0.416496
0.413479
0.410505
0.407572
0.404679
0.401828
0.399016
0.396246
0.393515
0.390825
0.388176
0.385568
0.383002
0.380478
0.377997
0.375561
0.37317
0.370827
0.368532
0.366287
0.364094
0.361956
0.359873
0.357848
0.35588
0.353971
0.35212
0.350325
0.348583
0.34689
0.623748
0.617447
0.611261
0.605187
0.599222
0.593364
0.58761
0.581956
0.576401
0.570943
0.565577
0.560303
0.555118
0.550019
0.545006
0.540074
0.535224
0.530452
0.525758
0.521138
0.516592
0.512118
0.507713
0.503377
0.499108
0.494905
0.490765
0.486688
0.482672
0.478717
0.474819
0.47098
0.467196
0.463468
0.459793
0.456171
0.452601
0.449082
0.445612
0.442192
0.438819
0.435493
0.432214
0.42898
0.425791
0.422645
0.419543
0.416484
0.413467
0.410492
0.407558
0.404665
0.401813
0.399002
0.396231
0.3935
0.390811
0.388162
0.385555
0.38299
0.380468
0.37799
0.375558
0.373172
0.370836
0.36855
0.366316
0.364139
0.362018
0.359959
0.357961
0.356029
0.354161
0.35236
0.350623
0.348947
0.347328
0.623748
0.617447
0.611261
0.605187
0.599222
0.593364
0.58761
0.581956
0.576401
0.570942
0.565577
0.560303
0.555117
0.550019
0.545005
0.540074
0.535224
0.530452
0.525757
0.521137
0.516591
0.512116
0.507712
0.503376
0.499107
0.494903
0.490763
0.486686
0.48267
0.478714
0.474816
0.470976
0.467192
0.463463
0.459788
0.456166
0.452596
0.449076
0.445606
0.442185
0.438811
0.435485
0.432205
0.42897
0.42578
0.422634
0.419532
0.416472
0.413454
0.410478
0.407544
0.404651
0.401798
0.398986
0.396215
0.393484
0.390795
0.388147
0.385541
0.382977
0.380458
0.377984
0.375556
0.373176
0.370848
0.368572
0.366353
0.364192
0.362095
0.360063
0.358101
0.356211
0.354397
0.352659
0.350998
0.349411
0.347893
0.623748
0.617447
0.611261
0.605187
0.599222
0.593364
0.58761
0.581956
0.576401
0.570942
0.565577
0.560302
0.555117
0.550019
0.545005
0.540073
0.535223
0.530451
0.525756
0.521136
0.51659
0.512115
0.50771
0.503374
0.499105
0.494901
0.490761
0.486683
0.482667
0.47871
0.474813
0.470972
0.467188
0.463459
0.459783
0.45616
0.452589
0.449069
0.445599
0.442177
0.438803
0.435476
0.432195
0.42896
0.425769
0.422623
0.419519
0.416459
0.41344
0.410464
0.407529
0.404635
0.401782
0.398969
0.396198
0.393467
0.390778
0.388131
0.385526
0.382965
0.380448
0.377977
0.375555
0.373183
0.370863
0.3686
0.366397
0.364258
0.362187
0.360189
0.35827
0.356435
0.354688
0.353034
0.351473
0.350005
0.348626
0.623748
0.617447
0.611261
0.605187
0.599222
0.593364
0.58761
0.581956
0.576401
0.570942
0.565577
0.560302
0.555117
0.550018
0.545004
0.540073
0.535222
0.53045
0.525755
0.521135
0.516589
0.512114
0.507709
0.503372
0.499103
0.494899
0.490758
0.48668
0.482664
0.478707
0.474809
0.470968
0.467183
0.463454
0.459778
0.456155
0.452583
0.449062
0.445591
0.442169
0.438794
0.435467
0.432185
0.428949
0.425758
0.42261
0.419506
0.416445
0.413426
0.410449
0.407513
0.404618
0.401764
0.398952
0.39618
0.39345
0.390761
0.388114
0.385511
0.382952
0.380438
0.377972
0.375556
0.373192
0.370883
0.368634
0.36645
0.364335
0.362296
0.36034
0.358475
0.356708
0.355047
0.3535
0.352072
0.350765
0.349579
0.623748
0.617447
0.611261
0.605187
0.599222
0.593364
0.58761
0.581956
0.576401
0.570942
0.565576
0.560302
0.555117
0.550018
0.545004
0.540072
0.535222
0.53045
0.525754
0.521134
0.516588
0.512112
0.507707
0.503371
0.499101
0.494896
0.490756
0.486678
0.482661
0.478704
0.474805
0.470964
0.467179
0.463449
0.459772
0.456149
0.452576
0.449055
0.445583
0.44216
0.438785
0.435457
0.432175
0.428938
0.425746
0.422597
0.419493
0.41643
0.413411
0.410433
0.407496
0.404601
0.401747
0.398934
0.396162
0.393431
0.390743
0.388098
0.385496
0.382939
0.380429
0.377968
0.375558
0.373203
0.370907
0.368675
0.366512
0.364426
0.362425
0.360519
0.358719
0.357036
0.355485
0.354078
0.352827
0.351742
0.350826
0.623748
0.617447
0.611261
0.605187
0.599222
0.593364
0.58761
0.581956
0.576401
0.570942
0.565576
0.560302
0.555116
0.550017
0.545003
0.540072
0.535221
0.530449
0.525754
0.521133
0.516586
0.512111
0.507706
0.503369
0.499099
0.494894
0.490753
0.486675
0.482657
0.4787
0.474801
0.47096
0.467174
0.463443
0.459766
0.456142
0.45257
0.449048
0.445575
0.442152
0.438776
0.435447
0.432164
0.428926
0.425733
0.422584
0.419478
0.416415
0.413395
0.410416
0.407479
0.404583
0.401728
0.398915
0.396143
0.393413
0.390725
0.388081
0.385481
0.382927
0.38042
0.377965
0.375563
0.373218
0.370936
0.368722
0.366584
0.364531
0.362575
0.360728
0.359007
0.357429
0.356016
0.354791
0.353777
0.352997
0.352462
0.623748
0.617447
0.611261
0.605187
0.599222
0.593364
0.58761
0.581956
0.576401
0.570942
0.565576
0.560301
0.555116
0.550017
0.545003
0.540071
0.53522
0.530448
0.525753
0.521132
0.516585
0.51211
0.507704
0.503367
0.499097
0.494891
0.49075
0.486672
0.482654
0.478696
0.474797
0.470955
0.467169
0.463438
0.45976
0.456136
0.452562
0.44904
0.445567
0.442142
0.438766
0.435436
0.432152
0.428914
0.42572
0.42257
0.419464
0.4164
0.413378
0.410399
0.407461
0.404564
0.401709
0.398895
0.396123
0.393394
0.390707
0.388063
0.385465
0.382914
0.380412
0.377963
0.375569
0.373235
0.370968
0.368775
0.366665
0.36465
0.362745
0.360968
0.359341
0.357891
0.356653
0.355663
0.354965
0.354597
0.354578
0.623748
0.617447
0.611261
0.605187
0.599222
0.593364
0.58761
0.581956
0.576401
0.570942
0.565576
0.560301
0.555116
0.550017
0.545002
0.540071
0.53522
0.530447
0.525752
0.521131
0.516584
0.512108
0.507702
0.503365
0.499094
0.494889
0.490748
0.486669
0.482651
0.478693
0.474793
0.47095
0.467164
0.463432
0.459754
0.456129
0.452555
0.449032
0.445558
0.442133
0.438756
0.435425
0.432141
0.428902
0.425707
0.422556
0.419449
0.416384
0.413362
0.410381
0.407443
0.404546
0.40169
0.398876
0.396104
0.393374
0.390688
0.388046
0.38545
0.382902
0.380405
0.377961
0.375576
0.373255
0.371004
0.368834
0.366754
0.364781
0.362934
0.361236
0.35972
0.358425
0.357402
0.356713
0.356424
0.35658
0.357114
0.623748
0.617447
0.611261
0.605187
0.599222
0.593364
0.587609
0.581956
0.576401
0.570941
0.565576
0.560301
0.555115
0.550016
0.545002
0.54007
0.535219
0.530446
0.525751
0.52113
0.516582
0.512107
0.507701
0.503363
0.499092
0.494887
0.490745
0.486665
0.482647
0.478689
0.474789
0.470946
0.467159
0.463427
0.459748
0.456122
0.452548
0.449024
0.44555
0.442124
0.438746
0.435414
0.432129
0.428889
0.425694
0.422542
0.419434
0.416368
0.413345
0.410364
0.407424
0.404527
0.40167
0.398856
0.396084
0.393355
0.390669
0.388029
0.385435
0.38289
0.380398
0.377961
0.375585
0.373276
0.371043
0.368896
0.36685
0.364922
0.363138
0.36153
0.36014
0.359027
0.358264
0.357945
0.358147
0.358757
0.359753
0.623748
0.617447
0.611261
0.605187
0.599222
0.593364
0.587609
0.581956
0.576401
0.570941
0.565575
0.560301
0.555115
0.550016
0.545001
0.540069
0.535218
0.530445
0.52575
0.521129
0.516581
0.512105
0.507699
0.503361
0.49909
0.494884
0.490742
0.486662
0.482644
0.478685
0.474784
0.470941
0.467153
0.463421
0.459742
0.456115
0.45254
0.449016
0.445541
0.442114
0.438735
0.435403
0.432117
0.428876
0.42568
0.422528
0.419418
0.416352
0.413328
0.410346
0.407406
0.404507
0.401651
0.398836
0.396064
0.393335
0.39065
0.388012
0.38542
0.382879
0.380391
0.377961
0.375595
0.373299
0.371083
0.368961
0.366948
0.365068
0.36335
0.361838
0.360588
0.35968
0.359219
0.359322
0.359901
0.360935
0.362499
0.623748
0.617447
0.611261
0.605187
0.599222
0.593364
0.587609
0.581956
0.5764
0.570941
0.565575
0.5603
0.555115
0.550015
0.545001
0.540069
0.535217
0.530445
0.525749
0.521128
0.51658
0.512103
0.507697
0.503359
0.499088
0.494881
0.490739
0.486659
0.48264
0.478681
0.47478
0.470936
0.467148
0.463415
0.459736
0.456108
0.452533
0.449008
0.445532
0.442105
0.438725
0.435392
0.432105
0.428864
0.425667
0.422513
0.419403
0.416336
0.413311
0.410328
0.407387
0.404488
0.401631
0.398816
0.396044
0.393316
0.390632
0.387994
0.385405
0.382868
0.380385
0.377961
0.375604
0.373321
0.371123
0.369024
0.367044
0.365211
0.363561
0.362146
0.361041
0.360351
0.360218
0.36066
0.361583
0.363097
0.365333
0.623748
0.617447
0.611261
0.605187
0.599222
0.593364
0.587609
0.581956
0.5764
0.570941
0.565575
0.5603
0.555114
0.550015
0.545
0.540068
0.535217
0.530444
0.525748
0.521126
0.516578
0.512102
0.507695
0.503357
0.499085
0.494879
0.490736
0.486656
0.482637
0.478677
0.474776
0.470931
0.467143
0.463409
0.459729
0.456102
0.452525
0.449
0.445523
0.442095
0.438715
0.435381
0.432094
0.428851
0.425653
0.422499
0.419388
0.41632
0.413294
0.41031
0.407369
0.404469
0.401611
0.398796
0.396024
0.393296
0.390613
0.387977
0.385391
0.382856
0.380378
0.377961
0.375613
0.373341
0.371159
0.369082
0.367134
0.365343
0.363755
0.362432
0.361466
0.36099
0.361175
0.361852
0.363122
0.365148
0.368147
0.623748
0.617447
0.611261
0.605187
0.599222
0.593364
0.587609
0.581956
0.5764
0.570941
0.565575
0.5603
0.555114
0.550015
0.545
0.540068
0.535216
0.530443
0.525747
0.521125
0.516577
0.5121
0.507694
0.503355
0.499083
0.494876
0.490733
0.486653
0.482633
0.478673
0.474771
0.470927
0.467138
0.463404
0.459723
0.456095
0.452518
0.448992
0.445515
0.442086
0.438705
0.43537
0.432082
0.428839
0.42564
0.422484
0.419373
0.416304
0.413277
0.410293
0.40735
0.40445
0.401592
0.398777
0.396005
0.393277
0.390595
0.387961
0.385376
0.382845
0.380371
0.37796
0.375619
0.373358
0.37119
0.369133
0.367209
0.365454
0.363917
0.362669
0.361817
0.36152
0.361871
0.362758
0.364352
0.36689
0.623748
0.617447
0.611261
0.605187
0.599222
0.593364
0.587609
0.581955
0.5764
0.570941
0.565575
0.5603
0.555114
0.550014
0.544999
0.540067
0.535215
0.530442
0.525746
0.521124
0.516576
0.512099
0.507692
0.503353
0.499081
0.494874
0.490731
0.48665
0.48263
0.478669
0.474767
0.470922
0.467133
0.463398
0.459717
0.456088
0.452511
0.448984
0.445506
0.442077
0.438695
0.43536
0.43207
0.428826
0.425626
0.42247
0.419358
0.416288
0.413261
0.410275
0.407332
0.404432
0.401573
0.398758
0.395986
0.393258
0.390577
0.387944
0.385361
0.382833
0.380363
0.377957
0.375623
0.373371
0.371214
0.36917
0.367265
0.365534
0.364029
0.362827
0.362046
0.361859
0.362292
0.363314
0.365142
0.368097
0.623748
0.617447
0.611261
0.605187
0.599222
0.593364
0.587609
0.581955
0.5764
0.57094
0.565574
0.560299
0.555113
0.550014
0.544999
0.540066
0.535215
0.530441
0.525745
0.521123
0.516574
0.512097
0.50769
0.503351
0.499079
0.494871
0.490728
0.486647
0.482626
0.478666
0.474763
0.470917
0.467128
0.463393
0.459711
0.456082
0.452504
0.448976
0.445498
0.442068
0.438685
0.435349
0.432059
0.428814
0.425613
0.422457
0.419343
0.416273
0.413244
0.410259
0.407315
0.404414
0.401555
0.398739
0.395967
0.39324
0.390559
0.387927
0.385347
0.382821
0.380354
0.377952
0.375624
0.373378
0.371228
0.369193
0.367296
0.365574
0.364077
0.362882
0.362107
0.361929
0.362359
0.363398
0.365294
0.368445
0.623748
0.617447
0.611261
0.605187
0.599222
0.593364
0.587609
0.581955
0.5764
0.57094
0.565574
0.560299
0.555113
0.550013
0.544998
0.540066
0.535214
0.53044
0.525744
0.521122
0.516573
0.512096
0.507689
0.503349
0.499077
0.494869
0.490725
0.486644
0.482623
0.478662
0.474759
0.470913
0.467123
0.463387
0.459705
0.456075
0.452497
0.448968
0.445489
0.442059
0.438676
0.435339
0.432048
0.428802
0.425601
0.422443
0.419329
0.416258
0.413229
0.410242
0.407298
0.404396
0.401537
0.398721
0.395949
0.393222
0.390542
0.387911
0.385332
0.382808
0.380344
0.377946
0.37562
0.373378
0.371232
0.369198
0.3673
0.36557
0.364054
0.362822
0.361979
0.361689
0.362017
0.362923
0.364662
0.367671
0.623748
0.617447
0.611261
0.605187
0.599222
0.593364
0.587609
0.581955
0.5764
0.57094
0.565574
0.560299
0.555113
0.550013
0.544998
0.540065
0.535213
0.53044
0.525743
0.521121
0.516572
0.512095
0.507687
0.503347
0.499075
0.494867
0.490723
0.486641
0.48262
0.478658
0.474755
0.470909
0.467118
0.463382
0.459699
0.456069
0.45249
0.448961
0.445482
0.44205
0.438666
0.435329
0.432037
0.428791
0.425589
0.422431
0.419315
0.416243
0.413214
0.410226
0.407281
0.404379
0.401519
0.398703
0.395931
0.393205
0.390525
0.387895
0.385317
0.382795
0.380333
0.377937
0.375613
0.373372
0.371225
0.369186
0.367276
0.365522
0.363962
0.362651
0.361673
0.361158
0.361277
0.361891
0.363236
0.365729
0.623748
0.617447
0.611261
0.605187
0.599222
0.593364
0.587609
0.581955
0.5764
0.57094
0.565574
0.560299
0.555112
0.550013
0.544998
0.540065
0.535213
0.530439
0.525742
0.52112
0.516571
0.512093
0.507685
0.503346
0.499073
0.494865
0.49072
0.486638
0.482617
0.478655
0.474751
0.470905
0.467114
0.463377
0.459694
0.456063
0.452484
0.448954
0.445474
0.442042
0.438658
0.43532
0.432027
0.42878
0.425577
0.422418
0.419302
0.41623
0.413199
0.410211
0.407266
0.404363
0.401503
0.398686
0.395914
0.393188
0.390509
0.38788
0.385303
0.382782
0.380321
0.377925
0.375602
0.37336
0.371208
0.369159
0.367229
0.365439
0.363814
0.362393
0.361231
0.360415
0.360084
0.360309
0.361097
0.362807
0.623748
0.617447
0.611261
0.605187
0.599222
0.593364
0.587609
0.581955
0.5764
0.57094
0.565574
0.560298
0.555112
0.550012
0.544997
0.540064
0.535212
0.530438
0.525741
0.521119
0.51657
0.512092
0.507684
0.503344
0.499071
0.494863
0.490718
0.486636
0.482614
0.478652
0.474748
0.470901
0.467109
0.463373
0.459689
0.456058
0.452478
0.448948
0.445467
0.442034
0.438649
0.435311
0.432018
0.42877
0.425566
0.422407
0.41929
0.416217
0.413186
0.410197
0.407251
0.404348
0.401487
0.39867
0.395898
0.393172
0.390494
0.387865
0.385289
0.382768
0.380308
0.377913
0.375589
0.373343
0.371184
0.36912
0.367165
0.365329
0.363628
0.362082
0.360717
0.359577
0.358738
0.35834
0.35852
0.35936
0.623748
0.617447
0.61126
0.605187
0.599222
0.593364
0.587609
0.581955
0.5764
0.57094
0.565574
0.560298
0.555112
0.550012
0.544997
0.540064
0.535211
0.530438
0.52574
0.521118
0.516569
0.512091
0.507683
0.503343
0.499069
0.494861
0.490716
0.486633
0.482611
0.478649
0.474745
0.470897
0.467105
0.463368
0.459684
0.456052
0.452472
0.448942
0.44546
0.442027
0.438641
0.435302
0.432009
0.42876
0.425556
0.422396
0.419279
0.416204
0.413173
0.410184
0.407237
0.404333
0.401472
0.398655
0.395883
0.393157
0.390479
0.387851
0.385275
0.382755
0.380295
0.377899
0.375573
0.373323
0.371154
0.369074
0.36709
0.365206
0.363427
0.361756
0.360196
0.358754
0.357458
0.356381
0.355709
0.355809
0.623748
0.617447
0.61126
0.605187
0.599222
0.593364
0.587609
0.581955
0.576399
0.57094
0.565573
0.560298
0.555112
0.550012
0.544996
0.540063
0.535211
0.530437
0.52574
0.521117
0.516568
0.51209
0.507681
0.503341
0.499068
0.494859
0.490714
0.486631
0.482609
0.478646
0.474742
0.470894
0.467102
0.463364
0.45968
0.456048
0.452467
0.448936
0.445454
0.44202
0.438634
0.435294
0.432
0.428751
0.425546
0.422385
0.419268
0.416193
0.413161
0.410171
0.407224
0.40432
0.401459
0.398642
0.395869
0.393143
0.390465
0.387837
0.385262
0.382742
0.380282
0.377885
0.375556
0.3733
0.371122
0.369025
0.367011
0.365081
0.363229
0.361445
0.359716
0.358024
0.356368
0.35478
0.353395
0.352538
0.623748
0.617447
0.61126
0.605187
0.599222
0.593364
0.587609
0.581955
0.576399
0.57094
0.565573
0.560298
0.555111
0.550011
0.544996
0.540063
0.53521
0.530436
0.525739
0.521116
0.516567
0.512089
0.50768
0.50334
0.499066
0.494857
0.490712
0.486629
0.482607
0.478644
0.474739
0.470891
0.467098
0.46336
0.459676
0.456043
0.452462
0.44893
0.445448
0.442014
0.438628
0.435287
0.431993
0.428743
0.425538
0.422376
0.419258
0.416182
0.41315
0.41016
0.407212
0.404307
0.401446
0.398629
0.395856
0.39313
0.390452
0.387824
0.385249
0.382729
0.380269
0.377871
0.375539
0.373278
0.37109
0.368977
0.366937
0.364965
0.363049
0.361172
0.359308
0.357429
0.355519
0.353597
0.351775
0.350334
0.623748
0.617447
0.61126
0.605187
0.599222
0.593364
0.587609
0.581955
0.576399
0.57094
0.565573
0.560298
0.555111
0.550011
0.544996
0.540063
0.53521
0.530436
0.525738
0.521116
0.516566
0.512088
0.507679
0.503339
0.499065
0.494856
0.49071
0.486627
0.482604
0.478641
0.474736
0.470888
0.467095
0.463357
0.459672
0.456039
0.452457
0.448926
0.445443
0.442009
0.438622
0.435281
0.431986
0.428736
0.42553
0.422368
0.419249
0.416173
0.41314
0.410149
0.407201
0.404296
0.401435
0.398617
0.395845
0.393119
0.390441
0.387813
0.385238
0.382718
0.380257
0.377858
0.375523
0.373257
0.37106
0.368933
0.36687
0.364863
0.362898
0.360949
0.358988
0.356984
0.354916
0.352808
0.350773
0.349077
0.623748
0.617447
0.61126
0.605187
0.599222
0.593364
0.587609
0.581955
0.576399
0.570939
0.565573
0.560298
0.555111
0.550011
0.544996
0.540062
0.53521
0.530435
0.525738
0.521115
0.516565
0.512087
0.507678
0.503338
0.499064
0.494854
0.490709
0.486625
0.482603
0.478639
0.474734
0.470885
0.467093
0.463354
0.459669
0.456036
0.452454
0.448921
0.445439
0.442004
0.438616
0.435275
0.43198
0.428729
0.425523
0.42236
0.419241
0.416165
0.413131
0.41014
0.407192
0.404287
0.401425
0.398607
0.395834
0.393108
0.39043
0.387803
0.385228
0.382708
0.380246
0.377846
0.375509
0.373238
0.371034
0.368895
0.366814
0.364781
0.362779
0.360781
0.358759
0.356683
0.35454
0.352368
0.350294
0.348589
0.623748
0.617447
0.61126
0.605187
0.599222
0.593364
0.587609
0.581955
0.576399
0.570939
0.565573
0.560298
0.555111
0.550011
0.544995
0.540062
0.535209
0.530435
0.525737
0.521115
0.516565
0.512086
0.507678
0.503337
0.499063
0.494853
0.490708
0.486624
0.482601
0.478638
0.474732
0.470883
0.46709
0.463351
0.459666
0.456032
0.45245
0.448918
0.445435
0.441999
0.438612
0.43527
0.431974
0.428723
0.425517
0.422354
0.419234
0.416157
0.413124
0.410132
0.407184
0.404278
0.401416
0.398598
0.395825
0.393099
0.390421
0.387794
0.385219
0.382699
0.380237
0.377835
0.375496
0.373222
0.371012
0.368864
0.36677
0.364719
0.362692
0.360666
0.358613
0.356511
0.354362
0.352225
0.350251
0.348736
0.623748
0.617447
0.61126
0.605187
0.599222
0.593364
0.587609
0.581955
0.576399
0.570939
0.565573
0.560297
0.555111
0.550011
0.544995
0.540062
0.535209
0.530435
0.525737
0.521114
0.516564
0.512086
0.507677
0.503336
0.499062
0.494852
0.490707
0.486623
0.4826
0.478636
0.47473
0.470881
0.467088
0.463349
0.459663
0.45603
0.452447
0.448915
0.445431
0.441996
0.438608
0.435266
0.43197
0.428718
0.425511
0.422348
0.419228
0.416151
0.413117
0.410126
0.407177
0.404271
0.401409
0.398591
0.395818
0.393092
0.390414
0.387786
0.385211
0.382691
0.380229
0.377826
0.375486
0.373209
0.370995
0.368841
0.366738
0.364676
0.362636
0.360597
0.358538
0.356446
0.354345
0.352318
0.350558
0.349399
0.623748
0.617447
0.61126
0.605187
0.599222
0.593364
0.587609
0.581955
0.576399
0.570939
0.565573
0.560297
0.555111
0.550011
0.544995
0.540062
0.535209
0.530435
0.525737
0.521114
0.516564
0.512085
0.507676
0.503335
0.499061
0.494852
0.490706
0.486622
0.482599
0.478635
0.474729
0.47088
0.467087
0.463347
0.459662
0.456028
0.452445
0.448912
0.445429
0.441993
0.438604
0.435262
0.431966
0.428715
0.425507
0.422344
0.419224
0.416146
0.413112
0.41012
0.407171
0.404265
0.401403
0.398585
0.395812
0.393086
0.390408
0.38778
0.385205
0.382685
0.380222
0.377819
0.375478
0.3732
0.370983
0.368824
0.366716
0.364648
0.362603
0.360563
0.358514
0.356458
0.354437
0.623748
0.617447
0.61126
0.605187
0.599222
0.593364
0.587609
0.581955
0.576399
0.570939
0.565573
0.560297
0.555111
0.55001
0.544995
0.540062
0.535209
0.530434
0.525737
0.521114
0.516564
0.512085
0.507676
0.503335
0.499061
0.494851
0.490705
0.486621
0.482598
0.478634
0.474728
0.470879
0.467085
0.463346
0.45966
0.456026
0.452443
0.44891
0.445427
0.441991
0.438602
0.43526
0.431963
0.428712
0.425504
0.422341
0.41922
0.416143
0.413108
0.410116
0.407167
0.404261
0.401398
0.39858
0.395807
0.393081
0.390403
0.387776
0.385201
0.38268
0.380218
0.377814
0.375473
0.373193
0.370974
0.368813
0.366703
0.364632
0.362588
0.360554
0.358524
0.623748
0.617447
0.61126
0.605187
0.599222
0.593363
0.587609
0.581955
0.576399
0.570939
0.565573
0.560297
0.555111
0.55001
0.544995
0.540061
0.535209
0.530434
0.525736
0.521113
0.516563
0.512085
0.507676
0.503335
0.49906
0.494851
0.490705
0.486621
0.482597
0.478633
0.474727
0.470878
0.467085
0.463345
0.459659
0.456025
0.452442
0.448909
0.445425
0.441989
0.438601
0.435258
0.431962
0.42871
0.425502
0.422338
0.419218
0.41614
0.413106
0.410113
0.407164
0.404258
0.401395
0.398577
0.395804
0.393078
0.3904
0.387773
0.385198
0.382677
0.380214
0.377811
0.375468
0.373188
0.370968
0.368806
0.366694
0.364623
0.362579
0.360552
0.35854
0.623748
0.617447
0.61126
0.605187
0.599222
0.593363
0.587609
0.581955
0.576399
0.570939
0.565573
0.560297
0.555111
0.55001
0.544995
0.540061
0.535209
0.530434
0.525736
0.521113
0.516563
0.512085
0.507676
0.503335
0.49906
0.49485
0.490704
0.48662
0.482597
0.478633
0.474727
0.470878
0.467084
0.463345
0.459659
0.456025
0.452442
0.448909
0.445425
0.441989
0.4386
0.435257
0.431961
0.428709
0.425501
0.422337
0.419217
0.416139
0.413104
0.410112
0.407163
0.404257
0.401394
0.398576
0.395803
0.393077
0.390399
0.387772
0.385196
0.382676
0.380213
0.37781
0.375467
0.373187
0.370967
0.368804
0.366693
0.364622
0.362581
0.360559
0.358559
0.623748
0.617447
0.61126
0.605187
0.599222
0.593363
0.587609
0.581955
0.576399
0.570939
0.565573
0.560297
0.555111
0.55001
0.544995
0.540061
0.535209
0.530434
0.525736
0.521113
0.516563
0.512085
0.507676
0.503335
0.49906
0.49485
0.490704
0.48662
0.482597
0.478633
0.474727
0.470878
0.467084
0.463345
0.459659
0.456025
0.452442
0.448909
0.445425
0.441989
0.4386
0.435258
0.431961
0.428709
0.425501
0.422337
0.419217
0.416139
0.413104
0.410112
0.407163
0.404257
0.401394
0.398576
0.395803
0.393077
0.390399
0.387772
0.385197
0.382676
0.380214
0.37781
0.375468
0.373187
0.370967
0.368805
0.366693
0.364622
0.362581
0.360559
0.358558
0.623748
0.617447
0.61126
0.605187
0.599222
0.593363
0.587609
0.581955
0.576399
0.570939
0.565573
0.560297
0.555111
0.55001
0.544995
0.540061
0.535209
0.530434
0.525736
0.521113
0.516563
0.512085
0.507676
0.503335
0.49906
0.494851
0.490705
0.486621
0.482597
0.478633
0.474728
0.470878
0.467085
0.463345
0.459659
0.456025
0.452442
0.448909
0.445425
0.441989
0.438601
0.435258
0.431962
0.42871
0.425502
0.422339
0.419218
0.416141
0.413106
0.410114
0.407165
0.404258
0.401396
0.398578
0.395805
0.393079
0.390401
0.387773
0.385198
0.382678
0.380215
0.377812
0.375469
0.373189
0.370969
0.368807
0.366695
0.364623
0.623748
0.617447
0.61126
0.605187
0.599222
0.593364
0.587609
0.581955
0.576399
0.570939
0.565573
0.560297
0.555111
0.55001
0.544995
0.540062
0.535209
0.530434
0.525737
0.521114
0.516564
0.512085
0.507676
0.503335
0.499061
0.494851
0.490705
0.486621
0.482598
0.478634
0.474728
0.470879
0.467086
0.463346
0.45966
0.456026
0.452444
0.448911
0.445427
0.441991
0.438602
0.43526
0.431964
0.428712
0.425505
0.422341
0.419221
0.416143
0.413109
0.410117
0.407168
0.404262
0.401399
0.398581
0.395808
0.393082
0.390404
0.387777
0.385202
0.382682
0.380219
0.377816
0.375474
0.373194
0.370976
0.368815
0.366704
0.623748
0.617447
0.61126
0.605187
0.599222
0.593364
0.587609
0.581955
0.576399
0.570939
0.565573
0.560297
0.555111
0.550011
0.544995
0.540062
0.535209
0.530435
0.525737
0.521114
0.516564
0.512085
0.507676
0.503336
0.499061
0.494852
0.490706
0.486622
0.482599
0.478635
0.474729
0.47088
0.467087
0.463348
0.459662
0.456028
0.452445
0.448913
0.445429
0.441993
0.438605
0.435263
0.431967
0.428715
0.425508
0.422345
0.419224
0.416147
0.413113