/*--------------------------------*- C++ -*----------------------------------*\
  =========                 |
  \\      /  F ield         | OpenFOAM: The Open Source CFD Toolbox
   \\    /   O peration     | Website:  https://openfoam.org
    \\  /    A nd           | Version:  13
     \\/     M anipulation  |
\*---------------------------------------------------------------------------*/
FoamFile
{
    format      ascii;
    class       volScalarField;
    location    "600";
    object      p;
}
// * * * * * * * * * * * * * * * * * * * * * * * * * * * * * * * * * * * * * //

dimensions      [0 2 -2 0 0 0 0];

internalField   nonuniform List<scalar> 
172290
(
15.0961
15.0964
15.0971
15.0982
15.0996
15.1014
15.1036
15.1061
15.1089
15.112
15.1155
15.1194
15.1235
15.128
15.1327
15.1377
15.1431
15.1486
15.1544
15.1604
15.1665
15.1728
15.1792
15.1857
15.1922
15.1986
15.205
15.2112
15.2171
15.2227
15.228
15.2327
15.2368
15.2401
15.2425
15.2438
15.244
15.2426
15.2397
15.2349
15.2279
15.2186
15.2065
15.1913
15.1727
15.1502
15.1234
15.0917
15.0547
15.0118
14.9624
14.9058
14.8412
14.768
14.6852
14.5921
14.4877
14.371
14.2411
14.0968
13.9372
13.7612
13.5676
13.3555
13.1239
12.8717
12.5981
12.3025
11.9841
11.6429
11.2786
10.8915
10.4823
10.0519
9.60162
9.1331
8.64843
15.0965
15.0967
15.0974
15.0985
15.1
15.1018
15.104
15.1065
15.1093
15.1125
15.116
15.1199
15.124
15.1285
15.1333
15.1384
15.1438
15.1494
15.1552
15.1613
15.1675
15.1739
15.1803
15.1869
15.1935
15.2
15.2065
15.2128
15.2189
15.2247
15.2301
15.235
15.2393
15.2428
15.2455
15.2471
15.2474
15.2464
15.2438
15.2393
15.2327
15.2238
15.2121
15.1974
15.1792
15.1573
15.131
15.1
15.0636
15.0214
14.9727
14.9168
14.853
14.7806
14.6987
14.6064
14.5029
14.3871
14.258
14.1146
13.9558
13.7806
13.5877
13.3762
13.145
12.8931
12.6195
12.3237
12.0049
11.6628
11.2974
10.9088
10.4976
10.0648
9.61178
9.14016
8.65209
15.0971
15.0974
15.0981
15.0992
15.1007
15.1025
15.1047
15.1073
15.1101
15.1134
15.1169
15.1209
15.1251
15.1297
15.1345
15.1397
15.1452
15.1509
15.1568
15.163
15.1694
15.1759
15.1826
15.1893
15.1961
15.2029
15.2096
15.2162
15.2226
15.2286
15.2344
15.2396
15.2443
15.2483
15.2514
15.2535
15.2544
15.2539
15.2519
15.2481
15.2423
15.2341
15.2233
15.2095
15.1923
15.1714
15.1463
15.1164
15.0813
15.0405
14.9932
14.9388
14.8766
14.8058
14.7256
14.6351
14.5334
14.4194
14.2922
14.1506
13.9936
13.8199
13.6286
13.4183
13.1881
12.9369
12.6636
12.3675
12.048
11.7044
11.3368
10.9453
10.5304
10.093
9.63459
9.15682
8.66196
15.0981
15.0984
15.0991
15.1003
15.1018
15.1036
15.1059
15.1085
15.1114
15.1147
15.1183
15.1223
15.1267
15.1314
15.1364
15.1417
15.1473
15.1531
15.1593
15.1656
15.1722
15.179
15.1859
15.1929
15.2
15.2071
15.2142
15.2212
15.228
15.2345
15.2407
15.2465
15.2518
15.2564
15.2602
15.263
15.2648
15.2652
15.2641
15.2613
15.2566
15.2496
15.24
15.2276
15.2119
15.1926
15.1691
15.1411
15.1079
15.0691
15.0239
14.9718
14.912
14.8437
14.7661
14.6783
14.5793
14.4681
14.3437
14.2048
14.0505
13.8794
13.6903
13.4821
13.2535
13.0034
12.7306
12.4343
12.1136
11.768
11.3972
11.0012
10.5807
10.1363
9.6696
9.1824
8.67709
15.0994
15.0997
15.1005
15.1016
15.1032
15.1051
15.1074
15.11
15.1131
15.1165
15.1202
15.1243
15.1288
15.1336
15.1388
15.1442
15.15
15.1561
15.1625
15.1691
15.176
15.1831
15.1903
15.1977
15.2052
15.2127
15.2203
15.2278
15.2351
15.2423
15.2492
15.2557
15.2617
15.2671
15.2719
15.2757
15.2785
15.2801
15.2803
15.2789
15.2756
15.2701
15.2623
15.2517
15.2379
15.2207
15.1995
15.1738
15.1432
15.1071
15.0648
15.0158
14.9591
14.8942
14.8201
14.7359
14.6406
14.5332
14.4126
14.2775
14.1268
13.9592
13.7734
13.568
13.3418
13.0933
12.8214
12.5249
12.2029
11.8547
11.4797
11.078
10.6498
10.196
9.71807
9.21795
8.69824
15.1011
15.1014
15.1021
15.1033
15.1049
15.1069
15.1093
15.112
15.1151
15.1186
15.1225
15.1268
15.1314
15.1364
15.1417
15.1474
15.1535
15.1598
15.1665
15.1734
15.1807
15.1881
15.1958
15.2036
15.2116
15.2197
15.2278
15.2359
15.244
15.2519
15.2596
15.267
15.274
15.2805
15.2863
15.2914
15.2956
15.2986
15.3004
15.3006
15.2991
15.2957
15.2899
15.2816
15.2703
15.2556
15.2372
15.2146
15.1872
15.1544
15.1158
15.0706
15.018
14.9573
14.8876
14.8079
14.7174
14.6148
14.499
14.3688
14.2229
14.0599
13.8783
13.6767
13.4537
13.2076
12.937
12.6407
12.3173
11.966
11.586
11.177
10.7393
10.2735
9.78111
9.26425
8.72576
15.103
15.1033
15.1041
15.1054
15.107
15.109
15.1115
15.1143
15.1176
15.1212
15.1252
15.1297
15.1345
15.1397
15.1453
15.1512
15.1576
15.1642
15.1712
15.1786
15.1862
15.1941
15.2023
15.2106
15.2192
15.2279
15.2368
15.2456
15.2545
15.2633
15.272
15.2805
15.2886
15.2964
15.3036
15.3101
15.3158
15.3206
15.3242
15.3265
15.3272
15.326
15.3228
15.3172
15.3088
15.2973
15.2822
15.2632
15.2396
15.211
15.1767
15.1361
15.0884
15.0328
14.9685
14.8944
14.8096
14.713
14.6032
14.4791
14.3391
14.1818
14.0057
13.809
13.5902
13.3474
13.0789
12.7832
12.4586
12.1039
11.7181
11.3006
10.8513
10.3708
9.86056
9.32273
8.76051
15.1053
15.1056
15.1064
15.1077
15.1094
15.1115
15.1141
15.117
15.1204
15.1242
15.1284
15.133
15.138
15.1435
15.1493
15.1556
15.1623
15.1693
15.1767
15.1845
15.1926
15.201
15.2097
15.2187
15.228
15.2374
15.2471
15.2568
15.2667
15.2765
15.2863
15.296
15.3055
15.3147
15.3234
15.3317
15.3392
15.346
15.3517
15.3563
15.3595
15.3611
15.3608
15.3583
15.3533
15.3455
15.3343
15.3195
15.3004
15.2766
15.2474
15.2122
15.1703
15.1207
15.0628
14.9954
14.9174
14.8279
14.7253
14.6085
14.4758
14.3256
14.1562
13.9658
13.7524
13.5141
13.2487
12.9543
12.6289
12.2709
11.8787
11.4515
10.9887
10.4907
9.9588
9.39529
8.8037
15.1078
15.1081
15.109
15.1103
15.1121
15.1143
15.1169
15.12
15.1235
15.1275
15.1319
15.1367
15.142
15.1478
15.1539
15.1605
15.1675
15.175
15.1828
15.1911
15.1997
15.2088
15.2181
15.2278
15.2379
15.2482
15.2587
15.2694
15.2804
15.2914
15.3025
15.3135
15.3245
15.3353
15.3458
15.356
15.3656
15.3746
15.3828
15.3901
15.3961
15.4008
15.4038
15.4049
15.4038
15.4
15.3934
15.3833
15.3694
15.3511
15.3278
15.2988
15.2634
15.2209
15.1703
15.1106
15.0408
14.9595
14.8655
14.7574
14.6334
14.4918
14.3308
14.1481
13.9418
13.7093
13.4483
13.1563
12.8309
12.4699
12.0712
11.6332
11.1551
10.6367
10.0791
9.4846
8.85713
15.1106
15.1109
15.1118
15.1132
15.115
15.1174
15.1201
15.1233
15.127
15.1312
15.1358
15.1409
15.1465
15.1525
15.159
15.166
15.1734
15.1813
15.1896
15.1984
15.2077
15.2174
15.2274
15.2379
15.2488
15.26
15.2716
15.2834
15.2955
15.3078
15.3203
15.3329
15.3456
15.3582
15.3707
15.3829
15.3949
15.4064
15.4173
15.4275
15.4367
15.4448
15.4515
15.4566
15.4598
15.4608
15.4591
15.4544
15.4463
15.4341
15.4174
15.3955
15.3677
15.3331
15.2909
15.2401
15.1795
15.1079
15.024
14.926
14.8123
14.6811
14.5301
14.3571
14.1596
13.9348
13.6799
13.3919
13.0678
12.7046
12.2995
11.8502
11.3551
10.8134
10.2257
9.59434
8.92343
15.1136
15.1139
15.1149
15.1163
15.1183
15.1207
15.1236
15.127
15.1308
15.1352
15.1401
15.1454
15.1513
15.1576
15.1645
15.1719
15.1798
15.1882
15.197
15.2064
15.2163
15.2267
15.2376
15.2489
15.2607
15.2729
15.2856
15.2986
15.312
15.3258
15.3398
15.3541
15.3685
15.3831
15.3978
15.4124
15.4269
15.4411
15.455
15.4684
15.4811
15.493
15.5038
15.5133
15.5212
15.5273
15.5312
15.5325
15.5308
15.5255
15.5162
15.5022
15.4828
15.4571
15.4245
15.3837
15.3337
15.2731
15.2006
15.1145
15.013
14.894
14.7551
14.5939
14.4075
14.1927
13.9461
13.6642
13.3432
12.9792
12.5685
12.1078
11.5944
11.0267
10.4044
9.72954
9.00643
15.1168
15.1172
15.1182
15.1197
15.1218
15.1243
15.1273
15.1309
15.1349
15.1395
15.1446
15.1503
15.1565
15.1632
15.1704
15.1783
15.1866
15.1955
15.205
15.2151
15.2256
15.2368
15.2485
15.2607
15.2735
15.2868
15.3007
15.315
15.3298
15.3451
15.3608
15.3769
15.3933
15.41
15.427
15.4441
15.4614
15.4786
15.4957
15.5126
15.5291
15.5451
15.5603
15.5746
15.5878
15.5995
15.6094
15.6173
15.6226
15.6249
15.6237
15.6184
15.6083
15.5926
15.5706
15.541
15.5029
15.4549
15.3956
15.3231
15.2356
15.131
15.0066
14.8596
14.6869
14.4849
14.2495
13.9765
13.6612
13.2987
12.8841
12.4127
11.8804
11.2842
10.6227
9.89712
9.11168
15.1203
15.1207
15.1217
15.1233
15.1255
15.1281
15.1313
15.135
15.1393
15.1441
15.1495
15.1554
15.162
15.1691
15.1768
15.185
15.1939
15.2034
15.2135
15.2242
15.2356
15.2475
15.2601
15.2733
15.2872
15.3017
15.3168
15.3325
15.3488
15.3657
15.3832
15.4012
15.4197
15.4387
15.4582
15.478
15.4982
15.5186
15.5392
15.5598
15.5804
15.6008
15.6208
15.6404
15.6591
15.6769
15.6934
15.7083
15.7213
15.7318
15.7395
15.7437
15.7439
15.7392
15.7289
15.7119
15.687
15.6531
15.6086
15.5517
15.4804
15.3925
15.2851
15.1553
14.9994
14.8135
14.5929
14.3324
14.0264
13.6688
13.2531
12.7729
12.2221
11.5957
10.8906
10.1065
9.24717
15.124
15.1244
15.1254
15.1271
15.1293
15.1321
15.1355
15.1394
15.1439
15.149
15.1546
15.1609
15.1678
15.1753
15.1834
15.1922
15.2016
15.2117
15.2225
15.2339
15.246
15.2589
15.2724
15.2866
15.3016
15.3173
15.3338
15.3509
15.3688
15.3875
15.4068
15.4269
15.4477
15.4691
15.4912
15.5139
15.5372
15.561
15.5853
15.6099
15.6348
15.6599
15.6851
15.7101
15.7349
15.7592
15.7827
15.8053
15.8264
15.8459
15.8632
15.8778
15.8891
15.8964
15.8989
15.8956
15.8855
15.8673
15.8394
15.8001
15.7473
15.6787
15.5913
15.4818
15.3464
15.1805
14.979
14.7356
14.4438
14.0957
13.6832
13.1976
12.6303
11.9735
11.2212
10.3708
9.42442
15.1278
15.1282
15.1293
15.1311
15.1334
15.1363
15.1399
15.144
15.1487
15.154
15.16
15.1666
15.1739
15.1818
15.1904
15.1997
15.2097
15.2204
15.2318
15.244
15.257
15.2707
15.2852
15.3006
15.3167
15.3337
15.3516
15.3703
15.3898
15.4103
15.4316
15.4538
15.477
15.501
15.5258
15.5516
15.5781
15.6055
15.6336
15.6625
15.692
15.7221
15.7527
15.7836
15.8147
15.8459
15.877
15.9076
15.9376
15.9666
15.9942
16.0199
16.0432
16.0635
16.08
16.0918
16.0978
16.0969
16.0875
16.0679
16.0361
15.9895
15.9252
15.8397
15.7289
15.5877
15.4104
15.1899
14.9183
14.5863
14.1833
13.698
13.1184
12.433
11.6315
10.7074
9.65992
15.1317
15.1322
15.1334
15.1352
15.1376
15.1407
15.1444
15.1487
15.1537
15.1593
15.1656
15.1725
15.1802
15.1885
15.1976
15.2074
15.218
15.2294
15.2416
15.2545
15.2683
15.283
15.2986
15.315
15.3324
15.3507
15.37
15.3903
15.4116
15.434
15.4574
15.4819
15.5074
15.5341
15.5619
15.5907
15.6207
15.6519
15.6841
15.7174
15.7517
15.787
15.8232
15.8604
15.8982
15.9367
15.9757
16.0149
16.0542
16.0933
16.1319
16.1695
16.2057
16.2399
16.2715
16.2995
16.3232
16.3412
16.3522
16.3545
16.346
16.3244
16.2866
16.2291
16.1474
16.0363
15.8893
15.6987
15.455
15.1474
14.7627
14.2864
13.7022
12.9932
12.1435
11.1402
9.97709
15.1358
15.1363
15.1375
15.1394
15.142
15.1452
15.1491
15.1536
15.1588
15.1647
15.1713
15.1786
15.1867
15.1955
15.2051
15.2154
15.2266
15.2387
15.2516
15.2654
15.2801
15.2957
15.3123
15.3299
15.3486
15.3683
15.3891
15.4111
15.4342
15.4585
15.484
15.5108
15.5389
15.5683
15.5991
15.6312
15.6648
15.6998
15.7363
15.7741
15.8135
15.8542
15.8964
15.94
15.9849
16.031
16.0783
16.1265
16.1757
16.2254
16.2756
16.3258
16.3757
16.4248
16.4724
16.518
16.5606
16.5991
16.6324
16.6587
16.6763
16.6826
16.6749
16.6495
16.6019
16.5268
16.4171
16.2644
16.0583
15.7857
15.4313
14.9764
14.3996
13.6774
12.7854
11.7012
10.4103
15.14
15.1405
15.1417
15.1437
15.1464
15.1498
15.1538
15.1586
15.164
15.1702
15.1771
15.1848
15.1933
15.2026
15.2127
15.2236
15.2354
15.2482
15.2618
15.2764
15.292
15.3087
15.3264
15.3452
15.3651
15.3863
15.4086
15.4323
15.4572
15.4835
15.5113
15.5405
15.5712
15.6034
15.6373
15.6728
15.7101
15.7491
15.7899
15.8325
15.8771
15.9235
15.9718
16.0221
16.0742
16.1283
16.1842
16.2419
16.3013
16.3623
16.4246
16.488
16.5523
16.6171
16.6819
16.7461
16.8089
16.8696
16.9268
16.9794
17.0254
17.0627
17.0886
17.0997
17.0915
17.0587
16.994
16.8887
16.7312
16.5071
16.1981
15.7818
15.2307
14.5127
13.5922
12.4349
11.0119
15.1442
15.1447
15.146
15.1481
15.151
15.1545
15.1587
15.1637
15.1694
15.1758
15.1831
15.1912
15.2
15.2098
15.2204
15.2319
15.2444
15.2578
15.2722
15.2877
15.3042
15.3219
15.3407
15.3607
15.382
15.4046
15.4285
15.4539
15.4807
15.5091
15.5391
15.5707
15.6041
15.6392
15.6763
15.7153
15.7563
15.7994
15.8447
15.8922
15.942
15.9943
16.0489
16.1061
16.1658
16.2281
16.2929
16.3604
16.4304
16.503
16.578
16.6552
16.7346
16.8159
16.8986
16.9824
17.0668
17.1509
17.2339
17.3146
17.3915
17.4627
17.5258
17.5776
17.6142
17.6301
17.6187
17.5709
17.4748
17.3148
17.0706
16.7155
16.2157
15.5293
14.6081
13.3999
11.8495
15.1485
15.149
15.1504
15.1526
15.1555
15.1592
15.1636
15.1688
15.1747
15.1815
15.1891
15.1975
15.2069
15.2171
15.2282
15.2403
15.2534
15.2676
15.2828
15.2991
15.3166
15.3352
15.3552
15.3764
15.399
15.4231
15.4486
15.4757
15.5045
15.5349
15.5672
15.6013
15.6374
15.6755
15.7158
15.7583
15.8031
15.8504
15.9003
15.9528
16.0081
16.0662
16.1273
16.1916
16.259
16.3297
16.4037
16.4812
16.5622
16.6468
16.7348
16.8264
16.9215
17.0198
17.1213
17.2257
17.3326
17.4415
17.5517
17.6624
17.7723
17.88
17.9835
18.0801
18.1664
18.2377
18.2878
18.3082
18.2872
18.2091
18.0521
17.7867
17.3728
16.7594
15.8837
14.665
13.0099
15.1527
15.1533
15.1547
15.157
15.1601
15.1639
15.1685
15.1739
15.1801
15.1872
15.1951
15.204
15.2137
15.2244
15.2361
15.2488
15.2625
15.2773
15.2933
15.3105
15.3289
15.3486
15.3697
15.3922
15.4162
15.4417
15.4688
15.4977
15.5284
15.5609
15.5955
15.6321
15.6709
15.712
15.7555
15.8016
15.8503
15.9019
15.9563
16.0139
16.0747
16.1389
16.2066
16.278
16.3532
16.4325
16.516
16.6037
16.6959
16.7927
16.8942
17.0005
17.1117
17.2277
17.3486
17.4743
17.6046
17.7393
17.878
18.0201
18.1649
18.3113
18.458
18.6029
18.7435
18.8761
18.9954
19.0942
19.1621
19.1845
19.1399
18.9977
18.7139
18.231
17.4673
16.3065
14.6071
15.157
15.1576
15.1591
15.1615
15.1646
15.1686
15.1734
15.179
15.1855
15.1929
15.2011
15.2103
15.2205
15.2317
15.2439
15.2572
15.2715
15.2871
15.3039
15.3219
15.3413
15.362
15.3842
15.4079
15.4332
15.4603
15.489
15.5197
15.5523
15.5869
15.6238
15.6629
15.7044
15.7485
15.7953
15.845
15.8976
15.9534
16.0125
16.0752
16.1415
16.2118
16.2861
16.3648
16.448
16.536
16.6289
16.7271
16.8307
16.9399
17.0551
17.1764
17.304
17.4381
17.5789
17.7264
17.8808
18.0421
18.2101
18.3848
18.5659
18.7528
18.9448
19.1408
19.3392
19.5377
19.7326
19.9187
20.088
20.2285
20.3214
20.3382
20.2371
19.9561
19.3953
18.4057
16.7866
15.1612
15.1618
15.1634
15.1658
15.1691
15.1733
15.1782
15.1841
15.1908
15.1985
15.2071
15.2167
15.2273
15.2389
15.2516
15.2655
15.2805
15.2968
15.3143
15.3332
15.3535
15.3753
15.3986
15.4235
15.4502
15.4787
15.5091
15.5415
15.576
15.6127
15.6519
15.6935
15.7378
15.7848
15.8349
15.8881
15.9446
16.0047
16.0685
16.1362
16.2081
16.2845
16.3655
16.4514
16.5426
16.6393
16.7418
16.8505
16.9655
17.0874
17.2164
17.3529
17.4971
17.6496
17.8105
17.9802
18.1591
18.3475
18.5455
18.7535
18.9717
19.2001
19.4387
19.6875
19.9459
20.2133
20.488
20.7676
21.0474
21.32
21.572
21.7816
21.9158
21.9153
21.6749
21.0268
15.1654
15.166
15.1676
15.1702
15.1736
15.1778
15.183
15.1891
15.1961
15.204
15.213
15.2229
15.2339
15.246
15.2593
15.2737
15.2894
15.3063
15.3246
15.3443
15.3656
15.3883
15.4128
15.4389
15.4669
15.4969
15.5288
15.563
15.5994
15.6382
15.6796
15.7237
15.7707
15.8207
15.874
15.9307
15.9911
16.0554
16.1238
16.1966
16.2741
16.3565
16.4441
16.5373
16.6365
16.7419
16.8539
16.9731
17.0997
17.2341
17.377
17.5287
17.6897
17.8605
18.0417
18.2338
18.4373
18.6529
18.8812
19.1228
19.3783
19.6485
19.9341
20.236
20.555
20.8921
21.2479
21.623
22.0173
22.4288
22.8527
23.2785
23.6877
24.0377
24.2433
24.1511
15.1694
15.1701
15.1717
15.1744
15.1779
15.1823
15.1877
15.1939
15.2012
15.2094
15.2187
15.229
15.2404
15.253
15.2667
15.2817
15.298
15.3156
15.3347
15.3552
15.3774
15.4011
15.4267
15.454
15.4833
15.5147
15.5482
15.584
15.6223
15.6632
15.7068
15.7533
15.803
15.8559
15.9124
15.9726
16.0368
16.1053
16.1782
16.256
16.3389
16.4273
16.5215
16.6219
16.7289
16.843
16.9645
17.0941
17.2321
17.3791
17.5357
17.7025
17.8802
18.0693
18.2707
18.4851
18.7132
18.9559
19.2142
19.489
19.7816
20.0931
20.4251
20.7792
21.1575
21.5625
21.9972
22.4651
22.9705
23.5178
24.1116
24.7557
25.4503
26.183
26.9145
27.5545
15.1733
15.174
15.1757
15.1785
15.1821
15.1867
15.1922
15.1987
15.2062
15.2147
15.2242
15.2349
15.2467
15.2597
15.274
15.2895
15.3064
15.3247
15.3445
15.3658
15.3888
15.4136
15.4402
15.4687
15.4992
15.532
15.567
15.6045
15.6446
15.6875
15.7333
15.7822
15.8344
15.8902
15.9498
16.0134
16.0814
16.1539
16.2313
16.314
16.4023
16.4965
16.5972
16.7047
16.8194
16.942
17.0728
17.2126
17.3618
17.5212
17.6914
17.8732
18.0673
18.2745
18.4958
18.732
18.9843
19.2537
19.5415
19.8489
20.1776
20.5292
20.9058
21.3099
21.7444
22.2132
22.721
23.2738
23.8795
24.5482
25.2922
26.1285
27.0757
28.1525
29.3738
30.7371
15.1771
15.1778
15.1796
15.1824
15.1862
15.1909
15.1965
15.2032
15.2109
15.2197
15.2296
15.2406
15.2528
15.2662
15.281
15.297
15.3145
15.3334
15.3539
15.3761
15.3999
15.4256
15.4532
15.4828
15.5146
15.5487
15.5852
15.6243
15.6662
15.711
15.7589
15.8101
15.8648
15.9234
15.986
16.0529
16.1245
16.201
16.2828
16.3702
16.4637
16.5637
16.6706
16.7849
16.9072
17.0381
17.178
17.3278
17.488
17.6595
17.843
18.0393
18.2494
18.4743
18.7151
18.9727
19.2486
19.5439
19.8602
20.1991
20.5624
20.9523
21.3711
21.8218
22.308
22.8343
23.4065
24.0321
24.7209
25.4862
26.3453
27.3216
28.4457
29.7543
31.2936
33.1169
15.1808
15.1815
15.1833
15.1862
15.19
15.1949
15.2007
15.2076
15.2155
15.2246
15.2347
15.2461
15.2586
15.2725
15.2876
15.3042
15.3222
15.3418
15.363
15.3858
15.4105
15.4371
15.4657
15.4964
15.5294
15.5647
15.6027
15.6433
15.6868
15.7335
15.7834
15.8368
15.894
15.9552
16.0208
16.0909
16.1659
16.2462
16.3322
16.4242
16.5227
16.6282
16.7412
16.8622
16.9918
17.1306
17.2794
17.4389
17.6097
17.7929
17.9892
18.1997
18.4254
18.6674
18.9269
19.2052
19.5037
19.824
20.1676
20.5365
20.9326
21.3583
21.8161
22.3094
22.8418
23.4181
24.0442
24.7278
25.4788
26.3106
27.2406
28.2918
29.4946
30.8852
32.5058
34.4033
15.1842
15.1849
15.1868
15.1897
15.1937
15.1987
15.2046
15.2117
15.2199
15.2291
15.2396
15.2512
15.2641
15.2784
15.294
15.311
15.3296
15.3497
15.3715
15.3951
15.4206
15.448
15.4775
15.5092
15.5433
15.5799
15.6192
15.6613
15.7065
15.7549
15.8067
15.8623
15.9218
15.9855
16.0538
16.1269
16.2053
16.2893
16.3792
16.4756
16.579
16.6898
16.8085
16.9359
17.0725
17.219
17.3762
17.5449
17.726
17.9204
18.129
18.3531
18.5936
18.852
19.1295
19.4276
19.7477
20.0917
20.4612
20.8582
21.2849
21.7437
22.2372
22.7685
23.3412
23.9595
24.6286
25.3551
26.1473
27.0156
27.9734
29.0375
30.2276
31.5647
33.0651
34.7316
15.1874
15.1881
15.1901
15.1931
15.1971
15.2022
15.2083
15.2156
15.2239
15.2334
15.2441
15.2561
15.2693
15.2839
15.2999
15.3174
15.3365
15.3572
15.3796
15.4038
15.43
15.4582
15.4886
15.5213
15.5565
15.5942
15.6348
15.6783
15.725
15.775
15.8287
15.8862
15.9479
16.014
16.0849
16.161
16.2425
16.3299
16.4236
16.5242
16.6321
16.7478
16.8721
17.0055
17.1487
17.3025
17.4678
17.6453
17.836
18.041
18.2614
18.4983
18.753
19.0268
19.3214
19.638
19.9786
20.3448
20.7385
21.1618
21.6167
22.1058
22.6314
23.1962
23.8033
24.4561
25.1582
25.9142
26.7291
27.6088
28.5599
29.5892
30.702
31.8987
33.1656
34.4625
15.1904
15.1911
15.1931
15.1962
15.2003
15.2055
15.2118
15.2192
15.2277
15.2374
15.2483
15.2606
15.2741
15.2891
15.3055
15.3234
15.3429
15.3641
15.3871
15.4119
15.4388
15.4678
15.499
15.5326
15.5687
15.6076
15.6493
15.6941
15.7422
15.7938
15.8491
15.9085
15.9722
16.0406
16.114
16.1927
16.2771
16.3677
16.465
16.5695
16.6816
16.8021
16.9315
17.0705
17.2199
17.3806
17.5533
17.7391
17.9389
18.1539
18.3852
18.6342
18.9021
19.1905
19.5009
19.835
20.1945
20.5814
20.9975
21.4449
21.9257
22.4421
22.9963
23.5904
24.2268
24.9074
25.6343
26.4091
27.2331
28.1066
29.0285
29.9948
30.9964
32.0148
33.0139
33.9274
15.1931
15.1939
15.1959
15.199
15.2032
15.2085
15.2149
15.2224
15.2311
15.2411
15.2522
15.2647
15.2785
15.2938
15.3105
15.3288
15.3488
15.3704
15.3939
15.4194
15.4469
15.4765
15.5085
15.5429
15.5799
15.6198
15.6626
15.7086
15.7579
15.811
15.8679
15.929
15.9946
16.065
16.1406
16.2218
16.309
16.4026
16.5031
16.6112
16.7272
16.852
16.9862
17.1304
17.2856
17.4526
17.6323
17.8257
18.0339
18.2581
18.4996
18.7597
19.0398
19.3417
19.6668
20.0169
20.3939
20.7997
21.2363
21.7057
22.2098
22.7507
23.3302
23.9499
24.6111
25.3144
26.0599
26.8463
27.6708
28.5283
29.4103
30.3029
31.1848
32.0231
32.7672
33.34
15.1955
15.1963
15.1984
15.2016
15.2058
15.2112
15.2177
15.2254
15.2343
15.2443
15.2557
15.2684
15.2825
15.298
15.3151
15.3337
15.3541
15.3762
15.4001
15.4261
15.4541
15.4844
15.5171
15.5522
15.5901
15.6308
15.6746
15.7217
15.7722
15.8266
15.8849
15.9476
16.0149
16.0872
16.1648
16.2482
16.3379
16.4342
16.5377
16.649
16.7687
16.8974
17.0359
17.1849
17.3453
17.518
17.704
17.9043
18.1202
18.3528
18.6036
18.8738
19.1651
19.4791
19.8176
20.1823
20.5752
20.9981
21.4532
21.9423
22.4673
23.03
23.6318
24.2738
24.9561
25.6783
26.4382
27.2321
28.0534
28.8919
29.7326
30.5537
31.3245
32.0017
32.5259
32.8167
15.1977
15.1985
15.2006
15.2038
15.2082
15.2136
15.2202
15.228
15.237
15.2472
15.2588
15.2717
15.286
15.3018
15.3191
15.3381
15.3588
15.3812
15.4056
15.432
15.4606
15.4914
15.5247
15.5605
15.5991
15.6406
15.6853
15.7333
15.7849
15.8404
15.9
15.9641
16.0329
16.1069
16.1863
16.2718
16.3636
16.4623
16.5685
16.6827
16.8055
16.9378
17.0801
17.2334
17.3985
17.5763
17.768
17.9745
18.1972
18.4374
18.6964
18.9757
19.277
19.6019
19.9522
20.3299
20.7369
21.1751
21.6465
22.1531
22.6966
23.2785
23.8999
24.5611
25.2618
26
26.772
27.5716
28.3892
29.2105
30.0152
30.7753
31.4529
31.9977
32.3446
32.4123
15.1996
15.2004
15.2025
15.2057
15.2102
15.2157
15.2224
15.2303
15.2394
15.2498
15.2615
15.2745
15.289
15.305
15.3226
15.3419
15.3628
15.3856
15.4104
15.4372
15.4662
15.4975
15.5313
15.5677
15.6069
15.6491
15.6946
15.7434
15.796
15.8524
15.9132
15.9784
16.0486
16.124
16.205
16.2922
16.3859
16.4868
16.5952
16.712
16.8376
16.9729
17.1186
17.2756
17.4447
17.6271
17.8237
18.0357
18.2643
18.5111
18.7773
19.0645
19.3745
19.7089
20.0696
20.4586
20.8779
21.3293
21.815
22.3368
22.8962
23.4947
24.133
24.811
25.5275
26.2796
27.0623
27.8676
28.6832
29.4917
30.269
30.9825
31.5888
32.0324
32.2443
32.1421
15.2011
15.2019
15.204
15.2074
15.2118
15.2174
15.2242
15.2321
15.2414
15.2518
15.2637
15.2769
15.2916
15.3078
15.3255
15.345
15.3662
15.3893
15.4144
15.4415
15.4709
15.5026
15.5368
15.5737
15.6135
15.6563
15.7024
15.7519
15.8052
15.8625
15.9242
15.9905
16.0617
16.1383
16.2208
16.3094
16.4047
16.5073
16.6178
16.7366
16.8647
17.0025
17.1511
17.3112
17.4838
17.6699
17.8707
18.0873
18.321
18.5733
18.8456
19.1395
19.4568
19.7993
20.1688
20.5673
20.997
21.4596
21.9573
22.4919
23.0649
23.6774
24.33
25.0221
25.7522
26.5166
27.3091
28.1203
28.9363
29.7375
30.4969
31.1785
31.7351
32.1074
32.2227
31.9961
15.2023
15.2032
15.2053
15.2086
15.2131
15.2188
15.2256
15.2336
15.2429
15.2535
15.2654
15.2788
15.2936
15.3099
15.3279
15.3475
15.3689
15.3922
15.4176
15.445
15.4746
15.5067
15.5413
15.5785
15.6187
15.662
15.7086
15.7587
15.8127
15.8707
15.9331
16.0002
16.0723
16.1499
16.2334
16.3232
16.4199
16.5239
16.6359
16.7565
16.8865
17.0264
17.1773
17.3399
17.5153
17.7045
17.9087
18.129
18.3668
18.6235
18.9008
19.2001
19.5234
19.8723
20.249
20.6552
21.0932
21.565
22.0724
22.6173
23.2012
23.8251
24.4893
25.1932
25.9346
26.7093
27.5106
28.3281
29.1466
29.9452
30.6949
31.3574
31.8832
15.2032
15.2041
15.2062
15.2096
15.2141
15.2198
15.2266
15.2347
15.2441
15.2547
15.2667
15.2802
15.2951
15.3115
15.3296
15.3494
15.3709
15.3944
15.4199
15.4475
15.4774
15.5097
15.5446
15.5821
15.6227
15.6663
15.7133
15.7638
15.8182
15.8767
15.9397
16.0074
16.0803
16.1586
16.2429
16.3336
16.4313
16.5364
16.6496
16.7715
16.9029
17.0444
17.197
17.3616
17.5391
17.7306
17.9373
18.1604
18.4013
18.6614
18.9424
19.2459
19.5736
19.9275
20.3094
20.7216
21.1659
21.6445
22.1592
22.712
23.3041
23.9367
24.6098
25.3226
26.0727
26.8557
27.6643
28.4876
29.3096
30.1086
30.8545
15.2038
15.2046
15.2068
15.2101
15.2147
15.2204
15.2273
15.2354
15.2448
15.2555
15.2676
15.281
15.296
15.3125
15.3307
15.3506
15.3722
15.3958
15.4214
15.4492
15.4792
15.5117
15.5467
15.5845
15.6252
15.6691
15.7163
15.7672
15.8219
15.8807
15.9441
16.0122
16.0855
16.1643
16.2492
16.3405
16.4388
16.5447
16.6586
16.7814
16.9137
17.0564
17.2101
17.376
17.5549
17.7479
17.9563
18.1813
18.4243
18.6867
18.9701
19.2763
19.6071
19.9642
20.3498
20.7658
21.2144
21.6975
22.2172
22.7752
23.3729
24.0112
24.6903
25.4092
26.1653
26.954
27.7679
28.5956
29.4209
30.2215
30.9667
15.204
15.2048
15.207
15.2104
15.2149
15.2206
15.2275
15.2357
15.2451
15.2558
15.2679
15.2814
15.2964
15.313
15.3312
15.3511
15.3728
15.3964
15.4221
15.4499
15.48
15.5126
15.5477
15.5856
15.6264
15.6704
15.7178
15.7687
15.8236
15.8826
15.9461
16.0145
16.088
16.1671
16.2522
16.3438
16.4424
16.5486
16.663
16.7862
16.919
17.0622
17.2165
17.383
17.5625
17.7564
17.9656
18.1915
18.4355
18.699
18.9837
19.2913
19.6235
19.9822
20.3695
20.7875
21.2381
21.7235
22.2456
22.8061
23.4065
24.0476
24.7296
25.4514
26.2104
27.0018
27.8182
28.6481
29.4751
30.2765
31.0216
15.2039
15.2047
15.2068
15.2102
15.2148
15.2205
15.2274
15.2355
15.2449
15.2557
15.2678
15.2813
15.2963
15.3128
15.331
15.3509
15.3726
15.3963
15.4219
15.4498
15.4799
15.5124
15.5475
15.5854
15.6262
15.6702
15.7175
15.7685
15.8234
15.8824
15.9459
16.0142
16.0877
16.1668
16.2519
16.3435
16.4421
16.5483
16.6627
16.7859
16.9187
17.0618
17.2161
17.3825
17.5621
17.7559
17.9651
18.191
18.435
18.6985
18.9832
19.2907
19.6229
19.9816
20.3689
20.7868
21.2374
21.7227
22.2447
22.8052
23.4056
24.0466
24.7285
25.4503
26.2092
27.0006
27.8169
28.6467
29.4735
30.2748
31.0197
15.2034
15.2042
15.2064
15.2097
15.2143
15.22
15.2269
15.235
15.2444
15.2551
15.2671
15.2806
15.2956
15.3121
15.3302
15.3501
15.3718
15.3953
15.4209
15.4487
15.4787
15.5111
15.5461
15.5839
15.6246
15.6685
15.7157
15.7665
15.8212
15.88
15.9433
16.0114
16.0847
16.1635
16.2483
16.3396
16.4379
16.5437
16.6577
16.7804
16.9127
17.0552
17.209
17.3747
17.5536
17.7466
17.9549
18.1799
18.4228
18.6851
18.9685
19.2746
19.6052
19.9623
20.3478
20.7637
21.2121
21.6952
22.2147
22.7725
23.3701
24.0082
24.6871
25.4058
26.1617
26.9501
27.7637
28.5911
15.2026
15.2034
15.2055
15.2089
15.2134
15.2191
15.2259
15.234
15.2434
15.254
15.266
15.2794
15.2943
15.3108
15.3288
15.3486
15.3701
15.3936
15.4191
15.4467
15.4765
15.5088
15.5436
15.5812
15.6216
15.6653
15.7122
15.7627
15.8171
15.8756
15.9385
16.0061
16.0789
16.1573
16.2415
16.3322
16.4298
16.5348
16.6479
16.7698
16.9011
17.0426
17.1951
17.3596
17.537
17.7284
17.935
18.158
18.3988
18.6588
18.9396
19.243
19.5705
19.9243
20.3061
20.718
21.1622
21.6405
22.1551
22.7076
23.2994
23.9317
24.6045
25.3169
26.0666
26.8492
27.6573
15.2014
15.2022
15.2044
15.2077
15.2122
15.2178
15.2246
15.2327
15.2419
15.2525
15.2644
15.2777
15.2925
15.3088
15.3268
15.3464
15.3678
15.3911
15.4164
15.4437
15.4734
15.5054
15.5399
15.5772
15.6173
15.6606
15.7071
15.7572
15.8111
15.869
15.9313
15.9984
16.0705
16.148
16.2314
16.3212
16.4178
16.5217
16.6336
16.7542
16.884
17.0238
17.1746
17.3371
17.5124
17.7015
17.9055
18.1256
18.3633
18.6199
18.8969
19.1961
19.5191
19.8679
20.2443
20.6503
21.088
21.5595
22.0666
22.6111
23.1947
23.8181
24.4819
25.1853
25.9261
26.7002
27.5009
15.1999
15.2007
15.2028
15.2062
15.2106
15.2162
15.2229
15.2309
15.2401
15.2506
15.2624
15.2756
15.2902
15.3064
15.3241
15.3436
15.3648
15.3878
15.4128
15.4399
15.4693
15.5009
15.5351
15.572
15.6117
15.6544
15.7004
15.7499
15.8032
15.8604
15.922
15.9882
16.0594
16.1359
16.2182
16.3068
16.402
16.5045
16.6148
16.7336
16.8615
16.9992
17.1476
17.3076
17.48
17.666
17.8666
18.083
18.3165
18.5686
18.8406
19.1343
19.4514
19.7936
20.1628
20.561
20.9903
21.4526
21.9499
22.484
23.0565
23.6685
24.3205
25.0121
25.7415
26.5051
27.2968
15.1981
15.1989
15.201
15.2043
15.2087
15.2142
15.2209
15.2287
15.2378
15.2482
15.2599
15.2729
15.2874
15.3034
15.3209
15.3401
15.361
15.3838
15.4085
15.4353
15.4642
15.4955
15.5292
15.5656
15.6047
15.6469
15.6922
15.741
15.7935
15.8499
15.9105
15.9756
16.0457
16.121
16.2019
16.289
16.3826
16.4833
16.5916
16.7082
16.8337
16.9689
17.1144
17.2712
17.4402
17.6223
17.8187
18.0304
18.2589
18.5053
18.7713
19.0582
19.3679
19.702
20.0624
20.451
20.8698
21.3208
21.806
22.3273
22.8862
23.4841
24.1217
24.7989
25.5147
26.266
27.0477
15.196
15.1968
15.1988
15.2021
15.2064
15.2119
15.2185
15.2262
15.2352
15.2454
15.2569
15.2698
15.2841
15.2998
15.3171
15.336
15.3567
15.3791
15.4034
15.4298
15.4583
15.489
15.5222
15.558
15.5965
15.638
15.6825
15.7305
15.782
15.8374
15.8969
15.9608
16.0295
16.1034
16.1827
16.268
16.3597
16.4582
16.5643
16.6783
16.801
16.933
17.0751
17.2282
17.3931
17.5707
17.7621
17.9684
18.1908
18.4307
18.6893
18.9683
19.2692
19.5938
19.9437
20.321
20.7275
21.1652
21.636
22.142
22.6849
23.2661
23.8867
24.5472
25.247
25.9842
15.1936
15.1944
15.1964
15.1996
15.2038
15.2092
15.2157
15.2233
15.2322
15.2422
15.2536
15.2662
15.2803
15.2958
15.3128
15.3314
15.3516
15.3737
15.3976
15.4235
15.4515
15.4817
15.5143
15.5493
15.5871
15.6277
15.6714
15.7184
15.7689
15.8231
15.8813
15.9438
16.011
16.0832
16.1607
16.2439
16.3334
16.4295
16.5329
16.6439
16.7634
16.8919
17.0302
17.1789
17.3391
17.5115
17.6973
17.8973
18.1129
18.3452
18.5955
18.8654
19.1563
19.4699
19.8079
20.1721
20.5644
20.9868
21.4412
21.9297
22.454
23.016
23.617
24.258
24.9395
15.1909
15.1916
15.1936
15.1967
15.201
15.2062
15.2126
15.2201
15.2288
15.2387
15.2498
15.2622
15.276
15.2912
15.3079
15.3261
15.346
15.3676
15.3911
15.4164
15.4439
15.4734
15.5053
15.5396
15.5766
15.6163
15.659
15.7049
15.7541
15.807
15.8638
15.9248
15.9903
16.0605
16.136
16.2169
16.3039
16.3973
16.4977
16.6055
16.7213
16.8459
16.9798
17.1238
17.2787
17.4453
17.6247
17.8177
18.0256
18.2495
18.4905
18.7502
19.03
19.3313
19.6559
20.0055
20.3819
20.7871
21.223
21.6917
22.195
22.7351
23.3138
23.9326
24.5928
15.1879
15.1886
15.1906
15.1937
15.1978
15.203
15.2092
15.2166
15.2251
15.2347
15.2456
15.2578
15.2713
15.2862
15.3025
15.3204
15.3399
15.361
15.3839
15.4087
15.4355
15.4643
15.4955
15.5289
15.565
15.6037
15.6453
15.69
15.7379
15.7894
15.8446
15.9038
15.9674
16.0356
16.1087
16.1872
16.2715
16.3619
16.459
16.5632
16.675
16.7952
16.9244
17.0631
17.2122
17.3725
17.5449
17.7303
17.9298
18.1443
18.3752
18.6237
18.8912
19.1791
19.4889
19.8224
20.1813
20.5675
20.9829
21.4296
21.9096
22.4251
22.9784
23.5716
24.207
15.1847
15.1854
15.1873
15.1903