/*--------------------------------*- C++ -*----------------------------------*\
  =========                 |
  \\      /  F ield         | OpenFOAM: The Open Source CFD Toolbox
   \\    /   O peration     | Website:  https://openfoam.org
    \\  /    A nd           | Version:  13
     \\/     M anipulation  |
\*---------------------------------------------------------------------------*/
FoamFile
{
    format      ascii;
    class       volScalarField;
    location    "500";
    object      k;
}
// * * * * * * * * * * * * * * * * * * * * * * * * * * * * * * * * * * * * * //

dimensions      [0 2 -2 0 0 0 0];

internalField   nonuniform List<scalar> 
173327
(
0.275145
0.273951
0.272772
0.271608
0.270459
0.269326
0.268208
0.267105
0.266016
0.264941
0.263879
0.26283
0.261793
0.260767
0.259751
0.258746
0.257749
0.256762
0.255782
0.254811
0.253846
0.252889
0.251939
0.250995
0.250057
0.249125
0.2482
0.24728
0.246367
0.245458
0.244556
0.243658
0.242767
0.241881
0.241
0.240125
0.239255
0.23839
0.23753
0.236675
0.235824
0.234978
0.234137
0.233299
0.232466
0.231637
0.230812
0.22999
0.229171
0.228356
0.227544
0.226735
0.225928
0.225124
0.224323
0.223523
0.222726
0.221931
0.221139
0.220348
0.21956
0.218773
0.217989
0.217207
0.216427
0.215649
0.214874
0.214101
0.213332
0.212565
0.211801
0.21104
0.210283
0.209529
0.208779
0.208034
0.207305
0.275213
0.274021
0.272844
0.271683
0.270537
0.269406
0.26829
0.267189
0.266103
0.26503
0.26397
0.262923
0.261887
0.260862
0.259848
0.258843
0.257847
0.25686
0.255881
0.25491
0.253945
0.252988
0.252037
0.251093
0.250154
0.249223
0.248297
0.247376
0.246462
0.245553
0.244649
0.243752
0.242859
0.241972
0.241091
0.240215
0.239344
0.238478
0.237617
0.236761
0.23591
0.235063
0.234221
0.233384
0.23255
0.23172
0.230895
0.230072
0.229254
0.228439
0.227627
0.226818
0.226012
0.225208
0.224407
0.223609
0.222812
0.222018
0.221227
0.220437
0.21965
0.218865
0.218083
0.217302
0.216524
0.215749
0.214976
0.214206
0.213438
0.212674
0.211912
0.211154
0.2104
0.209649
0.208902
0.20816
0.207437
0.275342
0.274155
0.272982
0.271825
0.270683
0.269557
0.268445
0.267348
0.266266
0.265196
0.26414
0.263096
0.262063
0.261041
0.26003
0.259027
0.258034
0.257049
0.256071
0.255101
0.254138
0.253182
0.252232
0.251289
0.250351
0.249419
0.248494
0.247574
0.246659
0.24575
0.244847
0.243949
0.243057
0.24217
0.241288
0.240412
0.23954
0.238674
0.237813
0.236957
0.236106
0.235259
0.234417
0.233579
0.232746
0.231916
0.231091
0.230269
0.22945
0.228635
0.227824
0.227015
0.226209
0.225406
0.224605
0.223807
0.223011
0.222218
0.221427
0.220638
0.219851
0.219066
0.218284
0.217504
0.216726
0.215951
0.215178
0.214408
0.213641
0.212877
0.212115
0.211358
0.210603
0.209852
0.209106
0.208364
0.20764
0.275547
0.274366
0.2732
0.272049
0.270913
0.269792
0.268686
0.267595
0.266517
0.265453
0.264402
0.263362
0.262333
0.261315
0.260307
0.259308
0.258317
0.257335
0.25636
0.255392
0.254431
0.253477
0.252528
0.251586
0.25065
0.249719
0.248794
0.247875
0.246961
0.246053
0.24515
0.244252
0.24336
0.242474
0.241592
0.240716
0.239845
0.238979
0.238119
0.237263
0.236412
0.235565
0.234723
0.233886
0.233052
0.232223
0.231398
0.230576
0.229758
0.228943
0.228131
0.227322
0.226517
0.225713
0.224913
0.224115
0.223319
0.222526
0.221734
0.220945
0.220158
0.219373
0.218591
0.21781
0.217032
0.216257
0.215484
0.214713
0.213945
0.21318
0.212419
0.21166
0.210905
0.210154
0.209406
0.208664
0.207939
0.275842
0.27467
0.273512
0.272369
0.271242
0.270129
0.26903
0.267946
0.266875
0.265817
0.264772
0.263738
0.262715
0.261702
0.260698
0.259703
0.258716
0.257737
0.256765
0.2558
0.254842
0.25389
0.252943
0.252003
0.251068
0.250139
0.249215
0.248297
0.247384
0.246477
0.245575
0.244678
0.243786
0.2429
0.242019
0.241144
0.240273
0.239408
0.238547
0.237691
0.236841
0.235994
0.235153
0.234315
0.233482
0.232653
0.231827
0.231006
0.230187
0.229372
0.228561
0.227752
0.226945
0.226142
0.225341
0.224542
0.223746
0.222952
0.22216
0.22137
0.220582
0.219797
0.219013
0.218232
0.217453
0.216676
0.215901
0.21513
0.214361
0.213595
0.212832
0.212072
0.211316
0.210563
0.209814
0.20907
0.208344
0.276249
0.275087
0.27394
0.272808
0.271691
0.270588
0.269499
0.268424
0.267361
0.266311
0.265273
0.264246
0.263229
0.262222
0.261224
0.260233
0.259251
0.258276
0.257308
0.256346
0.25539
0.25444
0.253496
0.252558
0.251624
0.250697
0.249774
0.248857
0.247945
0.247038
0.246137
0.245241
0.24435
0.243464
0.242584
0.241708
0.240838
0.239972
0.239112
0.238257
0.237406
0.23656
0.235718
0.23488
0.234047
0.233218
0.232392
0.23157
0.230751
0.229936
0.229123
0.228314
0.227507
0.226702
0.2259
0.225101
0.224303
0.223508
0.222715
0.221924
0.221135
0.220348
0.219562
0.218779
0.217999
0.21722
0.216444
0.21567
0.2149
0.214132
0.213367
0.212605
0.211847
0.211092
0.210341
0.209595
0.208867
0.276799
0.275652
0.274518
0.273399
0.272294
0.271203
0.270125
0.26906
0.268008
0.266967
0.265937
0.264918
0.263908
0.262908
0.261915
0.26093
0.259952
0.258981
0.258017
0.257058
0.256105
0.255157
0.254215
0.253278
0.252346
0.25142
0.250498
0.249582
0.24867
0.247764
0.246863
0.245967
0.245076
0.24419
0.243309
0.242434
0.241563
0.240698
0.239837
0.238981
0.23813
0.237283
0.236441
0.235603
0.234769
0.233939
0.233112
0.232289
0.23147
0.230653
0.22984
0.229029
0.228221
0.227415
0.226612
0.22581
0.225011
0.224214
0.223419
0.222626
0.221834
0.221045
0.220258
0.219472
0.218689
0.217908
0.217129
0.216353
0.21558
0.214809
0.214041
0.213277
0.212516
0.211759
0.211006
0.210257
0.209526
0.277542
0.27641
0.275292
0.274188
0.273097
0.27202
0.270955
0.269902
0.26886
0.267829
0.266809
0.265798
0.264796
0.263802
0.262815
0.261835
0.260862
0.259894
0.258932
0.257976
0.257025
0.256079
0.255138
0.254202
0.253271
0.252344
0.251423
0.250506
0.249594
0.248687
0.247786
0.246889
0.245997
0.24511
0.244229
0.243352
0.24248
0.241614
0.240752
0.239895
0.239042
0.238194
0.237351
0.236511
0.235676
0.234844
0.234016
0.233191
0.23237
0.231552
0.230736
0.229923
0.229113
0.228305
0.227499
0.226695
0.225893
0.225094
0.224296
0.223499
0.222705
0.221912
0.221122
0.220333
0.219547
0.218762
0.21798
0.2172
0.216423
0.215649
0.214878
0.21411
0.213345
0.212585
0.211828
0.211076
0.210342
0.278547
0.277434
0.276334
0.275246
0.274171
0.273108
0.272056
0.271015
0.269984
0.268964
0.267952
0.266949
0.265953
0.264964
0.263982
0.263006
0.262036
0.261071
0.260111
0.259156
0.258205
0.257259
0.256318
0.25538
0.254448
0.25352
0.252597
0.251678
0.250764
0.249855
0.248951
0.248051
0.247157
0.246268
0.245384
0.244505
0.24363
0.242761
0.241897
0.241037
0.240182
0.239331
0.238485
0.237643
0.236804
0.23597
0.235139
0.234311
0.233487
0.232665
0.231846
0.23103
0.230216
0.229404
0.228595
0.227787
0.226982
0.226178
0.225376
0.224575
0.223776
0.22298
0.222184
0.221391
0.2206
0.219811
0.219024
0.21824
0.217458
0.216679
0.215903
0.21513
0.214361
0.213596
0.212834
0.212078
0.21134
0.279916
0.278824
0.277742
0.276672
0.275612
0.274563
0.273523
0.272493
0.271472
0.270459
0.269454
0.268456
0.267465
0.266479
0.265499
0.264524
0.263554
0.262588
0.261627
0.260669
0.259716
0.258767
0.257821
0.25688
0.255944
0.255011
0.254083
0.253159
0.25224
0.251326
0.250417
0.249513
0.248613
0.247719
0.24683
0.245946
0.245066
0.244192
0.243323
0.242458
0.241598
0.240742
0.239891
0.239044
0.238201
0.237362
0.236526
0.235693
0.234864
0.234037
0.233213
0.232391
0.231572
0.230755
0.22994
0.229127
0.228315
0.227505
0.226697
0.225891
0.225086
0.224283
0.223482
0.222682
0.221885
0.221089
0.220296
0.219505
0.218717
0.217932
0.21715
0.216371
0.215596
0.214825
0.214057
0.213295
0.212552
0.281796
0.280724
0.27966
0.278605
0.277558
0.276519
0.275489
0.274466
0.273449
0.27244
0.271436
0.270438
0.269445
0.268457
0.267473
0.266493
0.265517
0.264545
0.263576
0.262611
0.26165
0.260692
0.259738
0.258788
0.257842
0.2569
0.255963
0.255029
0.254101
0.253177
0.252259
0.251345
0.250436
0.249533
0.248635
0.247742
0.246854
0.245971
0.245093
0.24422
0.243352
0.242489
0.241629
0.240774
0.239923
0.239076
0.238232
0.237392
0.236554
0.23572
0.234888
0.234058
0.233231
0.232405
0.231582
0.230761
0.229941
0.229123
0.228306
0.227491
0.226678
0.225867
0.225057
0.224249
0.223443
0.222639
0.221837
0.221038
0.220242
0.219449
0.218659
0.217872
0.217089
0.21631
0.215535
0.214766
0.214016
0.284391
0.283335
0.282284
0.281238
0.280198
0.279162
0.278132
0.277106
0.276085
0.275069
0.274057
0.273049
0.272044
0.271043
0.270046
0.269051
0.26806
0.267071
0.266086
0.265104
0.264125
0.26315
0.262179
0.261211
0.260248
0.259289
0.258335
0.257385
0.25644
0.2555
0.254566
0.253636
0.252713
0.251794
0.250881
0.249974
0.249072
0.248175
0.247284
0.246397
0.245516
0.24464
0.243768
0.2429
0.242037
0.241178
0.240322
0.239469
0.23862
0.237773
0.23693
0.236088
0.235249
0.234412
0.233577
0.232744
0.231913
0.231083
0.230255
0.229428
0.228603
0.22778
0.226959
0.22614
0.225323
0.224508
0.223695
0.222885
0.222078
0.221274
0.220474
0.219677
0.218884
0.218095
0.217311
0.216532
0.215773
0.287978
0.286929
0.28588
0.284831
0.283782
0.282734
0.281687
0.280642
0.2796
0.278559
0.277522
0.276486
0.275453
0.274422
0.273394
0.272368
0.271345
0.270325
0.269308
0.268295
0.267285
0.266279
0.265276
0.264279
0.263286
0.262298
0.261315
0.260338
0.259366
0.2584
0.25744
0.256486
0.255538
0.254596
0.253661
0.252731
0.251807
0.250889
0.249977
0.249071
0.24817
0.247274
0.246383
0.245497
0.244615
0.243737
0.242864
0.241994
0.241127
0.240263
0.239403
0.238544
0.237689
0.236835
0.235984
0.235135
0.234287
0.233441
0.232597
0.231755
0.230915
0.230077
0.22924
0.228406
0.227574
0.226745
0.225918
0.225094
0.224273
0.223456
0.222642
0.221832
0.221027
0.220225
0.219429
0.218639
0.217869
0.292921
0.291864
0.290797
0.289722
0.28864
0.287553
0.286463
0.285371
0.284279
0.283186
0.282094
0.281003
0.279914
0.278827
0.277742
0.27666
0.275582
0.274506
0.273435
0.272368
0.271305
0.270248
0.269195
0.268149
0.267108
0.266074
0.265046
0.264025
0.263011
0.262003
0.261003
0.260011
0.259025
0.258047
0.257076
0.256113
0.255156
0.254206
0.253263
0.252326
0.251396
0.250471
0.249553
0.248639
0.247731
0.246827
0.245928
0.245033
0.244142
0.243254
0.24237
0.241488
0.24061
0.239733
0.23886
0.237988
0.237119
0.236252
0.235387
0.234525
0.233664
0.232806
0.23195
0.231096
0.230246
0.229398
0.228553
0.227711
0.226873
0.226039
0.225209
0.224383
0.223561
0.222745
0.221933
0.221129
0.220345
0.299747
0.298655
0.297536
0.296396
0.29524
0.29407
0.292891
0.291705
0.290516
0.289325
0.288133
0.286943
0.285755
0.28457
0.283388
0.282211
0.281039
0.279873
0.278712
0.277559
0.276412
0.275273
0.274141
0.273018
0.271903
0.270797
0.2697
0.268611
0.267532
0.266462
0.265402
0.26435
0.263309
0.262276
0.261252
0.260237
0.259231
0.258234
0.257244
0.256263
0.255289
0.254323
0.253363
0.25241
0.251463
0.250522
0.249586
0.248656
0.24773
0.246808
0.245891
0.244977
0.244067
0.243161
0.242257
0.241356
0.240459
0.239564
0.238671
0.237782
0.236895
0.236011
0.23513
0.234253
0.233378
0.232507
0.231639
0.230776
0.229916
0.229061
0.22821
0.227364
0.226524
0.225688
0.224858
0.224035
0.223235
0.309263
0.3081
0.306883
0.305622
0.304327
0.303005
0.30166
0.300304
0.29894
0.297575
0.29621
0.294848
0.293491
0.29214
0.290797
0.289463
0.288139
0.286825
0.285521
0.284229
0.282949
0.28168
0.280424
0.279181
0.27795
0.276732
0.275526
0.274334
0.273155
0.271988
0.270835
0.269694
0.268565
0.267449
0.266345
0.265253
0.264172
0.263102
0.262043
0.260994
0.259956
0.258927
0.257907
0.256895
0.255892
0.254896
0.253908
0.252927
0.251952
0.250983
0.250019
0.249061
0.248108
0.247159
0.246215
0.245276
0.24434
0.243408
0.24248
0.241556
0.240636
0.239719
0.238807
0.237898
0.236994
0.236094
0.235198
0.234307
0.233421
0.23254
0.231665
0.230794
0.22993
0.229071
0.228218
0.227373
0.226552
0.322997
0.321656
0.320216
0.318698
0.317121
0.315502
0.313856
0.312194
0.310526
0.308858
0.307197
0.305544
0.303901
0.302271
0.300658
0.299065
0.297491
0.295937
0.294404
0.292892
0.2914
0.289928
0.288477
0.287046
0.285634
0.284243
0.282871
0.281518
0.280184
0.278869
0.277571
0.276292
0.275031
0.273786
0.272559
0.271347
0.270152
0.268972
0.267806
0.266655
0.265518
0.264395
0.263284
0.262185
0.261098
0.260022
0.258956
0.2579
0.256854
0.255817
0.254788
0.253767
0.252754
0.251748
0.250749
0.249756
0.24877
0.24779
0.246815
0.245846
0.244883
0.243926
0.242974
0.242027
0.241086
0.240151
0.239221
0.238297
0.237379
0.236468
0.235562
0.234663
0.23377
0.232884
0.232004
0.231133
0.230286
0.343048
0.34129
0.339372
0.337333
0.33521
0.333034
0.330831
0.32862
0.326416
0.324229
0.322068
0.319937
0.31784
0.315778
0.313753
0.311764
0.309812
0.307897
0.306018
0.304174
0.302364
0.300588
0.298844
0.297131
0.295447
0.29379
0.292163
0.290564
0.288994
0.287452
0.285936
0.284447
0.282983
0.281544
0.280129
0.278737
0.277368
0.276022
0.274696
0.273392
0.272108
0.270843
0.269596
0.268368
0.267157
0.265963
0.264784
0.263622
0.262473
0.261339
0.260218
0.25911
0.258014
0.25693
0.255856
0.254793
0.25374
0.252697
0.251663
0.250638
0.249621
0.248613
0.247613
0.24662
0.245636
0.24466
0.243691
0.242729
0.241776
0.240829
0.239891
0.238959
0.238036
0.237119
0.236211
0.23531
0.234436
0.367554
0.364782
0.361869
0.358873
0.35584
0.352807
0.349799
0.346836
0.343928
0.341083
0.338306
0.335597
0.332956
0.330381
0.327871
0.325423
0.323034
0.320703
0.318425
0.316199
0.314024
0.311896
0.309814
0.307775
0.305779
0.303823
0.301905
0.300026
0.298183
0.296376
0.294604
0.292865
0.29116
0.289487
0.287846
0.286236
0.284656
0.283104
0.281579
0.280081
0.278609
0.277164
0.275747
0.274357
0.272991
0.271651
0.270335
0.269042
0.267771
0.266521
0.265292
0.264082
0.262892
0.261719
0.260563
0.259423
0.258299
0.257189
0.256094
0.255012
0.253943
0.252887
0.251843
0.25081
0.249789
0.248778
0.247778
0.246788
0.245808
0.244838
0.243877
0.242925
0.241982
0.241047
0.240122
0.239223
0.393418
0.38978
0.386067
0.382357
0.378699
0.375086
0.371543
0.368082
0.364711
0.36143
0.35824
0.355137
0.352117
0.349175
0.346309
0.343513
0.340784
0.338117
0.33551
0.332958
0.330459
0.32801
0.325609
0.323249
0.320936
0.318667
0.316439
0.314249
0.312098
0.309984
0.307908
0.305867
0.303863
0.301894
0.299961
0.298064
0.296203
0.294377
0.292586
0.290831
0.289109
0.287423
0.285771
0.284153
0.282568
0.281018
0.2795
0.278015
0.276561
0.275138
0.273745
0.272381
0.271044
0.269733
0.268446
0.267183
0.265943
0.264727
0.263533
0.262361
0.261211
0.26008
0.258969
0.257877
0.256803
0.255745
0.254704
0.253679
0.252669
0.251672
0.250689
0.249719
0.24876
0.247813
0.246876
0.245964
0.395793
0.392417
0.389148
0.386039
0.383113
0.380372
0.377807
0.3754
0.373124
0.370957
0.368873
0.36685
0.364871
0.362922
0.360991
0.359072
0.357157
0.355243
0.353325
0.351402
0.349471
0.347531
0.345582
0.343621
0.341651
0.33967
0.337679
0.33568
0.333672
0.331657
0.329638
0.327615
0.325591
0.323568
0.321548
0.319534
0.317529
0.315535
0.313555
0.311591
0.309646
0.307722
0.305822
0.303948
0.302102
0.300286
0.298502
0.296749
0.295029
0.29334
0.291683
0.290053
0.288451
0.286879
0.285338
0.283829
0.282352
0.280909
0.2795
0.278125
0.276785
0.275479
0.274207
0.272969
0.271763
0.27059
0.269447
0.268334
0.26725
0.266192
0.265158
0.264147
0.263156
0.262183
0.261227
0.260294
0.390387
0.387218
0.384764
0.383002
0.381891
0.381382
0.38142
0.381936
0.382852
0.384094
0.385571
0.387086
0.388536
0.389903
0.391172
0.392331
0.393369
0.39428
0.395057
0.395695
0.396189
0.396536
0.396735
0.396782
0.396676
0.396417
0.396004
0.395439
0.394722
0.393856
0.392845
0.391692
0.3904
0.388974
0.387421
0.385748
0.383962
0.382071
0.380085
0.378012
0.375859
0.373634
0.371347
0.369006
0.36662
0.364196
0.361742
0.359262
0.356758
0.35423
0.351677
0.349076
0.346449
0.343819
0.341205
0.338623
0.336088
0.333611
0.331201
0.328866
0.326612
0.324443
0.322361
0.320368
0.318463
0.316647
0.314917
0.313269
0.311701
0.310205
0.308777
0.307409
0.306093
0.304821
0.303584
0.302365
0.534618
0.549195
0.557789
0.565214
0.573643
0.582825
0.592511
0.602464
0.612464
0.62234
0.631936
0.641118
0.649773
0.657812
0.665169
0.671798
0.677669
0.682764
0.687077
0.690609
0.693369
0.695368
0.696626
0.697174
0.69704
0.696254
0.694846
0.69285
0.690298
0.687223
0.683657
0.679628
0.675166
0.670297
0.665048
0.659443
0.653509
0.647271
0.640756
0.633992
0.627006
0.619828
0.612488
0.605018
0.597449
0.589812
0.582137
0.574458
0.566804
0.559207
0.551697
0.544306
0.537055
0.529959
0.523035
0.516298
0.509763
0.503441
0.497342
0.491476
0.485847
0.48046
0.475315
0.470412
0.465748
0.461317
0.457114
0.453128
0.449349
0.44576
0.442345
0.439081
0.435944
0.432909
0.429963
0.427043
1.27794
1.39741
1.50231
1.59159
1.66524
1.72465
1.7718
1.80811
1.83523
1.85493
1.86829
1.87626
1.87962
1.87899
1.87489
1.86775
1.85795
1.84583
1.83168
1.81577
1.7982
1.77917
1.75895
1.73771
1.71566
1.69298
1.66983
1.64631
1.62247
1.59831
1.57384
1.54902
1.52385
1.49832
1.47248
1.44638
1.42007
1.39361
1.36707
1.34051
1.31396
1.28749
1.26114
1.23501
1.20915
1.18362
1.15848
1.13378
1.10957
1.0859
1.06281
1.04034
1.01851
0.997355
0.976896
0.957148
0.938125
0.919837
0.902287
0.885472
0.869385
0.854012
0.839338
0.825346
0.812012
0.799316
0.787231
0.77573
0.764783
0.754361
0.744437
0.734988
0.725998
0.717473
0.70942
3.45011
2.95165
2.27649
2.03517
1.96525
1.95856
1.95122
1.94539
1.93598
1.93326
1.93728
1.94753
1.9631
1.98315
2.00671
2.0328
2.06058
2.08933
2.11844
2.1471
2.1584
2.16037
2.16043
2.15806
2.15433
2.14991
2.14497
2.13938
2.13282
2.12497
2.11554
2.10431
2.09093
2.07579
2.0589
2.04045
2.02067
1.99987
1.9783
1.95619
1.93366
1.9106
1.88688
1.86225
1.83664
1.81008
1.78264
1.75445
1.72569
1.69659
1.66735
1.63814
1.60913
1.58046
1.55224
1.52457
1.4975
1.4711
1.44539
1.42039
1.39612
1.37256
1.34972
1.32761
1.30621
1.28552
1.26552
1.24621
1.22754
1.20949
1.19205
1.1752
1.15894
1.14334
1.12843
1.5547
1.45266
1.41111
1.38817
1.39282
1.39284
1.39036
1.38088
1.36493
1.34268
1.32886
1.3181
1.3107
1.30554
1.30176
1.29917
1.29794
1.29779
1.2984
1.29962
1.30088
1.30215
1.30378
1.30556
1.30754
1.30976
1.31229
1.31628
1.32294
1.33197
1.34277
1.35562
1.37113
1.38928
1.41097
1.43683
1.46712
1.50165
1.53961
1.57861
1.6156
1.65147
1.68722
1.71843
1.74237
1.76008
1.7725
1.78045
1.78457
1.78535
1.78312
1.77835
1.77184
1.76415
1.75563
1.74643
1.73657
1.726
1.71464
1.70249
1.68959
1.67603
1.6619
1.64728
1.63229
1.61702
1.60152
1.58586
1.57009
1.55423
1.53835
1.52246
1.50663
1.49099
1.47565
1.13151
1.16046
1.18637
1.20857
1.21775
1.21388
1.20215
1.18878
1.17685
1.16619
1.1576
1.15148
1.14883
1.14797
1.14574
1.14293
1.14256
1.14325
1.14347
1.14366
1.14428
1.14546
1.14712
1.14911
1.15153
1.15442
1.15751
1.16078
1.16428
1.16805
1.1721
1.1765
1.18133
1.18666
1.19264
1.1994
1.20703
1.21553
1.22479
1.23443
1.24391
1.25309
1.26202
1.27062
1.27859
1.2859
1.29272
1.29927
1.306
1.31364
1.32326
1.33618
1.35432
1.37708
1.40358
1.43255
1.4622
1.49054
1.51316
1.53088
1.54443
1.55451
1.56181
1.56683
1.56994
1.57144
1.57158
1.57055
1.56854
1.56568
1.56207
1.55778
1.55281
1.54731
1.54107
1.20467
1.24812
1.27831
1.30272
1.3104
1.30345
1.29311
1.28278
1.27263
1.26229
1.25196
1.24194
1.2324
1.2234
1.21438
1.20511
1.19594
1.18731
1.17948
1.1726
1.16681
1.16215
1.15859
1.15602
1.15434
1.15353
1.15348
1.15408
1.1552
1.15693
1.15912
1.16168
1.16451
1.16754
1.17073
1.17405
1.17748
1.181
1.18452
1.18783
1.19001
1.19037
1.18935
1.18739
1.18505
1.18325
1.18289
1.18313
1.18374
1.1848
1.18645
1.18887
1.19222
1.19654
1.20175
1.20766
1.21399
1.2204
1.22655
1.23227
1.23769
1.2428
1.2475
1.25179
1.2557
1.25928
1.26262
1.26621
1.27129
1.27814
1.28649
1.296
1.30612
1.31599
1.32379
1.22751
1.27103
1.34062
1.39553
1.41564
1.41282
1.40412
1.39535
1.38673
1.3768
1.36604
1.35511
1.3445
1.33455
1.32534
1.31581
1.30643
1.29796
1.29068
1.28463
1.27978
1.27605
1.27323
1.27115
1.26962
1.26852
1.26773
1.26711
1.26657
1.26605
1.2655
1.26487
1.26413
1.26325
1.26223
1.26106
1.25974
1.25826
1.2565
1.25434
1.25165
1.24839
1.24457
1.24033
1.23584
1.23139
1.22729
1.22353
1.22009
1.21693
1.21401
1.21133
1.20885
1.20656
1.20436
1.20215
1.19969
1.19667
1.19257
1.18671
1.17915
1.17071
1.16219
1.15428
1.14756
1.14237
1.13822
1.13479
1.13192
1.12971
1.12808
1.127
1.12639
1.12621
1.12647
1.15866
1.33538
1.49784
1.6746
1.64093
1.64192
1.64222
1.64302
1.64643
1.63968
1.61969
1.59661
1.57407
1.55374
1.53603
1.52068
1.50724
1.49542
1.4851
1.47615
1.4684
1.46167
1.45569
1.4503
1.44536
1.44077
1.43643
1.43211
1.42756
1.42294
1.41831
1.4137
1.40909
1.4045
1.3999
1.39531
1.39072
1.38617
1.38165
1.37713
1.37259
1.368
1.36333
1.35859
1.35377
1.34888
1.34397
1.33904
1.33412
1.32923
1.32436
1.31953
1.31474
1.30999
1.30531
1.30071
1.29613
1.29147
1.28664
1.28153
1.27605
1.27014
1.2638
1.25708
1.25002
1.24266
1.23499
1.22696
1.21855
1.20983
1.20089
1.19188
1.18291
1.17404
1.16533
1.15642
1.58652
1.69543
1.79547
1.87525
1.93674
1.98118
2.01107
2.02829
2.03538
2.03445
2.02747
2.01616
2.00195
1.98602
1.96875
1.95029
1.93124
1.91104
1.88926
1.86644
1.84303
1.81937
1.79574
1.7724
1.74955
1.72741
1.7062
1.68598
1.66676
1.6485
1.63121
1.61485
1.5994
1.58484
1.57111
1.55819
1.54603
1.53459
1.52372
1.51331
1.50339
1.49395
1.48498
1.47646
1.46836
1.46068
1.45336
1.44638
1.4397
1.4333
1.42717
1.42127
1.41558
1.41004
1.40464
1.39934
1.39411
1.38892
1.38373
1.37851
1.37323
1.36788
1.36241
1.35679
1.35099
1.34501
1.33883
1.33238
1.32566
1.31864
1.31134
1.30378
1.296
1.28804
1.27995
1.27139
0.889541
0.942635
0.994538
1.04622
1.09789
1.14889
1.19843
1.24572
1.29013
1.33103
1.36801
1.40081
1.4294
1.45328
1.47269
1.48807
1.49987
1.50911
1.51667
1.52272
1.52752
1.53132
1.53433
1.53672
1.53865
1.53982
1.53966
1.53842
1.53635
1.53362
1.53036
1.52667
1.52266
1.51838
1.51393
1.50935
1.50469
1.49998
1.49524
1.49048
1.48571
1.48087
1.47589
1.47084
1.46575
1.46064
1.45554
1.45045
1.44541
1.44043
1.43549
1.43052
1.42556
1.42066
1.41582
1.41108
1.40642
1.40185
1.39735
1.39293
1.38857
1.38426
1.38001
1.37577
1.37153
1.36725
1.3629
1.35846
1.35391
1.34924
1.34442
1.33944
1.33432
1.32906
1.32368
1.31805
0.568682
0.581223
0.594214
0.607369
0.621132
0.635739
0.651291
0.667828
0.685273
0.703539
0.722311
0.741158
0.759883
0.778245
0.796015
0.813007
0.829075
0.84415
0.858203
0.871269
0.883411
0.894713
0.905276
0.91519
0.924562
0.933794
0.943499
0.953612
0.964084
0.974872
0.985939
0.99725
1.00877
1.02044
1.03187
1.04305
1.05396
1.06459
1.07493
1.08495
1.09465
1.10399
1.11294
1.12151
1.12966
1.13739
1.14468
1.15153
1.15795
1.16394
1.16951
1.17465
1.17939
1.18372
1.18768
1.19126
1.1945
1.19739
1.19997
1.20225
1.20425
1.20598
1.20748
1.20872
1.20972
1.21049
1.21105
1.21142
1.21162
1.21166
1.21155
1.21131
1.21095
1.21051
1.21001
1.20939
0.45868
0.461105
0.46297
0.465082
0.467564
0.470486
0.473908
0.477807
0.482196
0.48708
0.492454
0.498242
0.504307
0.510583
0.517004
0.523504
0.530019
0.536484
0.54285
0.54908
0.555151
0.56105
0.566785
0.572368
0.57784
0.583273
0.588726
0.59425
0.599889
0.605678
0.611651
0.617784
0.624102
0.630914
0.638191
0.6459
0.65401
0.662486
0.671292
0.680391
0.689745
0.699213
0.708763
0.718369
0.728002
0.737637
0.74725
0.756821
0.76633
0.775759
0.785087
0.794298
0.803377
0.812312
0.821092
0.829708
0.838154
0.846427
0.854531
0.862462
0.870217
0.877793
0.885189
0.892401
0.899426
0.906265
0.912918
0.919393
0.925695
0.931834
0.937819
0.943667
0.949395
0.955024
0.960383
0.411257
0.411617
0.411726
0.41169
0.411588
0.41148
0.411413
0.411422
0.411532
0.411761
0.412124
0.412627
0.413269
0.414049
0.414962
0.416001
0.417159
0.418427
0.419798
0.421262
0.422812
0.424442
0.42615
0.427933
0.429791
0.431721
0.433723
0.435802
0.437979
0.440257
0.44264
0.445129
0.447727
0.450447
0.453299
0.45629
0.459425
0.462706
0.466135
0.469709
0.473433
0.477407
0.481619
0.486059
0.490718
0.495587
0.500659
0.505927
0.511345
0.51691
0.522618
0.52847
0.534466
0.540604
0.546885
0.553309
0.559872
0.566552
0.573316
0.580155
0.587065
0.594036
0.601064
0.608143
0.615268
0.622434
0.629639
0.636881
0.644158
0.651469
0.658816
0.666202
0.67363
0.681096
0.688441
0.391994
0.391867
0.391527
0.391019
0.390387
0.389665
0.388882
0.388063
0.387225
0.386382
0.385545
0.384724
0.383924
0.383151
0.382409
0.381702
0.381032
0.380402
0.379817
0.37928
0.378797
0.378373
0.378011
0.377717
0.377495
0.377347
0.377278
0.377295
0.377398
0.377584
0.377855
0.378212
0.378655
0.379186
0.379806
0.380523
0.381337
0.382245
0.383241
0.384321
0.385484
0.386728
0.388052
0.389456
0.390939
0.392501
0.394143
0.395865
0.397706
0.399668
0.401753
0.403962
0.406299
0.408764
0.411349
0.414058
0.416898
0.419873
0.422988
0.426247
0.429656
0.43322
0.436942
0.440826
0.444873
0.449087
0.453469
0.458023
0.462749
0.467649
0.472725
0.477975
0.483396
0.488975
0.494569
0.3837
0.383563
0.383226
0.38272
0.382075
0.381317
0.380469
0.379548
0.37857
0.377547
0.376486
0.375396
0.374281
0.373146
0.371996
0.370834
0.369661
0.36848
0.367298
0.366119
0.364951
0.363798
0.362666
0.361562
0.36049
0.359456
0.358464
0.357519
0.356623
0.355779
0.354989
0.354255
0.353578
0.352957
0.352402
0.351901
0.351455
0.351062
0.350723
0.350436
0.3502
0.350013
0.349875
0.349789
0.349751
0.349763
0.349822
0.349929
0.350084
0.350289
0.350545
0.350854
0.351218
0.351645
0.35215
0.352736
0.353411
0.35418
0.355047
0.356015
0.357088
0.358269
0.359566
0.360985
0.362532
0.364215
0.366038
0.368007
0.370126
0.3724
0.374832
0.377424
0.380176
0.383081
0.386058
0.379182
0.379228
0.379073
0.378745
0.378267
0.377662
0.37695
0.376147
0.375267
0.37432
0.373315
0.372258
0.371154
0.370008
0.368823
0.367603
0.366351
0.365071
0.363765
0.362436
0.361088
0.359729
0.358363
0.356998
0.355637
0.354286
0.35295
0.351631
0.350335
0.349066
0.347826
0.346617
0.345439
0.344294
0.343181
0.342101
0.341053
0.340036
0.33905
0.338092
0.337163
0.336261
0.335388
0.334539
0.333713
0.332909
0.332128
0.331369
0.330632
0.329917
0.329225
0.328557
0.327916
0.327302
0.326719
0.326169
0.325655
0.32518
0.324751
0.324375
0.324058
0.323806
0.323623
0.323517
0.323491
0.323552
0.323704
0.323954
0.324306
0.324768
0.325341
0.326031
0.326838
0.327761
0.328772
0.376163
0.376324
0.376335
0.376169
0.375849
0.375394
0.374821
0.374146
0.373381
0.372537
0.371622
0.370642
0.369604
0.368511
0.367368
0.366178
0.364946
0.363674
0.362368
0.361031
0.359664
0.358273
0.356863
0.35544
0.354008
0.352573
0.351138
0.34971
0.348288
0.346872
0.345461
0.344061
0.342676
0.341312
0.339969
0.338646
0.337342
0.336058
0.33479
0.333539
0.332303
0.33108
0.329869
0.328668
0.327477
0.326293
0.325116
0.323944
0.322776
0.321612
0.320453
0.319295
0.31814
0.31699
0.315847
0.314714
0.313593
0.312487
0.3114
0.310336
0.309298
0.30829
0.307316
0.306382
0.305491
0.304651
0.303866
0.303143
0.302486
0.3019
0.301389
0.300957
0.300608
0.300341
0.300158
0.374506
0.374639
0.37467
0.374531
0.37424
0.373813
0.373267
0.372616
0.371872
0.371046
0.370144
0.369174
0.368142
0.367052
0.36591
0.364718
0.363481
0.362202
0.360887
0.35954
0.358163
0.356759
0.355335
0.353894
0.352442
0.350985
0.349525
0.348068
0.346616
0.345169
0.343726
0.342289
0.340862
0.339447
0.338046
0.336658
0.335282
0.333918
0.332565
0.331222
0.329885
0.328554
0.327227
0.325901
0.324574
0.323247
0.321916
0.320581
0.319241
0.317896
0.316545
0.315189
0.313829
0.312466
0.311102
0.309737
0.308376
0.307019
0.30567
0.304331
0.303007
0.301702
0.300418
0.299159
0.29793
0.296736
0.295579
0.294466
0.293399
0.292383
0.291422
0.29052
0.289681
0.288906
0.288209
0.373904
0.374009
0.373995
0.373811
0.373475
0.373003
0.372411
0.371714
0.370922
0.370046
0.369095
0.368076
0.366994
0.365856
0.364665
0.363427
0.362146
0.360826
0.359472
0.358089
0.356678
0.355244
0.353793
0.35233
0.35086
0.349388
0.347918
0.346454
0.344998
0.34355
0.342107
0.340673
0.339253
0.337847
0.336457
0.335081
0.33372
0.332372
0.331036
0.32971
0.328392
0.327079
0.325771
0.324464
0.323157
0.321849
0.320538
0.319223
0.317904
0.316579
0.31525
0.313917
0.31258
0.311241
0.309902
0.308564
0.307231
0.305905
0.304588
0.303286
0.302001
0.300738
0.299502
0.298295
0.297124
0.295992
0.294905
0.293866
0.292882
0.291956
0.291091
0.290293
0.289563
0.288904
0.288324
0.374241
0.374276
0.374127
0.373811
0.373346
0.372748
0.372035
0.371219
0.370314
0.36933
0.368275
0.367158
0.365984
0.36476
0.363491
0.362181
0.360835
0.359459
0.358057
0.35663
0.355184
0.353725
0.352259
0.350791
0.349327
0.347869
0.346424
0.344991
0.343574
0.342166
0.340774
0.3394
0.338048
0.336721
0.33542
0.334144
0.33289
0.331657
0.330443
0.329246
0.328064
0.326895
0.325738
0.324591
0.323452
0.322319
0.321191
0.320068
0.318949
0.317834
0.316725
0.315622
0.314526
0.31344
0.312367
0.311312
0.310275
0.309258
0.308265
0.307301
0.306373
0.305485
0.304643
0.303854
0.303122
0.302455
0.301858
0.301336
0.300896
0.300543
0.300281
0.300113
0.300043
0.30007
0.300185
0.375701
0.375449
0.375025
0.37445
0.373741
0.372917
0.371993
0.370986
0.369906
0.368764
0.36757
0.36633
0.365051
0.363738
0.362397
0.361033
0.359648
0.358245
0.356831
0.35541
0.353989
0.352574
0.35117
0.349782
0.348414
0.347071
0.345751
0.344454
0.343184
0.34195
0.340756
0.339601
0.338485
0.337408
0.336374
0.335379
0.334416
0.333486
0.332587
0.331712
0.330861
0.33003
0.329217
0.328421
0.327643
0.326881
0.326136
0.325407
0.324695
0.324002
0.323328
0.322678
0.322058
0.321476
0.320932
0.320428
0.319971
0.319566
0.319218
0.318933
0.318719
0.318582
0.31853
0.318569
0.318706
0.318948
0.319302
0.319775
0.32037
0.321094
0.321951
0.322943
0.324072
0.325336
0.326688
0.378068
0.377546
0.376875
0.376076
0.375166
0.374166
0.373091
0.371957
0.370774
0.369554
0.368306
0.367035
0.365749
0.364454
0.363153
0.36185
0.360548
0.359256
0.357977
0.35672
0.355488
0.354287
0.353123
0.351999
0.35092
0.349889
0.348911
0.347995
0.347131
0.34632
0.345564
0.344861
0.344212
0.343615
0.343069
0.342574
0.342132
0.341738
0.34139
0.341085
0.34082
0.340594
0.340403
0.340246
0.340122
0.340031
0.339974
0.339951
0.339965
0.340029
0.340154
0.340341
0.340589
0.340899
0.341279
0.341738
0.342285
0.342928
0.343675
0.344534
0.345512
0.346619
0.347862
0.349248
0.350784
0.352475
0.354328
0.356345
0.358527
0.360874
0.363387
0.366063
0.368897
0.371885
0.374932
0.38333
0.382771
0.382067
0.381245
0.380331
0.379348
0.378313
0.377245
0.376155
0.375056
0.373957
0.372865
0.371787
0.37073
0.369695
0.36869
0.367721
0.366792
0.365911
0.365085
0.364328
0.363633
0.363006
0.36245
0.361969
0.361565
0.361241
0.361001
0.360859
0.360812
0.36086
0.360997
0.361217