/*--------------------------------*- C++ -*----------------------------------*\
  =========                 |
  \\      /  F ield         | OpenFOAM: The Open Source CFD Toolbox
   \\    /   O peration     | Website:  https://openfoam.org
    \\  /    A nd           | Version:  13
     \\/     M anipulation  |
\*---------------------------------------------------------------------------*/
FoamFile
{
    format      ascii;
    class       volScalarField;
    location    "500";
    object      nut;
}
// * * * * * * * * * * * * * * * * * * * * * * * * * * * * * * * * * * * * * //

dimensions      [0 2 -1 0 0 0 0];

internalField   nonuniform List<scalar> 
173327
(
0.0184108
0.0183982
0.0183859
0.0183737
0.0183618
0.0183502
0.0183388
0.0183276
0.0183167
0.0183061
0.0182956
0.0182854
0.0182754
0.0182655
0.0182558
0.0182462
0.0182368
0.0182274
0.0182182
0.0182091
0.0182
0.018191
0.0181821
0.0181732
0.0181643
0.0181556
0.0181468
0.0181381
0.0181295
0.0181209
0.0181123
0.0181037
0.0180952
0.0180867
0.0180782
0.0180698
0.0180614
0.018053
0.0180446
0.0180362
0.0180279
0.0180195
0.0180112
0.0180028
0.0179944
0.017986
0.0179776
0.0179691
0.0179606
0.0179521
0.0179435
0.0179349
0.0179262
0.0179174
0.0179086
0.0178998
0.0178908
0.0178818
0.0178727
0.0178636
0.0178544
0.0178451
0.0178357
0.0178263
0.0178169
0.0178073
0.0177978
0.0177882
0.0177786
0.0177689
0.0177592
0.0177495
0.0177399
0.0177302
0.0177205
0.0177109
0.0177018
0.0184131
0.0184005
0.0183883
0.0183762
0.0183644
0.0183528
0.0183415
0.0183304
0.0183196
0.018309
0.0182987
0.0182885
0.0182785
0.0182687
0.018259
0.0182495
0.0182401
0.0182308
0.0182216
0.0182125
0.0182035
0.0181945
0.0181856
0.0181767
0.0181679
0.0181591
0.0181504
0.0181417
0.0181331
0.0181244
0.0181159
0.0181073
0.0180988
0.0180903
0.0180818
0.0180734
0.018065
0.0180566
0.0180482
0.0180398
0.0180315
0.0180231
0.0180147
0.0180064
0.017998
0.0179896
0.0179811
0.0179727
0.0179642
0.0179556
0.017947
0.0179384
0.0179297
0.017921
0.0179122
0.0179033
0.0178944
0.0178854
0.0178763
0.0178672
0.017858
0.0178488
0.0178395
0.0178301
0.0178207
0.0178112
0.0178017
0.0177922
0.0177826
0.017773
0.0177634
0.0177538
0.0177442
0.0177346
0.017725
0.0177155
0.0177067
0.0184173
0.018405
0.0183928
0.0183809
0.0183693
0.0183578
0.0183467
0.0183358
0.0183251
0.0183146
0.0183044
0.0182943
0.0182845
0.0182748
0.0182652
0.0182558
0.0182465
0.0182373
0.0182282
0.0182191
0.0182102
0.0182013
0.0181924
0.0181836
0.0181748
0.0181661
0.0181575
0.0181488
0.0181402
0.0181316
0.0181231
0.0181146
0.0181061
0.0180976
0.0180892
0.0180808
0.0180724
0.018064
0.0180557
0.0180473
0.018039
0.0180307
0.0180223
0.018014
0.0180056
0.0179973
0.0179889
0.0179804
0.017972
0.0179635
0.017955
0.0179464
0.0179377
0.017929
0.0179203
0.0179115
0.0179026
0.0178936
0.0178846
0.0178755
0.0178664
0.0178572
0.0178479
0.0178386
0.0178292
0.0178198
0.0178103
0.0178008
0.0177913
0.0177817
0.0177722
0.0177626
0.0177531
0.0177435
0.017734
0.0177245
0.0177157
0.0184242
0.018412
0.0184001
0.0183884
0.0183769
0.0183657
0.0183548
0.018344
0.0183336
0.0183233
0.0183132
0.0183034
0.0182937
0.0182842
0.0182748
0.0182655
0.0182563
0.0182472
0.0182382
0.0182293
0.0182205
0.0182117
0.0182029
0.0181942
0.0181855
0.0181769
0.0181683
0.0181597
0.0181512
0.0181427
0.0181342
0.0181258
0.0181174
0.018109
0.0181006
0.0180923
0.018084
0.0180757
0.0180674
0.0180591
0.0180508
0.0180426
0.0180343
0.018026
0.0180177
0.0180094
0.0180011
0.0179927
0.0179843
0.0179759
0.0179674
0.0179589
0.0179503
0.0179417
0.0179329
0.0179242
0.0179153
0.0179064
0.0178975
0.0178884
0.0178794
0.0178702
0.017861
0.0178517
0.0178424
0.017833
0.0178235
0.0178141
0.0178046
0.0177951
0.0177856
0.0177761
0.0177665
0.017757
0.0177475
0.0177381
0.0177293
0.0184339
0.0184221
0.0184104
0.018399
0.0183879
0.018377
0.0183663
0.0183558
0.0183456
0.0183356
0.0183258
0.0183162
0.0183067
0.0182974
0.0182882
0.0182791
0.0182701
0.0182612
0.0182524
0.0182436
0.0182349
0.0182263
0.0182177
0.0182091
0.0182005
0.018192
0.0181835
0.0181751
0.0181666
0.0181582
0.0181499
0.0181415
0.0181332
0.0181249
0.0181166
0.0181084
0.0181002
0.0180919
0.0180837
0.0180756
0.0180674
0.0180592
0.018051
0.0180428
0.0180346
0.0180264
0.0180181
0.0180098
0.0180015
0.0179931
0.0179847
0.0179763
0.0179678
0.0179592
0.0179505
0.0179418
0.0179331
0.0179242
0.0179153
0.0179063
0.0178973
0.0178881
0.017879
0.0178697
0.0178604
0.0178511
0.0178417
0.0178323
0.0178228
0.0178134
0.0178039
0.0177944
0.0177849
0.0177754
0.0177659
0.0177565
0.0177477
0.0184474
0.0184359
0.0184247
0.0184136
0.0184029
0.0183923
0.018382
0.0183719
0.018362
0.0183523
0.0183428
0.0183334
0.0183242
0.0183152
0.0183062
0.0182974
0.0182886
0.01828
0.0182713
0.0182628
0.0182542
0.0182457
0.0182373
0.0182289
0.0182205
0.0182121
0.0182037
0.0181954
0.0181871
0.0181788
0.0181706
0.0181624
0.0181542
0.018146
0.0181378
0.0181297
0.0181216
0.0181134
0.0181053
0.0180973
0.0180892
0.0180811
0.018073
0.0180649
0.0180568
0.0180487
0.0180405
0.0180323
0.0180241
0.0180158
0.0180074
0.0179991
0.0179906
0.0179821
0.0179735
0.0179649
0.0179562
0.0179474
0.0179385
0.0179296
0.0179206
0.0179115
0.0179024
0.0178932
0.0178839
0.0178746
0.0178653
0.0178559
0.0178465
0.017837
0.0178276
0.0178181
0.0178087
0.0177992
0.0177898
0.0177804
0.0177716
0.0184655
0.0184546
0.0184438
0.0184332
0.0184229
0.0184128
0.0184029
0.0183932
0.0183837
0.0183744
0.0183652
0.0183562
0.0183474
0.0183386
0.01833
0.0183214
0.0183129
0.0183044
0.018296
0.0182877
0.0182794
0.0182711
0.0182628
0.0182545
0.0182463
0.0182381
0.0182299
0.0182217
0.0182136
0.0182054
0.0181973
0.0181892
0.0181811
0.0181731
0.018165
0.018157
0.018149
0.018141
0.018133
0.0181251
0.0181171
0.0181091
0.0181011
0.0180932
0.0180851
0.0180771
0.018069
0.0180609
0.0180528
0.0180446
0.0180363
0.018028
0.0180197
0.0180112
0.0180027
0.0179942
0.0179855
0.0179768
0.017968
0.0179591
0.0179501
0.0179411
0.017932
0.0179229
0.0179136
0.0179044
0.0178951
0.0178857
0.0178763
0.0178669
0.0178575
0.017848
0.0178386
0.0178292
0.0178198
0.0178104
0.0178017
0.0184899
0.0184795
0.0184693
0.0184593
0.0184495
0.01844
0.0184306
0.0184213
0.0184123
0.0184034
0.0183947
0.0183861
0.0183776
0.0183692
0.0183608
0.0183525
0.0183443
0.0183361
0.018328
0.0183199
0.0183117
0.0183036
0.0182956
0.0182875
0.0182794
0.0182714
0.0182633
0.0182553
0.0182473
0.0182393
0.0182313
0.0182233
0.0182154
0.0182074
0.0181995
0.0181916
0.0181837
0.0181759
0.018168
0.0181601
0.0181523
0.0181444
0.0181365
0.0181286
0.0181207
0.0181128
0.0181048
0.0180968
0.0180887
0.0180806
0.0180725
0.0180642
0.0180559
0.0180476
0.0180391
0.0180306
0.018022
0.0180133
0.0180046
0.0179957
0.0179868
0.0179778
0.0179688
0.0179597
0.0179505
0.0179412
0.0179319
0.0179226
0.0179132
0.0179039
0.0178945
0.017885
0.0178756
0.0178662
0.0178569
0.0178475
0.0178389
0.0185229
0.0185132
0.0185037
0.0184943
0.0184852
0.0184762
0.0184673
0.0184586
0.0184501
0.0184417
0.0184334
0.0184251
0.018417
0.018409
0.0184009
0.018393
0.018385
0.0183771
0.0183691
0.0183612
0.0183533
0.0183454
0.0183375
0.0183295
0.0183216
0.0183137
0.0183058
0.0182979
0.01829
0.0182821
0.0182742
0.0182664
0.0182585
0.0182507
0.0182429
0.0182351
0.0182273
0.0182195
0.0182118
0.018204
0.0181962
0.0181884
0.0181807
0.0181729
0.018165
0.0181572
0.0181493
0.0181414
0.0181334
0.0181253
0.0181172
0.0181091
0.0181008
0.0180925
0.0180841
0.0180756
0.0180671
0.0180584
0.0180497
0.0180409
0.018032
0.018023
0.018014
0.0180049
0.0179957
0.0179865
0.0179772
0.0179679
0.0179585
0.0179492
0.0179398
0.0179304
0.017921
0.0179116
0.0179022
0.0178929
0.0178843
0.0185679
0.018559
0.0185502
0.0185415
0.018533
0.0185246
0.0185164
0.0185082
0.0185001
0.0184922
0.0184843
0.0184764
0.0184687
0.0184609
0.0184532
0.0184454
0.0184377
0.0184299
0.0184222
0.0184144
0.0184066
0.0183988
0.018391
0.0183832
0.0183754
0.0183675
0.0183597
0.0183519
0.018344
0.0183362
0.0183284
0.0183206
0.0183128
0.018305
0.0182973
0.0182895
0.0182818
0.0182741
0.0182664
0.0182587
0.018251
0.0182433
0.0182355
0.0182278
0.01822
0.0182122
0.0182043
0.0181964
0.0181885
0.0181805
0.0181724
0.0181643
0.0181561
0.0181478
0.0181394
0.0181309
0.0181224
0.0181137
0.018105
0.0180962
0.0180873
0.0180783
0.0180693
0.0180601
0.018051
0.0180417
0.0180324
0.0180231
0.0180137
0.0180044
0.017995
0.0179855
0.0179761
0.0179668
0.0179574
0.0179481
0.0179395
0.0186294
0.0186214
0.0186133
0.0186054
0.0185975
0.0185897
0.018582
0.0185743
0.0185666
0.018559
0.0185515
0.0185439
0.0185363
0.0185288
0.0185212
0.0185136
0.0185059
0.0184982
0.0184905
0.0184828
0.018475
0.0184673
0.0184594
0.0184516
0.0184437
0.0184359
0.018428
0.0184201
0.0184123
0.0184044
0.0183966
0.0183887
0.0183809
0.0183731
0.0183654
0.0183576
0.0183498
0.0183421
0.0183344
0.0183266
0.0183189
0.0183112
0.0183034
0.0182957
0.0182879
0.0182801
0.0182722
0.0182643
0.0182563
0.0182483
0.0182402
0.018232
0.0182238
0.0182154
0.018207
0.0181985
0.0181899
0.0181812
0.0181724
0.0181636
0.0181546
0.0181456
0.0181365
0.0181273
0.0181181
0.0181088
0.0180995
0.0180901
0.0180807
0.0180712
0.0180618
0.0180524
0.0180429
0.0180335
0.0180242
0.0180149
0.0180062
0.0187133
0.0187061
0.0186988
0.0186915
0.0186842
0.0186768
0.0186694
0.018662
0.0186545
0.0186471
0.0186396
0.0186321
0.0186245
0.0186169
0.0186092
0.0186015
0.0185937
0.0185859
0.018578
0.0185701
0.0185622
0.0185542
0.0185461
0.0185381
0.01853
0.018522
0.0185139
0.0185058
0.0184978
0.0184897
0.0184817
0.0184737
0.0184657
0.0184578
0.0184498
0.0184419
0.018434
0.0184262
0.0184183
0.0184104
0.0184026
0.0183947
0.0183869
0.018379
0.0183711
0.0183632
0.0183552
0.0183472
0.0183391
0.0183309
0.0183227
0.0183144
0.0183061
0.0182976
0.0182891
0.0182805
0.0182717
0.0182629
0.018254
0.0182451
0.018236
0.0182269
0.0182176
0.0182084
0.018199
0.0181896
0.0181802
0.0181707
0.0181612
0.0181517
0.0181422
0.0181327
0.0181232
0.0181137
0.0181043
0.018095
0.0180863
0.0188255
0.018819
0.0188122
0.0188053
0.0187982
0.0187909
0.0187835
0.0187761
0.0187685
0.0187608
0.018753
0.0187451
0.0187372
0.0187292
0.0187211
0.0187129
0.0187046
0.0186963
0.0186879
0.0186795
0.018671
0.0186625
0.018654
0.0186455
0.018637
0.0186284
0.0186199
0.0186114
0.018603
0.0185945
0.0185861
0.0185777
0.0185694
0.0185611
0.0185528
0.0185446
0.0185364
0.0185282
0.0185201
0.018512
0.0185038
0.0184957
0.0184876
0.0184795
0.0184714
0.0184632
0.018455
0.0184467
0.0184384
0.0184301
0.0184216
0.0184131
0.0184046
0.0183959
0.0183872
0.0183783
0.0183694
0.0183604
0.0183513
0.0183421
0.0183329
0.0183236
0.0183142
0.0183047
0.0182952
0.0182856
0.018276
0.0182664
0.0182568
0.0182472
0.0182375
0.0182279
0.0182183
0.0182087
0.0181992
0.0181898
0.0181811
0.0189682
0.0189621
0.0189556
0.0189486
0.0189413
0.0189337
0.0189259
0.0189178
0.0189095
0.0189011
0.0188925
0.0188838
0.018875
0.0188661
0.0188571
0.018848
0.0188389
0.0188296
0.0188204
0.0188111
0.0188017
0.0187924
0.018783
0.0187737
0.0187644
0.0187551
0.0187459
0.0187367
0.0187275
0.0187184
0.0187094
0.0187004
0.0186915
0.0186826
0.0186738
0.0186651
0.0186564
0.0186478
0.0186392
0.0186306
0.0186221
0.0186136
0.0186051
0.0185966
0.0185881
0.0185796
0.018571
0.0185624
0.0185538
0.0185451
0.0185363
0.0185275
0.0185186
0.0185097
0.0185006
0.0184915
0.0184823
0.0184731
0.0184637
0.0184543
0.0184448
0.0184352
0.0184256
0.0184159
0.0184062
0.0183964
0.0183866
0.0183768
0.018367
0.0183572
0.0183474
0.0183376
0.0183279
0.0183182
0.0183086
0.0182991
0.0182903
0.0191313
0.0191253
0.0191186
0.0191112
0.0191032
0.0190947
0.0190858
0.0190766
0.0190672
0.0190576
0.0190477
0.0190378
0.0190277
0.0190175
0.0190072
0.0189969
0.0189865
0.0189761
0.0189656
0.0189552
0.0189447
0.0189343
0.018924
0.0189136
0.0189033
0.0188931
0.018883
0.0188729
0.0188629
0.018853
0.0188432
0.0188335
0.0188239
0.0188144
0.018805
0.0187956
0.0187863
0.0187772
0.018768
0.018759
0.0187499
0.018741
0.018732
0.0187231
0.0187142
0.0187052
0.0186963
0.0186873
0.0186784
0.0186693
0.0186602
0.0186511
0.0186419
0.0186327
0.0186234
0.018614
0.0186045
0.018595
0.0185854
0.0185757
0.018566
0.0185562
0.0185464
0.0185365
0.0185266
0.0185166
0.0185067
0.0184967
0.0184868
0.0184768
0.0184669
0.018457
0.0184472
0.0184374
0.0184276
0.018418
0.0184091
0.019267
0.019261
0.0192538
0.0192457
0.0192368
0.0192273
0.0192172
0.0192067
0.019196
0.0191851
0.0191742
0.0191631
0.019152
0.0191408
0.0191296
0.0191184
0.0191072
0.019096
0.0190849
0.0190738
0.0190627
0.0190517
0.0190408
0.0190299
0.0190191
0.0190084
0.0189978
0.0189873
0.018977
0.0189667
0.0189566
0.0189465
0.0189366
0.0189268
0.0189171
0.0189075
0.018898
0.0188887
0.0188794
0.0188701
0.018861
0.0188519
0.0188429
0.0188339
0.0188249
0.018816
0.018807
0.0187981
0.0187891
0.0187801
0.0187711
0.018762
0.0187529
0.0187437
0.0187344
0.0187251
0.0187158
0.0187063
0.0186968
0.0186873
0.0186777
0.018668
0.0186583
0.0186485
0.0186387
0.0186289
0.018619
0.0186092
0.0185993
0.0185895
0.0185797
0.0185699
0.0185601
0.0185504
0.0185408
0.0185312
0.0185225
0.0192016
0.0191943
0.0191861
0.0191772
0.019168
0.0191586
0.0191492
0.0191399
0.0191308
0.0191219
0.0191132
0.0191046
0.0190961
0.0190877
0.0190794
0.0190712
0.019063
0.019055
0.019047
0.019039
0.0190311
0.0190232
0.0190153
0.0190074
0.0189995
0.0189916
0.0189838
0.018976
0.0189682
0.0189605
0.0189528
0.0189451
0.0189376
0.01893
0.0189225
0.0189151
0.0189078
0.0189005
0.0188932
0.0188861
0.0188789
0.0188718
0.0188647
0.0188576
0.0188505
0.0188435
0.0188364
0.0188293
0.0188221
0.0188149
0.0188077
0.0188003
0.0187929
0.0187855
0.0187779
0.0187702
0.0187624
0.0187546
0.0187466
0.0187385
0.0187303
0.018722
0.0187137
0.0187052
0.0186967
0.0186881
0.0186794
0.0186707
0.018662
0.0186532
0.0186444
0.0186356
0.0186268
0.018618
0.0186092
0.0186005
0.0185926
0.0183361
0.0183315
0.0183289
0.0183287
0.0183306
0.0183347
0.0183408
0.0183486
0.0183578
0.0183682
0.0183796
0.0183916
0.0184041
0.0184169
0.0184297
0.0184423
0.0184548
0.0184669
0.0184786
0.0184898
0.0185005
0.0185107
0.0185203
0.0185293
0.0185377
0.0185456
0.0185528
0.0185596
0.0185659
0.0185718
0.0185773
0.0185823
0.0185871
0.0185914
0.0185955
0.0185993
0.0186028
0.018606
0.018609
0.0186118
0.0186143
0.0186166
0.0186187
0.0186205
0.0186222
0.0186236
0.0186248
0.0186257
0.0186264
0.0186269
0.0186271
0.018627
0.0186266
0.018626
0.0186251
0.0186239
0.0186224
0.0186205
0.0186184
0.018616
0.0186133
0.0186103
0.018607
0.0186034
0.0185996
0.0185955
0.0185912
0.0185867
0.018582
0.0185771
0.018572
0.0185668
0.0185615
0.018556
0.0185505
0.0185449
0.0185399
0.0154493
0.0154902
0.01554
0.0155974
0.0156614
0.0157306
0.0158039
0.0158803
0.0159588
0.0160386
0.0161188
0.0161989
0.0162784
0.0163567
0.0164335
0.0165086
0.0165818
0.0166528
0.0167216
0.0167881
0.0168524
0.0169143
0.016974
0.0170315
0.0170867
0.0171399
0.0171909
0.01724
0.0172871
0.0173325
0.0173761
0.017418
0.0174584
0.0174973
0.0175348
0.0175709
0.0176058
0.0176394
0.0176718
0.017703
0.0177331
0.0177621
0.0177902
0.0178173
0.0178434
0.0178686
0.0178928
0.0179162
0.0179385
0.01796
0.0179805
0.018
0.0180187
0.0180364
0.0180531
0.018069
0.0180839
0.0180979
0.018111
0.0181232
0.0181346
0.0181451
0.0181548
0.0181638
0.018172
0.0181795
0.0181863
0.0181924
0.018198
0.018203
0.0182075
0.0182115
0.0182151
0.0182182
0.0182211
0.0182242
0.0105446
0.0106418
0.0107546
0.0108811
0.0110191
0.0111662
0.0113206
0.0114806
0.0116445
0.0118111
0.0119791
0.0121475
0.0123155
0.0124823
0.0126473
0.01281
0.0129701
0.0131272
0.013281
0.0134314
0.0135782
0.0137214
0.0138608
0.0139965
0.0141285
0.0142569
0.0143818
0.0145031
0.0146209
0.0147355
0.0148468
0.014955
0.0150601
0.0151624
0.0152619
0.0153587
0.015453
0.0155448
0.0156342
0.0157212
0.0158059
0.0158882
0.0159683
0.0160462
0.0161218
0.0161952
0.0162664
0.0163354
0.0164023
0.0164669
0.0165293
0.0165895
0.0166475
0.0167033
0.0167568
0.0168081
0.0168573
0.0169044
0.0169493
0.0169923
0.0170333
0.0170724
0.0171095
0.0171449
0.0171786
0.0172106
0.017241
0.0172699
0.0172974
0.0173235
0.0173484
0.0173722
0.0173949
0.0174165
0.0174374
0.0174577
0.00635832
0.00644325
0.00654509
0.00666217
0.00679274
0.00693507
0.00708751
0.00724845
0.00741644
0.00759015
0.00776842
0.00795027
0.00813484
0.00832135
0.0085091
0.00869753
0.00888611
0.00907442
0.00926209
0.00944877
0.00963421
0.00981817
0.0100004
0.0101809
0.0103594
0.0105358
0.01071
0.0108821
0.0110519
0.0112194
0.0113847
0.0115477
0.0117085
0.0118669
0.0120232
0.0121771
0.0123288
0.0124783
0.0126255
0.0127704
0.012913
0.0130532
0.013191
0.0133264
0.0134593
0.0135896
0.0137173
0.0138422
0.0139642
0.0140833
0.0141995
0.0143127
0.0144228
0.0145297
0.0146334
0.0147337
0.0148308
0.0149245
0.015015
0.0151021
0.0151861
0.0152669
0.0153446
0.0154193
0.0154911
0.0155601
0.0156264
0.0156901
0.0157514
0.0158105
0.0158673
0.0159221
0.0159749
0.016026
0.0160754
0.0161232
0.0042049
0.00425085
0.00431223
0.00438775
0.00447616
0.00457624
0.00468688
0.00480694
0.00493534
0.00507109
0.00521303
0.00535107
0.00542313
0.00550571
0.00559726
0.00569643
0.00580207
0.00591317
0.00602885
0.00614837
0.00627119
0.00639688
0.0065251
0.00665561
0.00678823
0.0069228
0.00705922
0.00719748
0.00733764
0.00747981
0.00762425
0.00777125
0.00792231
0.00807623
0.00823317
0.00839359
0.00855806
0.0087261
0.00889464
0.00906957
0.00925379
0.00944419
0.00964102
0.00984477
0.0100559
0.0102749
0.0105019
0.010737
0.0109802
0.0112317
0.0114911
0.0117564
0.0119554
0.0121025
0.0122458
0.0123854
0.0125212
0.0126534
0.0127821
0.0129072
0.0130289
0.0131471
0.0132619
0.0133734
0.0134816
0.0135867
0.0136886
0.0137876
0.0138837
0.0139769
0.0140674
0.0141553
0.0142407
0.0143235
0.014404
0.0144815
0.0036288
0.00368381
0.00353132
0.00338584
0.00329503
0.00324895
0.00324043
0.00326258
0.00330812
0.00337075
0.00344771
0.00353634
0.00363372
0.0037377
0.00384666
0.00395934
0.00407474
0.00419205
0.00431053
0.00442951
0.00454846
0.00466691
0.0047845
0.00490005
0.00501346
0.00512462
0.00523355
0.00534035
0.00544509
0.00554788
0.00564897
0.00574869
0.0058472
0.00594464
0.00604117
0.00613713
0.00623283
0.00632851
0.00642454
0.00652134
0.00661928
0.00671855
0.00681938
0.0069222
0.00702749
0.00713565
0.00724698
0.00736181
0.00748051
0.00760351
0.00773128
0.00786442
0.0080034
0.0081486
0.00830034
0.00845896
0.00862475
0.00879794
0.00897873
0.00916741
0.00936432
0.00956972
0.0097838
0.010007
0.010239
0.0104798
0.0107295
0.0109878
0.0112546
0.0115281
0.0118076
0.0120924
0.01238
0.0126645
0.0129315
0.0132988
0.00315732
0.00323301
0.00349431
0.00376716
0.00404759
0.0043248
0.00458599
0.00483535
0.00506868
0.00528646
0.00549254
0.00568658
0.00586971
0.0060428
0.00620658
0.00636161
0.00650822
0.00664673
0.00677764
0.00690147
0.00701821
0.00712823
0.00723329
0.00733341
0.00742941
0.00752181
0.00761107
0.00769749
0.00778136
0.00786288
0.00794208
0.00801893
0.00809322
0.00816512
0.00823201
0.00829435
0.00835255
0.00840734
0.00845958
0.00851037
0.00856144
0.00861299
0.00866472
0.00871552
0.00876613
0.00881714
0.00886913
0.00892262
0.00897807
0.00903607
0.00909742
0.00916273
0.00923247
0.00930698
0.00938669
0.00947195
0.00956298
0.00965999
0.00976333
0.00987345
0.00999068
0.0101152
0.0102473
0.0103868
0.010534
0.0106886
0.0108509
0.0110207
0.0111979
0.0113819
0.0115715
0.0117645
0.0119557
0.0121279
0.0123889
0.00794725
0.0102731
0.0102025
0.0103747
0.0105717
0.0106344
0.0108171
0.0109126
0.0110003
0.0109304
0.0108333
0.0107018
0.0105542
0.0103968
0.0102358
0.0100787
0.009931
0.00979428
0.00966864
0.00955396
0.00970597
0.0098685
0.0100236
0.0101677
0.0103069
0.0104442
0.0105808
0.010716
0.0108479
0.0109744
0.0110947
0.0112079
0.0113119
0.0114085
0.0115
0.0115863
0.011668
0.0117459
0.011821
0.0118937
0.0119629
0.0120295
0.0120948
0.0121601
0.0122239
0.0122855
0.0123447
0.0124011
0.0124546
0.012503
0.0125472
0.0125889
0.0126295
0.0126701
0.012712
0.0127563
0.0128033
0.0128532
0.0129071
0.0129659
0.0130299
0.0130995
0.0131746
0.0132553
0.0133415
0.013433
0.0135301
0.0136331
0.0137418
0.0138557
0.0139736
0.0140939
0.0142117
0.0143062
0.0144881
0.0117833
0.0125351
0.0124559
0.0124755
0.0126742
0.012895
0.0131341
0.01335
0.0135376
0.0136737
0.0138319
0.0139969
0.0141705
0.0143477
0.0145248
0.0147004
0.0148742
0.0150447
0.0152107
0.015371
0.0155235
0.0156687
0.0158082
0.0159416
0.01607
0.0161942
0.0163153
0.0164391
0.0165714
0.0167107
0.016855
0.0170029
0.0171494
0.0172992
0.0174543
0.0176163
0.0177843
0.0179547
0.0181194
0.01804
0.0175754
0.0171294
0.0166858
0.016714
0.0169349
0.0171017
0.017223
0.0173073
0.017362
0.0173928
0.0174019
0.0173961
0.0173856
0.0173763
0.017372
0.0173751
0.0173858
0.0174015
0.0174184
0.017434
0.017449
0.0174641
0.01748
0.0174969
0.0175151
0.017535
0.0175583
0.0175871
0.0176211
0.0176593
0.0177014
0.0177468
0.0177923
0.0178116
0.0179134
0.00967107
0.00990554
0.0101396
0.0104092
0.0107057
0.0109558
0.0112078
0.0114395
0.0116651
0.0118917
0.0121253
0.0123677
0.012626
0.012891
0.013149
0.0134019
0.0136622
0.0139238
0.0141796
0.0144302
0.0146774
0.0149219
0.0151627
0.0153989
0.0156315
0.015861
0.0160865
0.0163082
0.0165269
0.0167429
0.0169566
0.0171686
0.0173795
0.01759
0.017801
0.0180133
0.0182268
0.0184406
0.0186525
0.0188581
0.0190522
0.0192325
0.0193988
0.0195501
0.0196846
0.0198028
0.019906
0.0199958
0.0200741
0.020143
0.0202041
0.0202623
0.0203322
0.0204118
0.020497
0.0205816
0.0206573
0.0207166
0.0207417
0.0207447
0.0207362
0.020723
0.0207088
0.0206963
0.0206867
0.0206811
0.02068
0.0206837
0.0206926
0.0207065
0.0207251
0.0207479
0.020774
0.0208031
0.020832
0.00831973
0.00871441
0.00908337
0.00943114
0.0098013
0.0100731
0.0103263
0.0105747
0.0108187
0.0110571
0.011291
0.0115219
0.0117509
0.0119787
0.0122021
0.0124199
0.0126342
0.0128477
0.0130621
0.0132782
0.013497
0.0137189
0.0139438
0.0141712
0.0144009
0.0146329
0.0148668
0.0151023
0.0153389
0.0155776
0.0158175
0.0160584
0.0162997
0.016541
0.0167822
0.0170232
0.0172638
0.0175036
0.0177415
0.0179753
0.0181978
0.0184046
0.0185986
0.0187828
0.0189611
0.0191395
0.0193229
0.0195046
0.0196828
0.0198581
0.0200315
0.0202042
0.0203777
0.0205518
0.0207254
0.0208959
0.0210599
0.0212132
0.0213513
0.0214715
0.0215716
0.0216517
0.0217142
0.021762
0.0217982
0.021826
0.0218487
0.0218721
0.021906
0.0219529
0.022011
0.0220778
0.0221493
0.0222192
0.0222745
0.00728988
0.00764758
0.0081149
0.00836361
0.00907386
0.00938302
0.00964828
0.00990319
0.0101513
0.0103886
0.0106173
0.0108405
0.0110607
0.0112797
0.011498
0.0117122
0.0119242
0.0121371
0.012352
0.012569
0.012788
0.0130086
0.01323
0.0134514
0.0136722
0.0138921
0.0141108
0.014328
0.0145435
0.0147572
0.0149692
0.0151794
0.015388
0.015595
0.0158005
0.0160048
0.0162078
0.0164095
0.0166089
0.0168045
0.0169951
0.0171798
0.017359
0.0175336
0.0177054
0.0178774
0.0180523
0.0182301
0.0184102
0.0185919
0.0187748
0.0189587
0.0191432
0.0193278
0.0195117
0.0196934
0.0198706
0.0200402
0.0201982
0.0203401
0.0204669
0.0205846
0.0206988
0.0208143
0.0209342
0.0210601
0.0211875
0.0213137
0.0214378
0.02156
0.0216801
0.0217981
0.0219134
0.0220255
0.022132
0.0082394
0.00835103
0.00869944
0.00917292
0.00919143
0.00933321
0.00950272
0.0096771
0.00979174
0.0100166
0.0101538
0.0102928
0.0104422
0.0106055
0.0107824
0.0109709
0.0111684
0.0113726
0.0115814
0.0117931
0.0120061
0.0122192
0.0124309
0.0126405
0.0128476
0.0130518
0.0132534
0.0134517
0.0136462
0.0138377
0.0140268
0.0142137
0.0143987
0.0145819
0.0147634
0.0149435
0.0151222
0.0152997
0.015476
0.015651
0.0158245
0.0159961
0.0161659
0.0163337
0.0164997
0.0166641
0.0168271
0.0169892
0.0171506
0.0173116
0.0174722
0.0176327
0.0177933
0.0179543
0.018116
0.0182788
0.0184417
0.0186037
0.0187636
0.0189204
0.0190731
0.0192213
0.0193649
0.0195044
0.01964
0.0197721
0.0199001
0.0200233
0.0201417
0.0202558
0.0203669
0.0204764
0.0205852
0.0206938
0.0208026
0.0209068
0.00328111
0.00373169
0.00423048
0.00482321
0.00534223
0.00588372
0.0064136
0.00692189
0.00740691
0.00788042
0.00833598
0.00876864
0.00917502
0.00954912
0.00990493
0.010235
0.0105338
0.0108141
0.0110724
0.0113108
0.011532
0.0117382
0.0119318
0.0121149
0.0122898
0.0124585
0.0126233
0.0127855
0.0129456
0.0131043
0.0132622
0.0134199
0.0135776
0.0137355
0.0138939
0.0140529
0.0142124
0.0143724
0.0145324
0.0146922
0.0148517
0.015011
0.0151702
0.0153291
0.0154878
0.0156462
0.0158042
0.0159617
0.0161188
0.0162753
0.0164313
0.0165869
0.0167419
0.0168964
0.0170502
0.0172034
0.017356
0.017508
0.0176592
0.0178097
0.0179595
0.0181091
0.018258
0.0184058
0.0185523
0.0186971
0.0188399
0.0189803
0.019118
0.0192528
0.0193848
0.019514
0.0196408
0.0197655
0.0198884
0.0200049
0.00460699
0.0043486
0.00430691
0.00431736
0.00438869
0.00451487
0.00468393
0.00488973
0.00512435
0.00538314
0.00565944
0.0059463
0.0062375
0.00652556
0.00680576
0.00707575
0.00733424
0.0075896
0.0078458
0.00810728
0.00836958
0.00863199
0.00889381
0.0091545
0.0094136
0.00966946
0.00992105
0.0101692
0.0104149
0.0106586
0.0109015
0.0111447
0.0113888
0.0116342
0.0118795
0.0121248
0.0123703
0.0126162
0.0128628
0.0131102
0.0133578
0.0136045
0.0138103
0.0140034
0.0141926
0.014378
0.0145599
0.0147385
0.0149141
0.015087
0.0152574
0.0154253
0.015591
0.0157549
0.0159175
0.0160789
0.0162394
0.0163992
0.0165584
0.0167171
0.0168753
0.0170331
0.0171907
0.0173479
0.0175045
0.0176605
0.0178158
0.0179703
0.0181241
0.0182767
0.0184281
0.018578
0.0187264
0.0188732
0.0190185
0.0191587
0.00932761
0.00910904
0.008767
0.00807464
0.00756066
0.00719657
0.0069359
0.00674075
0.00660964
0.00651539
0.00648277
0.0065585
0.00665605
0.00677729
0.00691828
0.0070745
0.00724539
0.0074172
0.00758041
0.00773528
0.00788145
0.00801822
0.00814535
0.0082655
0.00837539
0.00848435
0.00860374
0.00873466
0.00887453
0.00902236
0.00917719
0.00933856
0.00950643
0.00968002
0.00985704
0.0100378
0.0102222
0.0104101
0.0106012
0.0107954
0.0109925
0.0111921
0.0113939
0.0115972
0.0118022
0.0120087
0.0122161
0.0124242
0.0126326
0.0128409
0.0130488
0.0132556
0.0134611
0.0136648
0.0138664
0.0140656
0.014262
0.0144557
0.0146463
0.0148337
0.0150176
0.015198
0.0153749
0.0155595
0.0157414
0.0159174
0.0160881
0.0162536
0.016414
0.0165697
0.0167214
0.0168699
0.0170105
0.0171439
0.0172703
0.0174489
0.0134701
0.0132478
0.0130533
0.0128847
0.0127343
0.0125968
0.0124694
0.0123494
0.0122361
0.0121297
0.0120307
0.0119398
0.0118571
0.0117745
0.011685
0.0116201
0.0115793
0.0115612
0.0115625
0.011549
0.0115429
0.011545
0.0115546
0.0115712
0.0115946
0.0116248
0.0116616
0.0117052
0.0117554
0.0117471
0.0117162
0.0116805
0.0116415
0.0116119
0.0115932
0.0115856
0.0115888
0.0116024
0.0116261
0.0116598
0.0117029
0.0117529
0.0118103
0.0118748
0.0119463
0.0120245
0.0121092
0.0122004
0.0122977
0.0124006
0.0125095
0.0126242
0.0127443
0.0128695
0.0129995
0.013134
0.0132728
0.0134153
0.0135612
0.0137103
0.0138621
0.0140164
0.0141729
0.014331
0.0144903
0.0146501
0.0148099
0.0149691
0.0151271
0.0152831
0.015436
0.0155851
0.0157301
0.0158713
0.0160948
0.0168497
0.0167028
0.016563
0.0164284
0.0162971
0.0161676
0.016039
0.0159105
0.015782
0.0156534
0.0155252
0.0153978
0.0152721
0.0151488
0.0150287
0.0149127
0.0148014
0.0146956
0.0145956
0.014502
0.0144151
0.0143351
0.0142621
0.0141961
0.0141372
0.0140852
0.0140402
0.0140019
0.0139699
0.0139441
0.0139246
0.0139113
0.0139042
0.0139033
0.0139085
0.01392
0.0139376
0.0139615
0.0139915
0.0140278
0.0140702
0.0141175
0.0141698
0.0142271
0.0142894
0.0143567
0.0144288
0.0145059
0.014588
0.0146752
0.0147673
0.0148642
0.0149657
0.0150716
0.0151819
0.0152963
0.0153111
0.0153315
0.0153596
0.0153955
0.015439
0.0154899
0.015548
0.0156125
0.0156829
0.0157584
0.0158381
0.0159215
0.016008
0.0160966
0.0161866
0.0162782
0.0163729
0.016478
0.0166225
0.0186828
0.0186125
0.0185404
0.0184664
0.0183904
0.0183122
0.0182318
0.0181491
0.0180642
0.017977
0.0178878
0.0177968
0.0177043
0.0176106
0.0175161
0.0174212
0.0173263
0.0172318
0.0171382
0.0170459
0.0169555
0.0168673
0.0167816
0.0166988
0.0166193
0.0165432
0.0164707
0.0164022
0.0163378
0.0162774
0.0162212
0.0161694
0.016122
0.0160791
0.0160408
0.0160068
0.0159774
0.0159526
0.0159325
0.0159172
0.0159067
0.0159011
0.0159004
0.0159047
0.0159141
0.0159286
0.0159483
0.015973
0.0160022
0.0160357
0.0160737
0.0161161
0.016163
0.0162143
0.0162702
0.0163307
0.0163955
0.0164648
0.0165381
0.0166155
0.0166968
0.0167816
0.0168699
0.0169613
0.0170557
0.0171528
0.0172522
0.0173539
0.0174574
0.0175626
0.0176693
0.0177771
0.0178858
0.017995
0.0181012
0.0194459
0.019425
0.0193997
0.0193704
0.0193376
0.0193016
0.0192626
0.0192208
0.0191766
0.01913
0.0190812
0.0190303
0.0189775
0.018923
0.0188668
0.0188091
0.0187502
0.0186901
0.0186291
0.0185674
0.0185054
0.0184433
0.0183813
0.0183197
0.0182587
0.0181986
0.0181395
0.0180817
0.0180254
0.0179706
0.0179176
0.0178665
0.0178174
0.0177704
0.0177258
0.0176834
0.0176433
0.0176057
0.0175705
0.0175379
0.0175079
0.0174805
0.017456
0.0174341
0.0174149
0.0173986
0.0173853
0.0173749
0.0173677
0.0173636
0.0173627
0.0173652
0.017371
0.0173801
0.0173923
0.0174075
0.017426
0.0174478
0.0174728
0.0175013
0.0175333
0.0175686
0.0176074
0.0176496
0.0176951
0.0177438
0.0177957
0.0178507
0.0179087
0.0179695
0.0180329
0.018099
0.0181674
0.0182378
0.0183079
0.0192468
0.0195662
0.0195708
0.0195708
0.0195667
0.0195588
0.0195478
0.0195338
0.0195171
0.0194981
0.0194768
0.0194534
0.019428
0.0194008
0.0193719
0.0193413
0.0193093
0.0192759
0.0192411
0.0192052
0.0191683
0.0191305
0.0190922
0.0190533
0.0190142
0.0189749
0.0189357
0.0188966
0.0188579
0.0188195
0.0187817
0.0187445
0.018708
0.0186722
0.0186373
0.0186032
0.0185699
0.0185376
0.0185063
0.0184759
0.0184466
0.0184183
0.0183911
0.0183651
0.0183401
0.0183164
0.0182939
0.0182726
0.0182527
0.0182342
0.0182171
0.0182016
0.0181875
0.0181751
0.0181643
0.0181553
0.0181481
0.0181428
0.0181395
0.0181381
0.0181387
0.0181413
0.018146
0.0181529
0.018162
0.0181734
0.0181871
0.0182032
0.0182217
0.0182426
0.0182661
0.018292
0.0183204
0.0183512
0.0183833
0.0181435
0.0188705
0.0193838
0.0193989
0.0194098
0.019417
0.0194208
0.0194216
0.0194197
0.0194153
0.0194086
0.0193998
0.0193891
0.0193765
0.0193622
0.0193462
0.0193288
0.01931
0.0192899
0.0192686
0.0192463
0.0192231
0.0191991
0.0191744
0.0191493
0.0191239
0.0190983
0.0190726
0.0190468
0.0190211
0.0189953
0.0189696
0.0189441
0.0189191
0.0188944
0.0188701
0.0188461
0.0188225
0.0187992
0.0187763
0.0187536
0.0187312
0.018709