/*--------------------------------*- C++ -*----------------------------------*\
  =========                 |
  \\      /  F ield         | OpenFOAM: The Open Source CFD Toolbox
   \\    /   O peration     | Website:  https://openfoam.org
    \\  /    A nd           | Version:  13
     \\/     M anipulation  |
\*---------------------------------------------------------------------------*/
FoamFile
{
    format      ascii;
    class       volScalarField;
    location    "500";
    object      omega;
}
// * * * * * * * * * * * * * * * * * * * * * * * * * * * * * * * * * * * * * //

dimensions      [0 0 -1 0 0 0 0];

internalField   nonuniform List<scalar> 
173327
(
14.9447
14.8901
14.8359
14.7824
14.7294
14.677
14.6252
14.5739
14.5231
14.4728
14.4231
14.3738
14.3249
14.2765
14.2284
14.1808
14.1335
14.0866
14.0399
13.9936
13.9476
13.9019
13.8564
13.8113
13.7664
13.7217
13.6773
13.6332
13.5893
13.5456
13.5022
13.459
13.4161
13.3734
13.331
13.2887
13.2468
13.205
13.1635
13.1222
13.0811
13.0402
12.9995
12.9591
12.9188
12.8787
12.8389
12.7992
12.7597
12.7203
12.6811
12.6421
12.6032
12.5645
12.5259
12.4875
12.4492
12.411
12.373
12.335
12.2973
12.2596
12.222
12.1846
12.1473
12.1101
12.0731
12.0362
11.9994
11.9627
11.9262
11.8899
11.8537
11.8177
11.7818
11.7461
11.7109
14.9466
14.892
14.838
14.7845
14.7316
14.6793
14.6275
14.5763
14.5256
14.4754
14.4257
14.3764
14.3276
14.2792
14.2312
14.1836
14.1363
14.0894
14.0427
13.9964
13.9504
13.9047
13.8592
13.814
13.7691
13.7244
13.68
13.6358
13.5919
13.5482
13.5047
13.4615
13.4185
13.3758
13.3333
13.2911
13.2491
13.2073
13.1657
13.1244
13.0832
13.0423
13.0017
12.9612
12.9209
12.8808
12.8409
12.8013
12.7617
12.7224
12.6832
12.6442
12.6054
12.5667
12.5282
12.4898
12.4515
12.4134
12.3754
12.3375
12.2998
12.2622
12.2247
12.1874
12.1502
12.1131
12.0761
12.0393
12.0026
11.9661
11.9297
11.8935
11.8574
11.8215
11.7857
11.7501
11.7152
14.9502
14.8957
14.8418
14.7884
14.7357
14.6835
14.6318
14.5807
14.5301
14.48
14.4304
14.3813
14.3326
14.2842
14.2363
14.1888
14.1415
14.0947
14.0481
14.0018
13.9558
13.9101
13.8647
13.8195
13.7746
13.7299
13.6855
13.6413
13.5974
13.5537
13.5102
13.467
13.424
13.3813
13.3388
13.2965
13.2545
13.2127
13.1711
13.1298
13.0886
13.0477
13.007
12.9665
12.9263
12.8862
12.8463
12.8066
12.7671
12.7278
12.6886
12.6496
12.6108
12.5721
12.5336
12.4952
12.4569
12.4188
12.3809
12.343
12.3053
12.2677
12.2302
12.1929
12.1557
12.1186
12.0817
12.0449
12.0082
11.9716
11.9353
11.899
11.8629
11.827
11.7912
11.7557
11.7207
14.9557
14.9015
14.8478
14.7946
14.742
14.69
14.6385
14.5876
14.5371
14.4872
14.4377
14.3887
14.3401
14.2919
14.2441
14.1966
14.1495
14.1027
14.0562
14.01
13.964
13.9184
13.873
13.8278
13.7829
13.7383
13.6939
13.6497
13.6058
13.5621
13.5186
13.4754
13.4324
13.3897
13.3472
13.3049
13.2629
13.2211
13.1795
13.1381
13.097
13.0561
13.0154
12.9749
12.9346
12.8945
12.8547
12.815
12.7754
12.7361
12.6969
12.6579
12.6191
12.5804
12.5419
12.5035
12.4652
12.4271
12.3891
12.3513
12.3135
12.2759
12.2385
12.2011
12.1639
12.1268
12.0898
12.053
12.0163
11.9797
11.9433
11.907
11.8709
11.835
11.7992
11.7636
11.7286
14.9638
14.9098
14.8563
14.8034
14.7511
14.6993
14.6481
14.5973
14.5471
14.4973
14.448
14.3992
14.3507
14.3027
14.255
14.2076
14.1606
14.1139
14.0675
14.0213
13.9755
13.9299
13.8845
13.8394
13.7946
13.7499
13.7055
13.6614
13.6175
13.5738
13.5304
13.4872
13.4442
13.4015
13.359
13.3167
13.2746
13.2328
13.1912
13.1499
13.1088
13.0678
13.0271
12.9866
12.9463
12.9063
12.8664
12.8266
12.7871
12.7478
12.7086
12.6696
12.6307
12.592
12.5534
12.515
12.4767
12.4386
12.4006
12.3627
12.3249
12.2873
12.2498
12.2124
12.1751
12.138
12.1009
12.0641
12.0273
11.9907
11.9542
11.9179
11.8818
11.8458
11.8099
11.7743
11.7392
14.9749
14.9213
14.8681
14.8156
14.7635
14.712
14.6611
14.6106
14.5606
14.5111
14.462
14.4134
14.3651
14.3172
14.2696
14.2224
14.1755
14.1289
14.0826
14.0365
13.9907
13.9452
13.8999
13.8548
13.81
13.7654
13.721
13.6769
13.633
13.5893
13.5459
13.5027
13.4597
13.417
13.3745
13.3322
13.2901
13.2483
13.2067
13.1653
13.1242
13.0833
13.0425
13.002
12.9617
12.9216
12.8817
12.8419
12.8024
12.763
12.7238
12.6847
12.6458
12.6071
12.5685
12.53
12.4917
12.4535
12.4155
12.3775
12.3397
12.302
12.2644
12.227
12.1896
12.1524
12.1153
12.0784
12.0416
12.0049
11.9683
11.9319
11.8957
11.8596
11.8237
11.788
11.7528
14.99
14.9368
14.884
14.8319
14.7802
14.729
14.6784
14.6283
14.5786
14.5293
14.4805
14.4321
14.384
14.3363
14.2889
14.2418
14.195
14.1485
14.1023
14.0563
14.0106
13.9651
13.9198
13.8748
13.83
13.7854
13.7411
13.6969
13.653
13.6093
13.5659
13.5227
13.4797
13.4369
13.3944
13.3521
13.31
13.2681
13.2265
13.1851
13.1439
13.103
13.0622
13.0217
12.9813
12.9412
12.9012
12.8614
12.8218
12.7824
12.7431
12.704
12.6651
12.6263
12.5876
12.5491
12.5107
12.4724
12.4343
12.3963
12.3584
12.3206
12.2829
12.2454
12.208
12.1707
12.1335
12.0964
12.0595
12.0227
11.9861
11.9496
11.9133
11.8771
11.8411
11.8053
11.77
15.0104
14.9576
14.9054
14.8536
14.8024
14.7517
14.7014
14.6516
14.6022
14.5532
14.5047
14.4565
14.4086
14.3611
14.3139
14.267
14.2203
14.1739
14.1277
14.0818
14.0361
13.9906
13.9454
13.9003
13.8555
13.8109
13.7666
13.7224
13.6784
13.6347
13.5912
13.548
13.5049
13.4621
13.4195
13.3772
13.335
13.2931
13.2514
13.21
13.1687
13.1277
13.0869
13.0463
13.0059
12.9657
12.9256
12.8858
12.8461
12.8066
12.7673
12.7281
12.6891
12.6502
12.6114
12.5728
12.5343
12.4959
12.4577
12.4196
12.3816
12.3437
12.3059
12.2682
12.2307
12.1933
12.156
12.1188
12.0817
12.0448
12.0081
11.9715
11.935
11.8987
11.8625
11.8266
11.7912
15.0379
14.9857
14.934
14.8827
14.8319
14.7816
14.7318
14.6823
14.6332
14.5846
14.5363
14.4883
14.4406
14.3932
14.3461
14.2993
14.2527
14.2064
14.1602
14.1143
14.0686
14.0231
13.9778
13.9327
13.8879
13.8432
13.7987
13.7545
13.7105
13.6666
13.6231
13.5797
13.5365
13.4936
13.4509
13.4085
13.3662
13.3242
13.2824
13.2409
13.1995
13.1584
13.1175
13.0768
13.0363
12.9959
12.9558
12.9159
12.8761
12.8365
12.797
12.7577
12.7186
12.6795
12.6407
12.6019
12.5633
12.5248
12.4864
12.4481
12.41
12.3719
12.334
12.2962
12.2585
12.2209
12.1834
12.1461
12.1089
12.0718
12.0349
11.9981
11.9615
11.925
11.8887
11.8526
11.8171
15.0753
15.0236
14.9725
14.9217
14.8714
14.8215
14.772
14.7228
14.6741
14.6256
14.5775
14.5297
14.4821
14.4348
14.3877
14.3409
14.2943
14.2479
14.2017
14.1557
14.1099
14.0643
14.0189
13.9736
13.9286
13.8838
13.8392
13.7947
13.7505
13.7066
13.6628
13.6192
13.5759
13.5328
13.49
13.4473
13.4049
13.3627
13.3208
13.2791
13.2375
13.1962
13.1552
13.1143
13.0736
13.0331
12.9928
12.9527
12.9128
12.873
12.8333
12.7939
12.7545
12.7153
12.6763
12.6373
12.5985
12.5598
12.5213
12.4828
12.4444
12.4062
12.3681
12.33
12.2921
12.2543
12.2167
12.1791
12.1417
12.1044
12.0673
12.0303
11.9934
11.9568
11.9203
11.884
11.8483
15.1264
15.0754
15.0247
14.9744
14.9245
14.8749
14.8256
14.7766
14.728
14.6796
14.6315
14.5837
14.5361
14.4887
14.4415
14.3945
14.3477
14.3011
14.2547
14.2084
14.1623
14.1165
14.0708
14.0252
13.9799
13.9348
13.8899
13.8451
13.8006
13.7563
13.7123
13.6684
13.6248
13.5814
13.5383
13.4953
13.4526
13.4102
13.368
13.326
13.2842
13.2426
13.2013
13.1602
13.1192
13.0785
13.038
12.9976
12.9574
12.9174
12.8775
12.8378
12.7982
12.7587
12.7194
12.6802
12.6411
12.6022
12.5633
12.5246
12.486
12.4475
12.4091
12.3708
12.3326
12.2945
12.2566
12.2188
12.1811
12.1435
12.1061
12.0689
12.0318
11.9949
11.9581
11.9216
11.8857
15.1972
15.1467
15.0964
15.0463
14.9965
14.947
14.8977
14.8487
14.7999
14.7513
14.7029
14.6548
14.6068
14.559
14.5114
14.4639
14.4167
14.3696
14.3226
14.2758
14.2292
14.1828
14.1366
14.0905
14.0447
13.999
13.9535
13.9083
13.8633
13.8185
13.7739
13.7296
13.6855
13.6416
13.598
13.5546
13.5115
13.4686
13.426
13.3836
13.3414
13.2994
13.2577
13.2162
13.1749
13.1338
13.0928
13.0521
13.0115
12.9712
12.9309
12.8908
12.8509
12.8111
12.7714
12.7318
12.6924
12.6531
12.6139
12.5748
12.5358
12.497
12.4582
12.4196
12.381
12.3426
12.3043
12.2662
12.2281
12.1903
12.1525
12.115
12.0775
12.0403
12.0033
11.9664
11.9302
15.2972
15.2468
15.1965
15.1463
15.0962
15.0463
14.9965
14.9468
14.8973
14.848
14.7988
14.7497
14.7009
14.6521
14.6036
14.5551
14.5069
14.4588
14.4108
14.3631
14.3155
14.2681
14.2209
14.1739
14.1271
14.0805
14.0342
13.9881
13.9422
13.8966
13.8512
13.8061
13.7613
13.7167
13.6723
13.6283
13.5845
13.5409
13.4976
13.4546
13.4118
13.3692
13.3269
13.2848
13.2429
13.2013
13.1598
13.1185
13.0774
13.0365
12.9957
12.9551
12.9147
12.8744
12.8342
12.7941
12.7542
12.7144
12.6747
12.6351
12.5957
12.5563
12.5171
12.478
12.439
12.4001
12.3614
12.3228
12.2844
12.2461
12.2079
12.1699
12.1321
12.0945
12.0571
12.0199
11.9833
15.4427
15.392
15.341
15.2899
15.2386
15.1874
15.1361
15.0848
15.0336
14.9825
14.9315
14.8806
14.8299
14.7792
14.7288
14.6785
14.6284
14.5784
14.5287
14.4791
14.4298
14.3807
14.3318
14.2832
14.2348
14.1867
14.1389
14.0914
14.0441
13.9971
13.9504
13.904
13.8579
13.8122
13.7667
13.7215
13.6766
13.632
13.5877
13.5436
13.4999
13.4564
13.4131
13.3702
13.3274
13.2849
13.2426
13.2005
13.1586
13.1169
13.0754
13.034
12.9928
12.9518
12.9109
12.8701
12.8295
12.789
12.7487
12.7084
12.6683
12.6283
12.5885
12.5487
12.5092
12.4697
12.4304
12.3912
12.3522
12.3134
12.2747
12.2362
12.1979
12.1597
12.1218
12.0841
12.0471
15.6679
15.6157
15.5627
15.5091
15.455
15.4006
15.346
15.2912
15.2364
15.1816
15.1269
15.0723
15.0179
14.9636
14.9095
14.8557
14.8021
14.7487
14.6957
14.6429
14.5904
14.5383
14.4865
14.435
14.3839
14.3331
14.2827
14.2326
14.183
14.1337
14.0847
14.0362
13.988
13.9402
13.8927
13.8456
13.7989
13.7525
13.7065
13.6608
13.6155
13.5704
13.5257
13.4812
13.437
13.3931
13.3495
13.3061
13.2629
13.22
13.1773
13.1347
13.0924
13.0502
13.0082
12.9664
12.9247
12.8832
12.8419
12.8007
12.7596
12.7187
12.678
12.6374
12.5969
12.5567
12.5165
12.4766
12.4368
12.3972
12.3578
12.3186
12.2796
12.2408
12.2022
12.1639
12.1263
16.0514
15.996
15.9388
15.88
15.82
15.7591
15.6974
15.6354
15.5731
15.5107
15.4484
15.3862
15.3243
15.2627
15.2014
15.1405
15.0801
15.0201
14.9606
14.9016
14.843
14.785
14.7276
14.6706
14.6142
14.5584
14.503
14.4483
14.394
14.3403
14.2871
14.2345
14.1823
14.1307
14.0796
14.0289
13.9788
13.9291
13.8799
13.8311
13.7827
13.7348
13.6872
13.6401
13.5933
13.5468
13.5007
13.4549
13.4095
13.3643
13.3194
13.2748
13.2304
13.1863
13.1424
13.0987
13.0553
13.0121
12.969
12.9262
12.8836
12.8412
12.799
12.757
12.7152
12.6735
12.6321
12.591
12.55
12.5092
12.4687
12.4284
12.3884
12.3486
12.309
12.2697
12.2312
16.8213
16.7579
16.69
16.6186
16.5443
16.4679
16.39
16.3112
16.2317
16.1521
16.0725
15.9932
15.9143
15.8359
15.7583
15.6815
15.6056
15.5307
15.4567
15.3838
15.3118
15.2408
15.1708
15.1018
15.0338
14.9667
14.9006
14.8355
14.7712
14.7079
14.6454
14.5838
14.523
14.4631
14.4039
14.3455
14.2879
14.2309
14.1747
14.1192
14.0643
14.0101
13.9564
13.9034
13.8509
13.799
13.7476
13.6968
13.6464
13.5965
13.547
13.498
13.4494
13.4012
13.3534
13.306
13.2589
13.2122
13.1659
13.1199
13.0742
13.0288
12.9838
12.939
12.8946
12.8505
12.8067
12.7632
12.72
12.6771
12.6345
12.5922
12.5502
12.5085
12.4672
12.4261
12.3859
18.7088
18.6177
18.5156
18.4047
18.2869
18.1641
18.038
17.9098
17.7807
17.6516
17.5231
17.3958
17.27
17.1461
17.0243
16.9048
16.7876
16.6729
16.5607
16.4509
16.3435
16.2386
16.136
16.0357
15.9376
15.8416
15.7476
15.6557
15.5658
15.4779
15.3917
15.3074
15.2247
15.1437
15.0643
14.9864
14.91
14.8351
14.7615
14.6892
14.6182
14.5484
14.4799
14.4125
14.3462
14.281
14.2168
14.1536
14.0915
14.0302
13.9699
13.9105
13.8519
13.7941
13.7372
13.681
13.6256
13.5709
13.5169
13.4636
13.4109
13.3589
13.3075
13.2567
13.2065
13.1569
13.1078
13.0593
13.0113
12.9638
12.9168
12.8702
12.8242
12.7786
12.7334
12.6887
12.6449
23.7909
23.5492
23.2863
23.0084
22.7209
22.4281
22.1337
21.8406
21.5509
21.2664
20.9882
20.7172
20.4539
20.1985
19.9513
19.7123
19.4813
19.2582
19.0427
18.8347
18.6338
18.4397
18.2522
18.071
17.8957
17.7261
17.5619
17.4029
17.2488
17.0995
16.9546
16.8139
16.6774
16.5447
16.4157
16.2903
16.1683
16.0496
15.9339
15.8211
15.7113
15.6042
15.5
15.3983
15.2993
15.2027
15.1085
15.0167
14.9271
14.8397
14.7544
14.6712
14.5899
14.5106
14.4331
14.3574
14.2834
14.211
14.1402
14.071
14.0033
13.9369
13.8719
13.8083
13.7458
13.6846
13.6245
13.5654
13.5074
13.4504
13.3943
13.3391
13.2847
13.2311
13.1782
13.1266
37.31
36.6272
35.8978
35.1396
34.3675
33.5911
32.8199
32.0613
31.3204
30.6009
29.9054
29.2354
28.5914
27.9737
27.3821
26.816
26.2746
25.757
25.2624
24.7895
24.3374
23.905
23.4913
23.095
22.7154
22.3517
22.0028
21.6678
21.346
21.0366
20.739
20.4525
20.1766
19.9107
19.6543
19.4068
19.168
18.9373
18.7145
18.4993
18.2913
18.0903
17.8961
17.7085
17.5271
17.3519
17.1826
17.0191
16.8612
16.7086
16.5612
16.4189
16.2814
16.1485
16.0201
15.8961
15.7762
15.6603
15.5483
15.44
15.3353
15.234
15.136
15.041
14.949
14.8598
14.7732
14.6891
14.6073
14.5278
14.4502
14.3746
14.3008
14.2286
14.1579
14.0892
62.2481
60.9035
59.4565
57.945
56.4003
54.8476
53.3061
51.7903
50.3104
48.8734
47.4837
46.1432
44.8529
43.6134
42.4242
41.2844
40.1927
39.1477
38.1475
37.1902
36.274
35.3967
34.5566
33.7516
32.9799
32.2397
31.5293
30.847
30.1914
29.5609
28.9544
28.3705
27.8081
27.2663
26.7441
26.2406
25.755
25.2868
24.8351
24.3995
23.9794
23.5744
23.184
22.8079
22.4456
22.0967
21.761
21.4381
21.1275
20.8289
20.5417
20.2654
19.9997
19.7443
19.4991
19.2639
19.0382
18.822
18.6147
18.4163
18.2262
18.0442
17.87
17.7031
17.5432
17.39
17.2431
17.1021
16.9667
16.8364
16.711
16.59
16.473
16.3599
16.2501
16.144
92.841
91.0918
89.2264
87.289
85.3168
83.3396
81.3805
79.4551
77.5736
75.742
73.9631
72.2366
70.5617
68.9371
67.3612
65.8322
64.348
62.9068
61.5063
60.1444
58.8191
57.5281
56.2697
55.0417
53.8425
52.6702
51.5233
50.4004
49.3001
48.2215
47.1635
46.1255
45.1066
44.1068
43.1257
42.1633
41.2198
40.2954
39.3905
38.5055
37.6403
36.7956
35.9717
35.1692
34.3886
33.6304
32.8951
32.183
31.4945
30.8298
30.189
29.5719
28.9784
28.4088
27.863
27.3406
26.8415
26.3652
25.9113
25.4792
25.0684
24.678
24.3073
23.9556
23.622
23.3057
23.0057
22.7211
22.4509
22.1941
21.9498
21.7168
21.4943
21.2811
21.0764
20.8794
147.326
147.768
146.865
145.739
144.818
144.032
143.303
142.554
141.728
140.789
139.713
138.489
137.116
135.601
133.953
132.186
130.314
128.351
126.31
124.204
122.042
119.836
117.593
115.321
113.026
110.714
108.39
106.057
103.719
101.378
99.0387
96.702
94.3705
92.0466
89.733
87.4321
85.1466
82.8793
80.633
78.4106
76.2151
74.0499
71.9185
69.8243
67.7708
65.7615
63.7997
61.8888
60.0319
58.2319
56.4915
54.8133
53.1984
51.6477
50.1615
48.7397
47.3823
46.0886
44.8577
43.6886
42.5798
41.5298
40.5365
39.5981
38.7124
37.8771
37.0899
36.3484
35.6501
34.9926
34.3734
33.7902
33.2404
32.7214
32.2314
31.7685
294.22
308.072
317.608
322.053
321.956
318.387
312.502
305.139
296.999
288.582
280.163
271.92
263.955
256.318
249.029
242.088
235.487
229.21
223.239
217.551
212.118
206.916
201.917
197.1
192.444
187.929
183.534
179.244
175.044
170.918
166.857
162.85
158.889
154.968
151.089
147.25
143.455
139.702
135.994
132.328
128.704
125.124
121.592
118.112
114.689
111.328
108.033
104.808
101.658
98.5874
95.599
92.6961
89.8817
87.1582
84.5276
81.9916
79.5514
77.2079
74.9612
72.8111
70.7566
68.7964
66.9289
65.1521
63.4635
61.8604
60.34
58.8991
57.5344
56.2425
55.0202
53.8646
52.7733
51.7455
50.7776
358.172
236.053
181.158
165.89
161.024
159.079
156.782
154.862
152.885
151.557
150.876
150.811
151.286
152.226
153.551
155.185
157.059
159.11
161.284
163.517
164.691
165.22
165.257
164.947
164.377
163.605
162.669
161.598
160.413
159.13
157.762
156.308
154.737
153.087
151.357
149.551
147.673
145.734
143.742
141.715
139.669
137.595
135.479
133.304
131.074
128.793
126.469
124.11
121.725
119.327
116.923
114.521
112.129
109.753
107.398
105.072
102.779
100.524
98.3123
96.147
94.0314
91.9684
89.9605
88.0098
86.1182
84.2867
82.5161
80.8065
79.1575
77.5687
76.0394
74.5692
73.1586
71.8119
70.5258
131.941
115.887
113.289
111.272
109.894
108.013
105.859
103.437
100.825
98.1947
96.072
94.1708
92.4948
90.9931
89.6236
88.377
87.2615
86.2618
85.3612
84.5502
83.8004
83.1053
82.4752
81.8964
81.3651
80.8781
80.433
80.0698
79.8331
79.7073
79.6659
79.7288
79.952
80.3089
80.8377
81.5627
82.4956
83.6359
84.97
86.4614
88.0671
89.7878
91.5861
93.2163
94.5893
95.7383
96.6891
97.4601
98.0617
98.4916
98.7354
98.7885
98.681
98.4365
98.0739
97.6079
97.05
96.4097
95.6943
94.9115
94.0687
93.1733
92.2327
91.2542
90.2448
89.2109
88.158
87.091
86.0143
84.9324
83.8493
82.7686
81.6946
80.6363
79.595
116.999
117.152
117.004
116.106
113.748
110.798
107.26
103.919
100.886
98.0672
95.4702
93.1037
90.9898
89.0521
87.1352
85.281
83.6292
82.1073
80.6419
79.2548
77.9618
76.7638
75.6538
74.6227
73.6672
72.7832
71.9555
71.1774
70.4476
69.7637
69.1235
68.5263
67.9726
67.4626
66.9987
66.5844
66.223
65.9162
65.6635
65.4588
65.2898
65.1547
65.0562
64.993
64.9539
64.9355
64.941
64.9773
65.059
65.2158
65.4943
65.9439
66.6096
67.4648
68.4774
69.6033
70.7839
71.9493
72.9527
73.796
74.4797
75.0141
75.4176
75.7057
75.8911
75.9844
75.9952
75.9317
75.8019
75.6129
75.3708
75.081
74.7479
74.3789
73.9761
144.797
143.225
140.73
138.129
133.697
129.399
125.224
121.307
117.632
114.16
110.881
107.79
104.877
102.132
99.5219
97.0303
94.659
92.4139
90.2977
88.3101
86.4495
84.7117
83.0898
81.5748
80.1571
78.8312
77.5877
76.4174
75.3117
74.2687
73.2805
72.3407
71.4435
70.5845
69.76
68.9676
68.2054
67.4721
66.7655
66.0815
65.3929
64.6777
63.9483
63.2171
62.4989
61.8223
61.2171
60.6589
60.1406
59.6631
59.2293
58.8426
58.5062
58.2206
57.9844
57.7942
57.6446
57.5303
57.446
57.391
57.3759
57.3995
57.4509
57.5218
57.6055
57.6964
57.7891
57.8914
58.034
58.2219
58.4475
58.7013
58.9689
59.2276
59.4305
168.386
166.2
163.251
160.737
155.858
150.572
145.531
140.899
136.606
132.531
128.662
125.004
121.556
118.314
115.267
112.346
109.561
106.942
104.492
102.206
100.077
98.0927
96.2386
94.4995
92.8615
91.3123
89.8406
88.4355
87.0885
85.7923
84.5407
83.3283
82.1505
81.0039
79.8854
78.7929
77.7245
76.6787
75.6524
74.6428
73.6479
72.6658
71.6963
70.7405
69.8002
68.8799
67.9849
67.1161
66.2729
65.455
64.6618
63.893
63.148
62.4258
61.7251
61.0433
60.3754
59.7134
59.0431
58.3431
57.6125
56.8733
56.1476
55.4562
54.8174
54.2433
53.7215
53.2422
52.8003
52.3983
52.0329
51.7017
51.4021
51.132
50.898
140.624
159.905
172.176
182.559
178.528
175.922
172.815
169.785
167.073
163.697
159.515
155.118
150.741
146.504
142.457
138.61
134.956
131.493
128.231
125.17
122.305
119.621
117.102
114.734
112.501
110.388
108.382
106.463
104.612
102.831
101.115
99.4604
97.8628
96.318
94.8221
93.3721
91.9656
90.6012
89.2768
87.9901
86.7388
85.5207
84.3339
83.1768
82.0479
80.9457
79.869
78.817
77.7885
76.7826
75.7981
74.8341
73.8894
72.9627
72.0528
71.1594
70.2822
69.4201
68.5711
67.7329
66.9031
66.0798
65.2624
64.4511
63.6465
62.8495
62.0597
61.2764
60.4989
59.7273
58.9626
58.2076
57.4642
56.7339
56.0182
55.3132
318.515
326.661
329.203
325.037
316.732
305.526
292.612
278.748
264.793
251.349
238.762
227.186
216.647
207.105
198.443
190.551
183.337
176.717
170.628
165.014
159.819
154.996
150.501
146.299
142.358
138.653
135.162
131.867
128.751
125.799
122.996
120.333
117.798
115.382
113.079
110.881
108.781
106.774
104.85
103.001
101.227
99.5233
97.8877
96.317
94.8079
93.3569
91.9606
90.6155
89.3184
88.0661
86.8564
85.6864
84.5528
83.4525
82.3828
81.341
80.3244
79.3307
78.3574
77.4022
76.4627
75.5354
74.6197
73.715
72.8208
71.9371
71.0632
70.198
69.3407
68.4907
67.6479
66.8126
65.9851
65.1661
64.3566
63.554
145.37
154.549
162.577
169.748
176.179
181.77
186.414
190.029
192.59
194.105
194.637
194.285
193.177
191.357
188.972
186.172
183.087
179.812
176.408
172.921
169.396
165.872
162.38
158.943
155.58
152.262
148.942
145.649
142.408
139.238
136.151
133.155
130.258
127.462
124.771
122.186
119.706
117.329
115.052
112.872
110.784
108.784
106.869
105.034
103.276
101.589
99.9691
98.4128
96.9159
95.4748
94.0845
92.7385
91.4351
90.1722
88.9478
87.7596
86.6053
85.4827
84.3895
83.324
82.2842
81.2687
80.2764
79.3051
78.353
77.4182
76.4993
75.5945
74.7025
73.8227
72.9548
72.0984
71.2535
70.4205
69.5998
68.7964
60.9676
63.8072
66.3017
68.5754
70.7572
72.9192
75.0923
77.2874
79.4911
81.6875
83.8387
85.8593
87.7216
89.3965
90.8625
92.1071
93.1264
93.9266
94.5181
94.9194
95.1514
95.2366
95.1979
95.0557
94.8307
94.5702
94.3339
94.115
93.908
93.7087
93.5136
93.3195
93.1238
92.9207
92.6727
92.3823
92.0518
91.6836
91.2801
90.8433
90.3752
89.8777
89.3522
88.8008
88.2252
87.6271
87.0085
86.3713
85.7176
85.0493
84.3682
83.676
82.9743
82.2646
81.5482
80.8265
80.1006
79.3718
78.6411
77.9096
77.1783
76.4483
75.7203
74.9932
74.268
73.546
72.8285
72.1166
71.4113
70.7132
70.0232
69.3419
68.6709
68.0114
67.3653
66.736
34.0517
34.8062
35.4675
36.0956
36.717
37.3495
38.0057
38.6907
39.4076
40.1561
40.9331
41.7294
42.532
43.3304
44.1146
44.8756
45.6051
46.2962
46.9435
47.5435
48.0946
48.5969
49.0529
49.4648
49.8368
50.175
50.484
50.768
51.0307
51.2753
51.5047
51.7208
51.9279
52.1588
52.4099
52.6778
52.959
53.2505
53.549
53.8517
54.1556
54.4478
54.7271
54.9922
55.2418
55.4751
55.6913
55.8896
56.0694
56.2303
56.3716
56.4929
56.594
56.6747
56.7351
56.7753
56.7956
56.7966
56.779
56.7436
56.6909
56.6217
56.5368
56.4371
56.3234
56.1969
56.0587
55.9101
55.7525
55.5875
55.4166
55.2416
55.0645
54.8873
54.7076
24.4073
24.6435
24.8582
25.0597
25.2554
25.4509
25.6509
25.8585
26.0761
26.3049
26.5455
26.7977
27.0603
27.3321
27.6112
27.8957
28.1837
28.4731
28.7619
29.0485
29.3312
29.6086
29.88
30.1444
30.4015
30.6506
30.8916
31.1246
31.3517
31.573
31.7883
31.9976
32.2008
32.3986
32.5914
32.7795
32.963
33.1417
33.3155
33.4843
33.648
33.8167
33.9891
34.1642
34.3413
34.5196
34.6985
34.8774
35.0524
35.2233
35.3902
35.5532
35.7127
35.869
36.0222
36.1728
36.321
36.4667
36.6099
36.7506
36.8891
37.0257
37.1605
37.2937
37.4255
37.5561
37.6859
37.815
37.9439
38.0729
38.2025
38.3331
38.4652
38.5991
38.7325
20.9815
21.054
21.1175
21.1746
21.2277
21.2789
21.3299
21.3819
21.4361
21.4931
21.5535
21.6176
21.6853
21.7568
21.8319
21.9102
21.9916
22.0756
22.162
22.2505
22.3407
22.4324
22.5254
22.6194
22.7143
22.8098
22.9059
23.0027
23.0997
23.1968
23.2938
23.3906
23.4869
23.5826
23.6775
23.7726
23.8673
23.9614
24.0541
24.1451
24.2341
24.3209
24.4051
24.4868
24.5655
24.6412
24.7139
24.7834
24.8533
24.9236
24.9944
25.0657
25.1376
25.21
25.2823
25.3546
25.4275
25.5014
25.5765
25.6535
25.7329
25.8152
25.9007
25.99
26.0835
26.1816
26.2847
26.3931
26.5073
26.6275
26.7541
26.8871
27.0268
27.1727
27.3225
19.7316
19.7459
19.7542
19.758
19.7581
19.7558
19.7517
19.7467
19.7413
19.7358
19.7307
19.7262
19.7223
19.7192
19.717
19.7156
19.7151
19.7153
19.7164
19.7184
19.7213
19.7252
19.7302
19.7362
19.7435
19.7519
19.7615
19.7724
19.7845
19.7978
19.8123
19.8279
19.8445
19.8621
19.8808
19.9001
19.92
19.9403
19.9609
19.9817
20.0025
20.023
20.0433
20.0635
20.0834
20.1029
20.1217
20.1399
20.1572
20.1737
20.1895
20.2044
20.2187
20.2327
20.2475
20.2634
20.2806
20.2994
20.32
20.3422
20.3663
20.3925
20.4212
20.4529
20.4877
20.5263
20.5689
20.6158
20.6674
20.724
20.786
20.8534
20.9263
21.0047
21.087
19.3893
19.3818
19.3693
19.3526
19.3322
19.309
19.2835
19.2563
19.2276
19.1978
19.1672
19.1359
19.1041
19.0718
19.0391
19.0061
18.9728
18.9393
18.9056
18.8717
18.8378
18.8039
18.7702
18.7368
18.7038
18.6713
18.6394
18.6081
18.5777
18.5481
18.5194
18.4916
18.4648
18.4388
18.4137
18.3894
18.3659
18.343
18.3208
18.2991
18.2778
18.2569
18.2364
18.2161
18.1958
18.1755
18.1552
18.1347
18.1141
18.0933
18.0723
18.051
18.0297
18.0083
17.9869
17.9655
17.9443
17.9233
17.9029
17.8836
17.8656
17.8491
17.8344
17.8218
17.8114
17.8036
17.7986
17.7966
17.7978
17.8027
17.8112
17.8237
17.8401
17.8605
17.8843
19.4487
19.4342
19.4149
19.3913
19.3639
19.3333
19.3
19.2644
19.2269
19.1878
19.1473
19.1054
19.0625
19.0185
18.9735
18.9276
18.881
18.8335
18.7854
18.7367
18.6874
18.6377
18.5875
18.5371
18.4867
18.4362
18.3859
18.3357
18.2859
18.2362
18.1867
18.1375
18.0888
18.0407
17.9931
17.9462
17.8999
17.854
17.8087
17.7638
17.7194
17.6753
17.6315
17.588
17.5446
17.5014
17.4583
17.4152
17.372
17.3288
17.2855
17.242
17.1983
17.1544
17.1104
17.0664
17.0223
16.9783
16.9346
16.8911
16.8481
16.8056
16.7639
16.723
16.6831
16.6445
16.6075
16.5722
16.5389
16.5078
16.479
16.4526
16.4288
16.4076
16.3892
19.622
19.6047
19.5826
19.5558
19.5251
19.491
19.454
19.4144
19.3726
19.329
19.2836
19.2368
19.1886
19.1391
19.0885
19.0367
18.9839
18.9302
18.8757
18.8203
18.7643
18.7076
18.6503
18.5926
18.5346
18.4765
18.4183
18.3601
18.302
18.244
18.1861
18.1282
18.0707
18.0134
17.9565
17.8999
17.8437
17.7878
17.7322
17.6769
17.6218
17.5669
17.5121
17.4575
17.4028
17.3482
17.2935
17.2388
17.1839
17.1289
17.0738
17.0185
16.9631
16.9076
16.852
16.7964
16.7407
16.6851
16.6296
16.5744
16.5194
16.4649
16.4109
16.3575
16.3049
16.2532
16.2026
16.1531
16.1049
16.0582
16.013
15.9696
15.9279
15.8882
15.8507
19.5855
19.5663
19.5422
19.5137
19.4811
19.4451
19.4062
19.3647
19.321
19.2754
19.2282
19.1795
19.1294
19.0782
19.0258
18.9725
18.9183
18.8632
18.8074
18.751
18.694
18.6365
18.5786
18.5204
18.4622
18.4039
18.3457
18.2877
18.2299
18.1724
18.1149
18.0577
18.0009
17.9444
17.8883
17.8326
17.7773
17.7223
17.6677
17.6133
17.5591
17.505
17.4511
17.3972
17.3432
17.2893
17.2352
17.1809
17.1266
17.072
17.0173
16.9625
16.9075
16.8524
16.7972
16.7421
16.6871
16.6322
16.5775
16.5233
16.4695
16.4164
16.364
16.3124
16.2619
16.2126
16.1647
16.1182
16.0734
16.0304
15.9894
15.9504
15.9136
15.8791
15.8471
19.3359
19.3172
19.2938
19.2664
19.2354
19.2013
19.1645
19.1255
19.0846
19.042
18.9981
18.953
18.9068
18.8597
18.8119
18.7633
18.7141
18.6644
18.6143
18.5638
18.513
18.462
18.411
18.3601
18.3094
18.259
18.2089
18.1593
18.11
18.061
18.0124
17.9642
17.9165
17.8694
17.8229
17.777
17.7315
17.6865
17.6419
17.5975
17.5534
17.5095
17.4656
17.4219
17.3782
17.3345
17.2906
17.2467
17.2028
17.1587
17.1146
17.0704
17.0263
16.9823
16.9388
16.8959
16.8535
16.8118
16.7709
16.7309
16.692
16.6544
16.6184
16.584
16.5516
16.5214
16.4936
16.4684
16.4461
16.4269
16.4108
16.3982
16.389
16.3832
16.3806
19.2021
19.1874
19.1685
19.1462
19.1208
19.0929
19.0631
19.0316
18.9989
18.9652
18.9309
18.8959
18.8605
18.8249
18.789
18.753
18.7169
18.6808
18.6446
18.6087
18.5729
18.5375
18.5025
18.4681
18.4342
18.401
18.3684
18.3362
18.3045
18.2737
18.2437
18.2144
18.1859
18.1581
18.1311
18.1047
18.0787
18.0531
18.0278
18.0026
17.9775
17.9523
17.927
17.9015
17.8761
17.8506
17.825
17.7994
17.7738
17.7482
17.7227
17.6976
17.6735
17.6507
17.6292
17.6091
17.5905
17.5736
17.5587
17.546
17.5357
17.5281
17.5234
17.522
17.5241
17.5299
17.5398
17.554
17.5726
17.5958
17.6239
17.6568
17.6945
17.737
17.7829
19.4471
19.4489
19.4467
19.4414
19.4335
19.4238
19.4128
19.4012
19.3891
19.377
19.3651
19.3535
19.3424
19.3319
19.3219
19.3124
19.3035
19.2952
19.2876
19.2808
19.2747
19.2694
19.265
19.2614
19.2588
19.257
19.2562
19.2566
19.2577
19.2596
19.2623
19.2656
19.2695
19.2737
19.2783
19.2833
19.2891
19.2952
19.3015
19.3078
19.3139
19.3197
19.325
19.3296
19.3336
19.3369
19.3396
19.3417
19.3434
19.3461
19.3504
19.3565
19.3639
19.3724
19.3823
19.3938
19.4076
19.4237
19.4427
19.4648
19.4905
19.52
19.5539
19.5924
19.6358
19.6845
19.7389
19.7991
19.8652
19.9374
20.0159
20.1005
20.1911
20.2877
20.388
20.4847
20.5268
20.5635
20.5962
20.6264
20.6552
20.6836
20.7124
20.742
20.7728
20.805
20.8388
20.8742
20.9111
20.9495
20.9891
21.0301
21.0722
21.1154
21.1598
21.2056
21.2524
21.3001
21.3488
21.3982
21.4484
21.4991
21.5507
21.6043
21.6596
21.7162
21.7736
21.8313
21.8889
21.9461
22.0025
22.0578
22.1115
22.1634
22.2134
22.2611
22.3065
22.3493
22.3896
22.4287
22.4691
22.5108
22.5539
22.5981
22.6423
22.6859
22.7296
22.7737
22.8188
22.8654
22.914
22.965
23.0189
23.0762
23.1374
23.203
23.2734
23.349
23.4304
23.5179
23.6119
23.7126
23.8206
23.9359
24.0588
24.1895
24.3282
24.4747
24.6288
24.7872
23.1796
23.3088
23.4265
23.5365
23.6423
23.7465
23.8511
23.9574
24.0661
24.1776
24.2918
24.4087
24.528
24.6492
24.7719
24.896
25.0208
25.1461
25.2715
25.3966
25.5224
25.6502
25.7793
25.9091
26.0396
26.1708
26.3022
26.4338
26.5652
26.6962
26.827
26.9571
27.0863
27.2143
27.3405
27.4645
27.5856
27.7039
27.8257
27.9499
28.0756
28.2023
28.3295
28.4566
28.5818
28.7022
28.8181
28.9299
29.0379
29.1425
29.2442
29.3435
29.4408
29.5366
29.6314
29.7258
29.8204
29.916
30.0131
30.1124
30.2146
30.3201
30.4296
30.5436
30.6626
30.787
30.9172
31.0535
31.196
31.3449
31.5002
31.662
31.8302
32.0047
32.1819
29.8491
30.1953
30.5029
30.7848
31.052
31.3126
31.5717
31.8313
32.0925
32.3554
32.6191
32.8825
33.1444
33.4032
33.66
33.9139
34.1634
34.4075
34.6455
34.8774
35.1045
35.328
35.5485
35.7667
35.9831
36.1984
36.4128
36.6268
36.8403
37.0666
37.3106
37.5704
37.844
38.1295
38.4249
38.7277
39.0354
39.3452
39.6484
39.9425
40.2261
40.498
40.7575
41.0039
41.2367
41.4556
41.66
41.8497
42.0245
42.1845
42.3302
42.4618
42.58
42.6854
42.7787
42.8609
42.9327
42.995
43.0487
43.0947
43.134
43.1674
43.1958
43.2203
43.2417
43.261
43.2791
43.2967
43.3144
43.3324
43.3515
43.3725
43.396
43.4228
43.4524
48.4706
49.4661
50.3003
51.0287
51.6953
52.3253
52.9329
53.5212
54.0889
54.6311
55.1489
55.6384
56.0864
56.4921
56.8551
57.1771
57.4605
57.7082
57.9229
58.1254
58.3732
58.6629
58.9908
59.3529
59.7451
60.1635
60.6049
61.0655
61.5415
62.0141
62.4734
62.9161
63.3391
63.7391
64.113
64.458
64.7715
65.0509
65.2939
65.4993
65.6659
65.7928
65.8796
65.9264
65.9339
65.9029
65.835
65.7317
65.595
65.4267
65.229
65.0039
64.7537
64.4807
64.1871
63.8751
63.5468
63.2045
62.8502
62.4861
62.1127
61.732
61.3465
60.9582
60.5688
60.1795
59.7916
59.406
59.0243
58.6488
58.2817
57.9225
57.5708
57.2267
56.8909
109
112.511
115.446
117.984
120.24
122.253
124.02
125.527
126.749
127.603
128.1
128.409
128.524
128.454
128.217
127.832
127.318
126.695
125.982
125.176
124.231
123.171
122.015
120.781
119.487
118.148
116.775
115.378
113.967
112.547
111.125
109.707
108.296
106.897
105.512
104.143
102.793
101.462
100.151
98.8623
97.5949
96.3496
95.1265
93.9259
92.7479
91.5925
90.4599
89.35
88.2628
87.1957
86.1457
85.114
84.1016
83.1093
82.1372
81.1856
80.2544
79.3432
78.4517
77.5793
76.725
75.888
75.0677
74.2643
73.4767
72.7031
71.9423
71.1931
70.4545
69.7257
69.0065
68.2969
67.5976