/*--------------------------------*- C++ -*----------------------------------*\
  =========                 |
  \\      /  F ield         | OpenFOAM: The Open Source CFD Toolbox
   \\    /   O peration     | Website:  https://openfoam.org
    \\  /    A nd           | Version:  13
     \\/     M anipulation  |
\*---------------------------------------------------------------------------*/
FoamFile
{
    format      ascii;
    class       volScalarField;
    location    "500";
    object      p;
}
// * * * * * * * * * * * * * * * * * * * * * * * * * * * * * * * * * * * * * //

dimensions      [0 2 -2 0 0 0 0];

internalField   nonuniform List<scalar> 
173327
(
-10.5706
-10.6231
-10.642
-10.6284
-10.5841
-10.5108
-10.4108
-10.2866
-10.1404
-9.97479
-9.7917
-9.59316
-9.38112
-9.15753
-8.92429
-8.68307
-8.43544
-8.18274
-7.92629
-7.6674
-7.40727
-7.147
-6.88753
-6.62971
-6.3743
-6.12192
-5.87311
-5.6283
-5.38789
-5.15232
-4.92199
-4.69727
-4.47843
-4.26567
-4.05914
-3.85899
-3.66531
-3.47811
-3.29735
-3.12296
-2.95496
-2.79337
-2.63824
-2.48943
-2.34679
-2.21007
-2.07904
-1.95354
-1.83342
-1.7187
-1.60918
-1.50481
-1.40525
-1.31037
-1.21981
-1.13354
-1.05138
-0.973279
-0.898934
-0.827997
-0.760232
-0.695487
-0.633957
-0.575541
-0.520323
-0.467932
-0.418286
-0.370959
-0.325937
-0.282911
-0.242
-0.203028
-0.166164
-0.131265
-0.0983152
-0.066984
-0.0389624
-10.6119
-10.663
-10.6801
-10.6645
-10.6179
-10.5422
-10.4397
-10.3129
-10.1641
-9.99589
-9.8103
-9.6094
-9.39516
-9.16949
-8.93426
-8.69116
-8.44175
-8.18742
-7.9295
-7.66926
-7.40789
-7.14648
-6.88597
-6.62721
-6.37095
-6.11782
-5.86836
-5.62302
-5.3822
-5.14629
-4.91568
-4.69072
-4.47166
-4.25871
-4.05204
-3.85178
-3.65804
-3.47084
-3.29014
-3.11587
-2.948
-2.78655
-2.63154
-2.48287
-2.34038
-2.20386
-2.07306
-1.9478
-1.82796
-1.71343
-1.60414
-1.49993
-1.40061
-1.30591
-1.21562
-1.12954
-1.0476
-0.969667
-0.895506
-0.824787
-0.757233
-0.69277
-0.631407
-0.573208
-0.518073
-0.465859
-0.416293
-0.369173
-0.324266
-0.281467
-0.240679
-0.201919
-0.165159
-0.1304
-0.0975028
-0.0664891
-0.0378956
-10.6956
-10.7438
-10.7574
-10.7377
-10.6867
-10.6063
-10.4988
-10.3669
-10.2131
-10.0398
-9.84931
-9.64376
-9.42512
-9.19529
-8.95612
-8.7093
-8.4564
-8.19885
-7.93797
-7.67503
-7.41121
-7.14754
-6.88497
-6.62435
-6.3664
-6.11176
-5.86098
-5.61451
-5.37273
-5.13603
-4.90477
-4.67925
-4.45972
-4.24638
-4.03939
-3.83889
-3.64498
-3.4577
-3.277
-3.10284
-2.93515
-2.77392
-2.61913
-2.4707
-2.32847
-2.19224
-2.0618
-1.93695
-1.81753
-1.70344
-1.59456
-1.49074
-1.3918
-1.29751
-1.20762
-1.12196
-1.0404
-0.962809
-0.888972
-0.818608
-0.751481
-0.687473
-0.626574
-0.568772
-0.513993
-0.462071
-0.412801
-0.36596
-0.321366
-0.278887
-0.238457
-0.200052
-0.163651
-0.129154
-0.0964919
-0.0656023
-0.0371842
-10.8226
-10.8665
-10.8747
-10.8487
-10.7908
-10.703
-10.588
-10.4484
-10.2868
-10.1059
-9.90809
-9.69547
-9.47012
-9.23396
-8.9888
-8.73635
-8.4782
-8.21579
-7.95045
-7.68344
-7.41589
-7.14883
-6.88318
-6.61977
-6.3593
-6.10241
-5.84964
-5.60143
-5.35818
-5.12025
-4.88795
-4.66156
-4.44131
-4.22738
-4.01993
-3.81908
-3.62493
-3.43751
-3.25681
-3.08277
-2.91531
-2.75438
-2.59994
-2.45187
-2.31003
-2.17426
-2.04433
-1.92006
-1.80127
-1.68781
-1.57955
-1.47634
-1.378
-1.28432
-1.19505
-1.11
-1.02903
-0.951986
-0.878684
-0.808889
-0.74239
-0.679056
-0.618822
-0.561636
-0.507399
-0.455962
-0.407142
-0.360749
-0.316618
-0.274631
-0.234724
-0.19686
-0.160978
-0.126983
-0.0947602
-0.0642848
-0.0364822
-10.9943
-11.0321
-11.0328
-10.9983
-10.9309
-10.8331
-10.7077
-10.5576
-10.3856
-10.1945
-9.9867
-9.76457
-9.53019
-9.28549
-9.03231
-8.77236
-8.50721
-8.23834
-7.96706
-7.69462
-7.42212
-7.15057
-6.88085
-6.61375
-6.34997
-6.09013
-5.83473
-5.58424
-5.33902
-5.09942
-4.8657
-4.63814
-4.41692
-4.20221
-3.99416
-3.79286
-3.59841
-3.41085
-3.23014
-3.05623
-2.88904
-2.72848
-2.57447
-2.42689
-2.2856
-2.15043
-2.02117
-1.89765
-1.77965
-1.66701
-1.55957
-1.45718
-1.35964
-1.26676
-1.17831
-1.09408
-1.0139
-0.937625
-0.865075
-0.796049
-0.730358
-0.667856
-0.608444
-0.552029
-0.498502
-0.447718
-0.399518
-0.353739
-0.310238
-0.268908
-0.229682
-0.192513
-0.15733
-0.124022
-0.0925068
-0.0627462
-0.035744
-11.2126
-11.2425
-11.2334
-11.1877
-11.108
-10.9973
-10.8585
-10.6949
-10.5096
-10.3054
-10.0849
-9.85072
-9.60487
-9.34937
-9.08607
-8.81667
-8.54276
-8.2658
-7.9871
-7.70787
-7.4292
-7.15204
-6.87726
-6.6056
-6.33773
-6.07424
-5.81562
-5.56229
-5.31463
-5.07292
-4.83744
-4.6084
-4.38597
-4.17031
-3.96153
-3.75971
-3.56493
-3.3772
-3.1965
-3.02276
-2.8559
-2.69579
-2.54234
-2.39539
-2.2548
-2.1204
-1.992
-1.86939
-1.75236
-1.64074
-1.53433
-1.43296
-1.33646
-1.2446
-1.15718
-1.07398
-0.994821
-0.919538
-0.847962
-0.779908
-0.715201
-0.653689
-0.595248
-0.539764
-0.487113
-0.437161
-0.389765
-0.344784
-0.302092
-0.261591
-0.223212
-0.186901
-0.152588
-0.120179
-0.0896028
-0.0608216
-0.0348355
-11.4802
-11.4999
-11.4784
-11.4185
-11.3234
-11.1964
-11.041
-10.8607
-10.6588
-10.4385
-10.2026
-9.95356
-9.69372
-9.42509
-9.14952
-8.86873
-8.58428
-8.29761
-8.01002
-7.72268
-7.43663
-7.1528
-6.872
-6.59494
-6.32223
-6.05444
-5.792
-5.53534
-5.28477
-5.04058
-4.803
-4.57221
-4.34837
-4.13159
-3.92197
-3.71956
-3.52442
-3.33654
-3.15589
-2.98238
-2.81592
-2.65636
-2.50358
-2.35741
-2.2177
-2.08426
-1.95689
-1.83538
-1.71953
-1.60911
-1.50394
-1.40383
-1.30857
-1.21796
-1.13179
-1.04983
-0.971907
-0.897834
-0.827444
-0.76056
-0.697013
-0.636649
-0.579331
-0.524931
-0.473323
-0.424378
-0.377965
-0.333959
-0.292251
-0.252749
-0.215382
-0.180096
-0.146829
-0.115512
-0.086092
-0.0585273
-0.0337956
-11.8002
-11.8072
-11.7702
-11.6928
-11.5786
-11.4317
-11.256
-11.0553
-10.8335
-10.5938
-10.3393
-10.0726
-9.79618
-9.512
-9.22198
-8.9278
-8.63101
-8.33302
-8.03508
-7.73831
-7.44372
-7.15217
-6.86442
-6.58113
-6.30287
-6.03013
-5.76334
-5.50285
-5.24896
-5.00193
-4.76194
-4.52917
-4.30372
-4.08568
-3.87513
-3.6721
-3.47659
-3.28858
-3.10803
-2.93483
-2.76886
-2.60998
-2.45801
-2.31279
-2.17414
-2.04184
-1.91571
-1.79551
-1.68103
-1.57204
-1.46833
-1.36968
-1.2759
-1.18677
-1.10207
-1.02158
-0.945102
-0.872455
-0.803459
-0.737943
-0.675739
-0.616691
-0.560657
-0.507505
-0.457108
-0.409341
-0.364085
-0.321229
-0.280675
-0.242337
-0.206149
-0.172058
-0.140017
-0.109983
-0.0819255
-0.0558037
-0.0325675
-12.1769
-12.168
-12.1119
-12.0129
-11.8755
-11.7045
-11.5043
-11.2793
-11.0337
-10.7711
-10.4947
-10.2074
-9.91155
-9.60933
-9.30259
-8.993
-8.68207
-8.37114
-8.06141
-7.75395
-7.44967
-7.1494
-6.85381
-6.56351
-6.27901
-6.00074
-5.72907
-5.46432
-5.20674
-4.95654
-4.71389
-4.47891
-4.2517
-4.0323
-3.82075
-3.61706
-3.42119
-3.23312
-3.05274
-2.87995
-2.7146
-2.55652
-2.40554
-2.26145
-2.12404
-1.99311
-1.86843
-1.74976
-1.63687
-1.52952
-1.42749
-1.33055
-1.23848
-1.15106
-1.06806
-0.989255
-0.914446
-0.843437
-0.776045
-0.712094
-0.651418
-0.59386
-0.539279
-0.48754
-0.43852
-0.392099
-0.348168
-0.306627
-0.267389
-0.230377
-0.195531
-0.162806
-0.132169
-0.103606
-0.0771115
-0.0526495
-0.0311426
-12.6155
-12.5867
-12.507
-12.3817
-12.2163
-12.0163
-11.7868
-11.5331
-11.2595
-10.9701
-10.6683
-10.3571
-10.039
-9.71617
-9.39041
-9.06336
-8.73647
-8.411
-8.08807
-7.76866
-7.45361
-7.14365
-6.83939
-6.54134
-6.24996
-5.9656
-5.68859
-5.41917
-5.15755
-4.90392
-4.65838
-4.42103
-4.19192
-3.97107
-3.75849
-3.55413
-3.35796
-3.16987
-2.98977
-2.81751
-2.65292
-2.49582
-2.346
-2.20323
-2.0673
-1.93795
-1.81494
-1.69804
-1.58698
-1.48152
-1.38141
-1.28641
-1.19629
-1.11081
-1.02974
-0.952857
-0.879938
-0.810782
-0.7452
-0.683013
-0.624054
-0.568167
-0.515209
-0.465052
-0.417573
-0.372662
-0.330217
-0.29015
-0.252384
-0.216855
-0.183512
-0.15232
-0.123266
-0.0963635
-0.0716279
-0.0490405
-0.0295006
-13.122
-13.0688
-12.9601
-12.8028
-12.6035
-12.3688
-12.1048
-11.8172
-11.511
-11.1905
-10.8595
-10.521
-10.1776
-9.83143
-9.48428
-9.1377
-8.79303
-8.45144
-8.11394
-7.78139
-7.45453
-7.13398
-6.82026
-6.5138
-6.21495
-5.92401
-5.64122
-5.36678
-5.10084
-4.84353
-4.59492
-4.35507
-4.12398
-3.90164
-3.68801
-3.48303
-3.28659
-3.0986
-2.91889
-2.74731
-2.58366
-2.42773
-2.27927
-2.13805
-2.0038
-1.87628
-1.75521
-1.64032
-1.53134
-1.42801
-1.33007
-1.23726
-1.14934
-1.06605
-0.987157
-0.912418
-0.841611
-0.774524
-0.71096
-0.650737
-0.593685
-0.539651
-0.488492
-0.440082
-0.394308
-0.351064
-0.31026
-0.271818
-0.235675
-0.20178
-0.170095
-0.140601
-0.113306
-0.088248
-0.0654701
-0.0449766
-0.0276417
-13.7044
-13.6207
-13.4765
-13.2803
-13.0403
-12.7643
-12.4595
-12.1323
-11.7882
-11.432
-11.0676
-10.6982
-10.3262
-9.95395
-9.58299
-9.21479
-8.85055
-8.4913
-8.1379
-7.79108
-7.45143
-7.11945
-6.79555
-6.48006
-6.17322
-5.87525
-5.58632
-5.30655
-5.03605
-4.77487
-4.52305
-4.28059
-4.04747
-3.82362
-3.60897
-3.40341
-3.20682
-3.01903
-2.83987
-2.66915
-2.50663
-2.35206
-2.2052
-2.06576
-1.93346
-1.80802
-1.68914
-1.57653
-1.4699
-1.36898
-1.27347
-1.18311
-1.09764
-1.0168
-0.940318
-0.867963
-0.799496
-0.734696
-0.67336
-0.615301
-0.560349
-0.508349
-0.459163
-0.412668
-0.368757
-0.327334
-0.288319
-0.251648
-0.217271
-0.185154
-0.155275
-0.127635
-0.102265
-0.0792331
-0.0586122
-0.0404409
-0.0255582
-14.3719
-14.2503
-14.0624
-13.8189
-13.53
-13.205
-12.8522
-12.4788
-12.0911
-11.694
-11.2917
-10.8873
-10.4835
-10.0822
-9.68501
-9.29311
-8.90755
-8.52915
-8.1586
-7.79644
-7.44311
-7.09896
-6.76425
-6.43918
-6.12391
-5.81854
-5.52316
-5.23783
-4.96257
-4.69739
-4.44226
-4.19715
-3.96198
-3.73666
-3.52105
-3.31501
-3.11837
-2.93095
-2.75251
-2.58284
-2.42166
-2.26871
-2.12369
-1.98629
-1.85621
-1.73312
-1.61671
-1.50666
-1.40267
-1.30442
-1.21162
-1.12399
-1.04124
-0.963087
-0.889277
-0.819546
-0.753649
-0.691357
-0.63246
-0.576766
-0.524104
-0.47432
-0.427278
-0.382861
-0.340967
-0.301513
-0.26443
-0.229667
-0.197191
-0.166986
-0.139053
-0.113415
-0.0901319
-0.0692999
-0.0510335
-0.035419
-0.0232408
-15.1363
-14.9675
-14.7258
-14.4249
-14.0772
-13.694
-13.2848
-12.8578
-12.4198
-11.9761
-11.5309
-11.0875
-10.6482
-10.2149
-9.78897
-9.37131
-8.9627
-8.56374
-8.17487
-7.7964
-7.42859
-7.07159
-6.72551
-6.39041
-6.06633
-5.75325
-5.45117
-5.16007
-4.87991
-4.61062
-4.35214
-4.10436
-3.86717
-3.64042
-3.42394
-3.21754
-3.02101
-2.83412
-2.65661
-2.48821
-2.32863
-2.17754
-2.03463
-1.89956
-1.77198
-1.65154
-1.5379
-1.43071
-1.32964
-1.23436
-1.14457
-1.05993
-0.980171
-0.904987
-0.834099
-0.767236
-0.704142
-0.644581
-0.588334
-0.535205
-0.485021
-0.437629
-0.392899
-0.350717
-0.310991
-0.273646
-0.238627
-0.205899
-0.175448
-0.147281
-0.121424
-0.0979259
-0.0768791
-0.0584192
-0.0427079
-0.0298861
-0.0206683
-16.0113
-15.7834
-15.4752
-15.1043
-14.6861
-14.2339
-13.7588
-13.2697
-12.774
-12.2773
-11.7839
-11.2968
-10.8184
-10.3501
-9.89283
-9.44736
-9.01408
-8.59324
-8.18499
-7.78938
-7.4064
-7.03602
-6.67815
-6.33269
-5.99952
-5.67853
-5.36961
-5.07265
-4.78752
-4.5141
-4.25227
-4.00186
-3.76272
-3.53465
-3.31743
-3.11083
-2.91459
-2.72844
-2.55209
-2.38521
-2.22747
-2.07853
-1.93802
-1.80556
-1.68079
-1.56331
-1.45274
-1.34872
-1.25088
-1.15888
-1.07237
-0.991029
-0.914535
-0.842581
-0.774871
-0.71112
-0.651063
-0.594453
-0.541064
-0.490698
-0.443179
-0.398356
-0.356101
-0.316307
-0.278891
-0.243787
-0.210957
-0.180382
-0.152071
-0.126055
-0.102387
-0.0811517
-0.0624798
-0.046558
-0.0336032
-0.0238148
-0.017816
-17.0162
-16.7135
-16.3229
-15.8667
-15.3637
-14.8296
-14.2772
-13.7161
-13.1542
-12.5974
-12.0499
-11.5144
-10.993
-10.4865
-9.99559
-9.52038
-9.06088
-8.61693
-8.18832
-7.77478
-7.37603
-6.99176
-6.62169
-6.26553
-5.92302
-5.59392
-5.27801
-4.97507
-4.68492
-4.40736
-4.1422
-3.88923
-3.64823
-3.41895
-3.20114
-2.99452
-2.79879
-2.61362
-2.43867
-2.27359
-2.11801
-1.97152
-1.83373
-1.70423
-1.58259
-1.46839
-1.36124
-1.26071
-1.16643
-1.07802
-0.995107
-0.91735
-0.84441
-0.775961
-0.71169
-0.6513
-0.594513
-0.541075
-0.490753
-0.443345
-0.398673
-0.356588
-0.316965
-0.279704
-0.244731
-0.211993
-0.181465
-0.153149
-0.127077
-0.103308
-0.0819286
-0.06306
-0.0468865
-0.0336589
-0.0236552
-0.0171376
-0.0146364
-18.1717
-17.7742
-17.281
-16.7206
-16.1158
-15.4846
-14.8411
-14.1964
-13.5587
-12.9338
-12.3255
-11.7364
-11.1678
-10.6201
-10.0932
-9.58658
-9.09961
-8.63169
-8.18213
-7.75025
-7.33544
-6.93712
-6.55475
-6.18787
-5.83605
-5.49889
-5.17606
-4.86723
-4.57213
-4.29051
-4.02211
-3.76669
-3.52395
-3.29363
-3.07541
-2.86897
-2.67395
-2.48999
-2.31669
-2.15366
-2.00049
-1.85674
-1.72196
-1.59572
-1.47753
-1.36695
-1.26353
-1.16682
-1.07641
-0.991899
-0.912888
-0.839009
-0.769904
-0.705227
-0.64465
-0.587864
-0.534578
-0.484529
-0.437481
-0.393225
-0.351583
-0.312405
-0.275572
-0.240988
-0.208588
-0.178334
-0.150215
-0.124253
-0.100507
-0.0790645
-0.0600501
-0.0436373
-0.0300729
-0.019674
-0.012787
-0.00972987
-0.0110171
-19.5128
-18.9946
-18.3733
-17.6853
-16.9574
-16.2105
-15.4601
-14.7183
-13.9935
-13.2912
-12.6148
-11.9661
-11.3456
-10.753
-10.1871
-9.64679
-9.13074
-8.63763
-8.16621
-7.71534
-7.284
-6.87128
-6.47638
-6.09861
-5.73738
-5.39215
-5.0624
-4.74771
-4.44772
-4.16213
-3.89062
-3.63289
-3.38862
-3.15746
-2.93908
-2.73309
-2.53911
-2.35672
-2.18548
-2.02494
-1.8746
-1.734
-1.60264
-1.48004
-1.36569
-1.2591
-1.15978
-1.06725
-0.981058
-0.900775
-0.825982
-0.756284
-0.6913
-0.630666
-0.574035
-0.521083
-0.471511
-0.425046
-0.381446
-0.340503
-0.302039
-0.265906
-0.23199
-0.200203
-0.170488
-0.142817
-0.117198
-0.0936719
-0.0723223
-0.0532726
-0.0366909
-0.0228046
-0.0119229
-0.00443989
-0.000796317
-0.00140192
-0.00677861
-20.3898
-19.6102
-18.7669
-17.8913
-17.0066
-16.1305
-15.2758
-14.4507
-13.6606
-12.9082
-12.1943
-11.5181
-10.878
-10.2719
-9.69732
-9.15197
-8.63372
-8.14063
-7.67101
-7.2234
-6.79651
-6.38925
-6.00068
-5.63001
-5.27657
-4.93978
-4.61913
-4.3142
-4.0246
-3.74996
-3.48992
-3.24412
-3.01219
-2.79371
-2.58829
-2.39547
-2.21482
-2.04586
-1.88805
-1.74084
-1.60369
-1.47606
-1.35743
-1.24726
-1.14499
-1.0501
-0.962068
-0.880415
-0.804673
-0.734396
-0.669165
-0.608578
-0.552258
-0.49985
-0.451014
-0.405435
-0.362826
-0.322928
-0.285517
-0.250413
-0.217476
-0.1866
-0.157713
-0.130771
-0.105759
-0.0827015
-0.0616607
-0.0427457
-0.0261134
-0.0119742
-0.000609888
0.00759897
0.0121621
0.0125134
0.00810137
-0.00161645
-22.0103
-21.0321
-19.9987
-18.9446
-17.8957
-16.872
-15.8866
-14.9468
-14.0567
-13.2181
-12.4305
-11.6918
-10.999
-10.3484
-9.73639
-9.1595
-8.6146
-8.09894
-7.61012
-7.14613
-6.70522
-6.28593
-5.88704
-5.50751
-5.14649
-4.80326
-4.47723
-4.16787
-3.87474
-3.59742
-3.33551
-3.08861
-2.85631
-2.63817
-2.43373
-2.24248
-2.06392
-1.8975
-1.74266
-1.59883
-1.46545
-1.34194
-1.22768
-1.12208
-1.02453
-0.93445
-0.85129
-0.774521
-0.703646
-0.638192
-0.577712
-0.52178
-0.47001
-0.422042
-0.377524
-0.336127
-0.297559
-0.261546
-0.227842
-0.196264
-0.166676
-0.138981
-0.113118
-0.0890561
-0.066794
-0.0463701
-0.0278698
-0.0114276
0.00276766
0.0144653
0.0233327
0.0289146
0.0306111
0.0276986
0.0194179
0.00513923
-23.8815
-22.6498
-21.3772
-20.1006
-18.8487
-17.6459
-16.5067
-15.4374
-14.4403
-13.514
-12.6546
-11.857
-11.1152
-10.4235
-9.77664
-9.16984
-8.5991
-8.06101
-7.55268
-7.07167
-6.61593
-6.18374
-5.77365
-5.38445
-5.01512
-4.66483
-4.33285
-4.01861
-3.72156
-3.44124
-3.1772
-2.92899
-2.69618
-2.47827
-2.27474
-2.08503
-1.90859
-1.74483
-1.59315
-1.45295
-1.32358
-1.20439
-1.09472
-0.993907
-0.9013
-0.816271
-0.738214
-0.666561
-0.600773
-0.540344
-0.484801
-0.433688
-0.38658
-0.343093
-0.302877
-0.265607
-0.230989
-0.198762
-0.168698
-0.140616
-0.114374
-0.0898736
-0.0670516
-0.0458785
-0.0263574
-0.00854023
0.00746836
0.0215122
0.0333768
0.0427745
0.0493325
0.0525337
0.0516773
0.045869
0.0340506
0.0152882
-26.099
-24.5683
-23.0093
-21.4662
-19.9758
-18.5604
-17.2285
-15.989
-14.8477
-13.8037
-12.8512
-11.9814
-11.1841
-10.4496
-9.76944
-9.13621
-8.54402
-7.98811
-7.46466
-6.97055
-6.50328
-6.06082
-5.64156
-5.2442
-4.86766
-4.51106
-4.17369
-3.85498
-3.55439
-3.27144
-3.00565
-2.7566
-2.52384
-2.30681
-2.1049
-1.91745
-1.74383
-1.58344
-1.43566
-1.29981
-1.17514
-1.06091
-0.956392
-0.86088
-0.773672
-0.694091
-0.621481
-0.555229
-0.494757
-0.439529
-0.38905
-0.342855
-0.300517
-0.261648
-0.225889
-0.192914
-0.162421
-0.134149
-0.107877
-0.0834216
-0.0606398
-0.0394322
-0.0197422
-0.00154528
0.0151481
0.0302708
0.0437001
0.0552698
0.0647515
0.071864
0.0762346
0.0773383
0.0744418
0.0665607
0.0524031
0.0307856
-28.5999
-26.6622
-24.7308
-22.8282
-21.0634
-19.4557
-17.9703
-16.6009
-15.3469
-14.2031
-13.1641
-12.2206
-11.3611
-10.5743
-9.85028
-9.18051
-8.55792
-7.97696
-7.43284
-6.92153
-6.43972
-5.98482
-5.55475
-5.14788
-4.76291
-4.39873
-4.05449
-3.72959
-3.42347
-3.13564
-2.86575
-2.61354
-2.37865
-2.16051
-1.95836
-1.77141
-1.59901
-1.44052
-1.29526
-1.16254
-1.04155
-0.931439
-0.831353
-0.740481
-0.658046
-0.583306
-0.515556
-0.454126
-0.3984
-0.347808
-0.301819
-0.259974
-0.221862
-0.1871
-0.155326
-0.126202
-0.0994118
-0.0746801
-0.0517743
-0.0305105
-0.0107491
0.00760801
0.0246156
0.0402904
0.0546012
0.0674611
0.0787355
0.0882416
0.0957642
0.101063
0.103814
0.103567
0.0997096
0.0914456
0.0778178
0.0584258
-29.0692
-26.8042
-24.4013
-22.1744
-20.1958
-18.4328
-16.8825
-15.5196
-14.3114
-13.238
-12.2766
-11.4063
-10.6115
-9.87964
-9.20028
-8.56613
-7.97258
-7.41556
-6.89153
-6.39747
-5.93095
-5.48998
-5.07317
-4.6793
-4.30726
-3.95653
-3.62649
-3.3162
-3.0249
-2.75223
-2.49814
-2.2625
-2.04462
-1.84341
-1.6578
-1.48714
-1.33083
-1.18816
-1.0584
-0.940769
-0.834287
-0.737964
-0.650914
-0.572319
-0.501403
-0.437428
-0.379725
-0.327668
-0.280673
-0.2382
-0.199776
-0.164997
-0.1335
-0.10492
-0.0788956
-0.0550846
-0.0331887
-0.0129589
0.00580076
0.023234
0.0394397
0.0544794
0.0683604
0.0810243
0.0923577
0.102199
0.110349
0.116626
0.120848
0.12282
0.122314
0.119102
0.113121
0.105059
0.10023
-28.8517
-27.0199
-25.2887
-23.2687
-21.1996
-19.2842
-17.5707
-16.0545
-14.7172
-13.5439
-12.5083
-11.5822
-10.746
-9.98486
-9.28626
-8.63872
-8.03379
-7.46694
-6.9345
-6.43321
-5.96039
-5.51404
-5.09241
-4.69393
-4.31753
-3.96146
-3.62425
-3.30563
-3.00535
-2.72331
-2.46021
-2.21653
-1.99155
-1.78364
-1.59207
-1.41715
-1.25844
-1.11499
-0.985809
-0.869629
-0.764932
-0.670602
-0.585933
-0.510174
-0.442408
-0.381683
-0.327187
-0.278182
-0.233995
-0.194024
-0.157825
-0.125127
-0.0956834
-0.0691575
-0.045167
-0.0233526
-0.00341771
0.0149059
0.0318484
0.0475631
0.0621421
0.0756409
0.0880829
0.0994205
0.109495
0.118094
0.125028
0.130149
0.133357
0.13463
0.134048
0.131955
0.129476
0.129964
0.148466
-30.066
-27.7075
-25.6668
-23.5475
-21.475
-19.5528
-17.8161
-16.2629
-14.8882
-13.6887
-12.6355
-11.6956
-10.8481
-10.0763
-9.36632
-8.70729
-8.09195
-7.51526
-6.97299
-6.46164
-5.97879
-5.52263
-5.0914
-4.68377
-4.29851
-3.93396
-3.58932
-3.26499
-2.96145
-2.67898
-2.41698
-2.1744
-1.95086
-1.74664
-1.56068
-1.39
-1.23274
-1.08828
-0.956074
-0.835835
-0.728044
-0.632506
-0.547521
-0.4712
-0.40232
-0.340198
-0.284245
-0.233905
-0.188756
-0.14841
-0.112504
-0.0808923
-0.0532931
-0.0291624
-0.00787438
0.011172
0.0284312
0.0443411
0.0592014
0.0730881
0.0859867
0.0979002
0.108866
0.118831
0.127539
0.134735
0.140285
0.14409
0.146079
0.146335
0.145171
0.143382
0.143122
0.150046
0.187504
-30.6562
-28.0887
-25.7097
-23.4684
-21.3749
-19.4633
-17.7474
-16.2201
-14.8816
-13.7061
-12.6655
-11.7347
-10.8936
-10.1257
-9.41759
-8.75939
-8.144
-7.56609
-7.02148
-6.50675
-6.01936
-5.55774
-5.12103
-4.70835
-4.31831
-3.94961
-3.60165
-3.27423
-2.96736
-2.68121
-2.41492
-2.16724
-1.93771
-1.72622
-1.53193
-1.35344
-1.18959
-1.03937
-0.901952
-0.777113
-0.665162
-0.565726
-0.477585
-0.399544
-0.330795
-0.270314
-0.217053
-0.170539
-0.130264
-0.0953241
-0.0647856
-0.037831
-0.0137261
0.0080995
0.0281406
0.0467447
0.0641375
0.0802664
0.0950819
0.108546
0.120621
0.13143
0.141279
0.150183
0.15775
0.16373
0.168037
0.170383
0.170563
0.168757
0.165364
0.161159
0.158607
0.164733
0.205385
-30.112
-27.1897
-24.5767
-22.3138
-20.2997
-18.5107
-16.9453
-15.5682
-14.3567
-13.2832
-12.3236
-11.457
-10.6657
-9.93649
-9.25858
-8.6244
-8.02802
-7.4649
-6.93259
-6.42857
-5.94971
-5.49439
-5.0623
-4.65306
-4.26564
-3.89901
-3.55247
-3.22563
-2.91844
-2.63081
-2.36247
-2.11292
-1.8817
-1.6684
-1.47233
-1.29255
-1.12799
-0.977523
-0.840294
-0.715978
-0.604209
-0.504137
-0.414805
-0.335374
-0.265208
-0.203443
-0.149134
-0.101674
-0.0603971
-0.0246707
0.00626806
0.0335236
0.0580107
0.080299
0.100794
0.11972
0.137059
0.1525
0.165925
0.177595
0.187707
0.196168
0.202798
0.207555
0.210633
0.211971
0.21122
0.208353
0.203654
0.197282
0.189518
0.181095
0.173706
0.172629
0.199389
-30.3112
-26.8721
-23.6836
-20.9216
-18.7105
-16.9207
-15.4443
-14.2001
-13.1338
-12.2035
-11.3784
-10.6339
-9.95179
-9.31876
-8.72525
-8.16422
-7.6301
-7.11904
-6.62906
-6.15912
-5.70855
-5.27701
-4.86439
-4.47085
-4.09654
-3.74118
-3.40432
-3.08559
-2.7849
-2.50245
-2.23852
-1.99295
-1.76547
-1.55562
-1.36268
-1.18588
-1.02447
-0.877346
-0.743437
-0.622567
-0.514392
-0.417781
-0.331676
-0.255214
-0.187598
-0.12798
-0.0756105
-0.0298703
0.00988611
0.0443153
0.0742065
0.100474
0.123838
0.144795
0.163765
0.181031
0.196681
0.21076
0.223285
0.234298
0.243715
0.251398
0.25706
0.260623
0.262297
0.261939
0.259068
0.253811
0.246631
0.237646
0.226847
0.214408
0.200379
0.186204
0.182686
-34.3322
-31.8669
-28.4191
-24.7688
-21.4984
-18.9163
-16.8867
-15.2412
-13.8644
-12.6954
-11.6918
-10.8192
-10.051
-9.36338
-8.7374
-8.15924
-7.61985
-7.11221
-6.62802
-6.16152
-5.71242
-5.28181
-4.8701
-4.47684
-4.10199
-3.74605
-3.40907
-3.09037
-2.78921
-2.5054
-2.2393
-1.9913
-1.76129
-1.54882
-1.35327
-1.17392
-1.00998
-0.860651
-0.724944
-0.601894
-0.490893
-0.39128
-0.302198
-0.222791
-0.152269
-0.0899029
-0.0349905
0.0130573
0.0547901
0.090807
0.121768
0.14839
0.171471
0.191695
0.209523
0.225254
0.239043
0.251066
0.261698
0.271131
0.27934
0.286385
0.292379
0.29727
0.300807
0.302592
0.301929
0.298059
0.291027
0.281366
0.269231
0.254313
0.235993
0.213313
0.185459
0.154254
-34.2323
-31.3511
-28.0101
-24.5992
-21.6289
-19.2775
-17.3705
-15.7379
-14.3035
-13.0428
-11.9323
-10.9481
-10.0728
-9.2902
-8.58499
-7.94522
-7.36632
-6.8414
-6.34987
-5.8765
-5.42139
-4.98623
-4.57078
-4.17465
-3.79792
-3.44125
-3.1049
-2.78813
-2.49033
-2.21144
-1.95147
-1.71051
-1.48833
-1.28429
-1.0977
-0.927797
-0.773658
-0.634285
-0.508581
-0.395566
-0.294611
-0.205094
-0.126244
-0.0571954
0.00298225
0.0551978
0.100309
0.139005
0.171906
0.199708
0.223197
0.243164
0.260296
0.275137
0.288075
0.299382
0.309193
0.31759
0.324642
0.330386
0.334897
0.338316
0.340762
0.342139
0.342235
0.340737
0.337192
0.331151
0.3223
0.310324
0.294733
0.274858
0.249721
0.217739
0.176346
0.123627
-31.3342
-28.7339
-25.9944
-23.2822
-20.8227
-18.7103
-16.9014
-15.336
-13.9773
-12.7951
-11.7594
-10.8426
-10.0236
-9.28332
-8.60312
-7.96939
-7.36981
-6.79234
-6.2372
-5.71076
-5.21328
-4.74326
-4.29903
-3.88
-3.48689
-3.1216
-2.78354
-2.46951
-2.17677
-1.9042
-1.65217
-1.4203
-1.20776
-1.01355
-0.836644
-0.676078
-0.530919
-0.400232
-0.283151
-0.178901
-0.0867135
-0.00586961
0.0643811
0.124899
0.176619
0.220492
0.257356
0.287984
0.313146
0.333575
0.349992
0.363034
0.3733
0.381332
0.387548
0.392272
0.395754
0.398157
0.39958
0.400133
0.39992
0.398978
0.397328
0.394836
0.39123
0.386115
0.378981
0.369302
0.356534
0.340101
0.319312
0.293188
0.26033
0.218683
0.164628
0.0932846
-29.1511
-26.9612
-24.7094
-22.4747
-20.3689
-18.4698
-16.7902
-15.3063
-13.9895
-12.8151
-11.7616
-10.8109
-9.9482
-9.16045
-8.43527
-7.76224
-7.13291
-6.54224
-5.98946
-5.47284
-4.98783
-4.53065
-4.09902
-3.69155
-3.3067
-2.94204
-2.5968
-2.27247
-1.97063
-1.69172
-1.43473
-1.19852
-0.982188
-0.785292
-0.607356
-0.447309
-0.303878
-0.175608
-0.0613691
0.0395034
0.127698
0.20395
0.269047
0.323841
0.369314
0.406517
0.436458
0.460124
0.47837
0.491921
0.501419
0.507502
0.510869
0.512182
0.511909
0.510377
0.507826
0.504427
0.500287
0.495485
0.490025
0.483865
0.476965
0.4691
0.459872
0.44892
0.43582
0.420015
0.400825
0.377469
0.349029
0.314263
0.271467
0.218183
0.150472
0.060838
-25.5504
-23.5895
-21.6529
-19.8073
-18.1042
-16.56
-15.1652
-13.9035
-12.7603
-11.722
-10.7756
-9.90914
-9.11204
-8.37449
-7.68802
-7.04563
-6.44233
-5.87467
-5.33967
-4.83495
-4.3586
-3.90926
-3.48596
-3.0879
-2.71443
-2.36569
-2.04223
-1.74402
-1.46997
-1.21862
-0.988844
-0.77959
-0.589522
-0.417211
-0.261645
-0.122131
0.00177614
0.110806
0.206184
0.289004
0.360271
0.420924
0.471762
0.513695
0.547698
0.574704
0.595608
0.611166
0.622057
0.628923
0.6324
0.633147
0.63178
0.628765
0.624446
0.619062
0.612786
0.605779
0.598132
0.589747
0.580423
0.569903
0.557905
0.544133
0.52828
0.509879
0.488248
0.462558
0.431848
0.394987
0.350575
0.29676
0.230786
0.148425
0.0398085
-24.5441
-22.8009
-21.0854
-19.4392
-17.8944
-16.4639
-15.1464
-13.9345
-12.8195
-11.7924
-10.844
-9.9654
-9.14888
-8.38768
-7.67583
-7.00832
-6.38116
-5.79141
-5.23692
-4.71598
-4.22697
-3.7683
-3.33854
-2.93651
-2.56129
-2.21214
-1.88837
-1.58907
-1.31319
-1.05969
-0.827697
-0.616357
-0.42469
-0.251744
-0.0966923
0.0412272
0.162852
0.269312
0.361894
0.441797
0.51012
0.567963
0.616356
0.655969
0.687357
0.711368
0.728938
0.740917
0.748064
0.751201
0.751182
0.748638
0.744031
0.737785
0.730252
0.721681
0.712239
0.702076
0.691227
0.679631
0.667163
0.653594
0.638602
0.621769
0.602581
0.580398
0.554409
0.523624
0.486893
0.44288
0.389989
0.326213
0.248931
0.154545
0.0357409
-23.766
-22.1828
-20.6234
-19.117
-17.6853
-16.3395
-15.0823
-13.9108
-12.8202
-11.8046
-10.8582
-9.97484
-9.14917
-8.37618
-7.65142
-6.97092
-6.33134
-5.72999
-5.16473
-4.63371
-4.13532
-3.66807
-3.2306
-2.82173
-2.44049
-2.08604
-1.75764
-1.45452
-1.17572
-0.920243
-0.687131
-0.475421
-0.28409
-0.112069
0.0416894
0.178192
0.298465
0.403597
0.4947
0.572867
0.639152
0.694604
0.74026
0.77704
0.805796
0.827388
0.842659
0.852472
0.857704
0.859116
0.857284
0.852719
0.84592
0.837349
0.827417
0.816476
0.804746
0.792285
0.779059
0.765017
0.750033
0.733836
0.716046
0.696163
0.673572
0.647544
0.617187
0.581378
0.538812
0.488002
0.427226
0.354511
0.267681
0.164506
0.0425834
-23.1825
-21.7147
-20.2664
-18.8601
-17.5123
-16.2325
-15.0243
-13.8873
-12.8192
-11.8164
-10.8752
-9.99135
-9.16109
-8.38071
-7.64681
-6.95633
-6.30656
-5.69522
-5.12036
-4.58034
-4.07368
-3.59902
-3.1551
-2.74076
-2.35496
-1.99677
-1.66529
-1.35961
-1.07871
-0.82153
-0.587049
-0.37425
-0.182081
-0.00948467
0.144561
0.281131
0.401315
0.506194
0.596852
0.674383
0.739863
0.794349
0.838895
0.874489
0.902026
0.922355
0.936324
0.944795
0.948591
0.948421
0.944911
0.938651
0.93017
0.919981
0.908537
0.896107
0.882832
0.868781
0.853949
0.838265
0.821549
0.803484
0.783634
0.761435
0.736192
0.7071
0.673173
0.633189
0.585716
0.529155
0.461755
0.38169
0.287314
0.17778
0.0545094
-22.732
-21.3454
-19.9746
-18.6386
-17.3508
-16.1195
-14.9486
-13.839
-12.7899
-11.7992
-10.8646
-9.98324
-9.15232
-8.3691
-7.63094
-6.9354
-6.28024
-5.66347
-5.08332
-4.53824
-4.02683
-3.5478
-3.09993
-2.68211
-2.29328
-1.93242
-1.59854
-1.29067
-1.00784
-0.749066
-0.513318
-0.299556
-0.106713
0.0662819
0.220494
0.357023
0.476988
0.581499
0.671669
0.748613
0.81342
0.86715
0.910836
0.945467
0.971982
0.991288
1.00427
1.01178
1.01464
1.01353
1.0091
1.00196
0.992665
0.981644
0.96928
0.955866
0.941599
0.926583
0.910824
0.894207
0.876484
0.857281
0.836121
0.812414
0.785412
0.754225
0.717767
0.674721
0.623568
0.562646
0.490202
0.404576
0.304616
0.190554
0.0659563
-22.4242
-21.0877
-19.7652
-18.4736
-17.2246
-16.0255
-14.8803
-13.7905
-12.7559
-11.7755
-10.8475
-9.96986
-9.14046
-8.35709
-7.6176
-6.91995
-6.26222
-5.64263
-5.05959
-4.51164
-3.99746
-3.51581
-3.06555
-2.64558
-2.25488
-1.89244
-1.55727
-1.2484
-0.964832
-0.705497
-0.469315
-0.255187
-0.0620448
0.111154
0.265492
0.402067
0.521992
0.626377
0.716334
0.792976
0.857401
0.910681
0.953856
0.987927
1.01386
1.03256
1.04493
1.05182
1.05402
1.05226
1.04722
1.03951
1.02962
1.018
1.00505
0.991045
0.976176
0.960573
0.944246
0.927053
0.908742
0.888929
0.867092
0.842612
0.814729
0.782473
0.744661
0.699903
0.646636
0.583169
0.507766
0.418898
0.315756
0.199306
0.0742042
-22.2361
-20.9244
-19.6266
-18.3584
-17.1307
-15.9503
-14.8208
-13.7438
-12.7196
-11.7472
-10.8252
-9.95188
-9.12542
-8.34389
-7.60538
-6.90809
-6.25028
-5.63035
-5.04679
-4.49823
-3.98341
-3.50113
-3.05026
-2.62976
-2.23858
-1.87572
-1.54024
-1.23116
-0.947448
-0.688011
-0.451767
-0.237632
-0.0445463
0.12854
0.282709
0.419063
0.538721
0.642806
0.732436
0.808723
0.872756
0.925607
0.968325
1.00193
1.02739
1.04565
1.05758
1.06406
1.06588
1.06376
1.05841
1.05043
1.04032
1.02851
1.01539
1.00127
0.986309
0.970626
0.954203
0.9369
0.918504
0.898673
0.876825
0.852287
0.824309
0.791843
0.753629
0.708266
0.654202
0.589781
0.513324
0.423367
0.319254
0.20188
0.0771938
-22.1929
-20.8796
-19.5824
-18.3164
-17.0921
-15.916
-14.7913
-13.7193
-12.7
-11.7323
-10.8146
-9.94517
-9.12209
-8.34346
-7.60739
-6.91214
-6.25604
-5.63753
-5.05518
-4.50765
-3.9937
-3.51216
-3.06194
-2.64199
-2.2513
-1.88887
-1.55376
-1.24499
-0.961523
-0.702297
-0.466258
-0.252352
-0.0595211
0.113292
0.267167
0.403213
0.522556
0.626329
0.715667
0.791682
0.855461
0.908073
0.950569
0.983972
1.00926
1.02737
1.0392
1.04561
1.0474
1.0453
1.04
1.03212
1.02215
1.01055
0.997707
0.983907
0.969344
0.954085
0.93812
0.921374
0.903614
0.884434
0.863281
0.839495
0.812284
0.780616
0.743257
0.698822
0.645772
0.582456
0.507196
0.418543
0.315817
0.199855
0.0763762
-22.2867
-20.9462
-19.6262
-18.3422
-17.1046
-15.9192
-14.7888
-13.7142
-12.6946
-11.7282
-10.8131
-9.94687
-9.1274
-8.35248
-7.62009
-6.92834
-6.27553
-5.66007
-5.08051
-4.53553
-4.02388
-3.54441
-3.09605
-2.67778
-2.28861
-1.92757
-1.59364
-1.28579
-1.00304
-0.744387
-0.508843
-0.295391
-0.102993
0.0693918
0.222824
0.35841
0.477299
0.580647
0.669601
0.745279
0.808773
0.861152
0.903462
0.936721
0.96191
0.97997
0.99182
0.998322
1.00028
0.998417
0.993428
0.985918
0.976394
0.965298
0.953042
0.93993
0.926143
0.911752
0.896752
0.881039
0.864375
0.846374
0.826528
0.804192
0.778558
0.748657
0.713317
0.671191
0.620768
0.560421
0.488473
0.403413
0.304392
0.19223
0.071191
-22.4855
-21.0942