/*--------------------------------*- C++ -*----------------------------------*\
  =========                 |
  \\      /  F ield         | OpenFOAM: The Open Source CFD Toolbox
   \\    /   O peration     | Website:  https://openfoam.org
    \\  /    A nd           | Version:  13
     \\/     M anipulation  |
\*---------------------------------------------------------------------------*/
FoamFile
{
    format      ascii;
    class       volScalarField;
    location    "0";
    object      omega;
}
// * * * * * * * * * * * * * * * * * * * * * * * * * * * * * * * * * * * * * //

dimensions      [0 0 -1 0 0 0 0];

internalField   uniform 30;

boundaryField
{
    inlet
    {
        type            fixedValue;
        value           nonuniform List<scalar> 0();
    }
    outlet
    {
        type            inletOutlet;
        inletValue      nonuniform List<scalar> 0();
        value           nonuniform List<scalar> 0();
    }
    sides
    {
        type            slip;
    }
    topBottom
    {
        type            slip;
    }
    bajaSurface
    {
        type            omegaWallFunction;
        value           uniform 30;
    }
    procBoundary5to0
    {
        type            processor;
        value           uniform 30;
    }
    procBoundary5to1
    {
        type            processor;
        value           uniform 30;
    }
    procBoundary5to2
    {
        type            processor;
        value           uniform 30;
    }
    procBoundary5to4
    {
        type            processor;
        value           uniform 30;
    }
    procBoundary5to6
    {
        type            processor;
        value           uniform 30;
    }
    procBoundary5to7
    {
        type            processor;
        value           uniform 30;
    }
}


// ************************************************************************* //
