/*--------------------------------*- C++ -*----------------------------------*\
  =========                 |
  \\      /  F ield         | OpenFOAM: The Open Source CFD Toolbox
   \\    /   O peration     | Website:  https://openfoam.org
    \\  /    A nd           | Version:  13
     \\/     M anipulation  |
\*---------------------------------------------------------------------------*/
FoamFile
{
    format      ascii;
    class       volScalarField;
    location    "300";
    object      k;
}
// * * * * * * * * * * * * * * * * * * * * * * * * * * * * * * * * * * * * * //

dimensions      [0 2 -2 0 0 0 0];

internalField   nonuniform List<scalar> 
173327
(
0.275192
0.273995
0.272814
0.271649
0.2705
0.269367
0.26825
0.26715
0.266064
0.264994
0.263938
0.262897
0.261869
0.260855
0.259852
0.258861
0.257879
0.256908
0.255946
0.254992
0.254047
0.253108
0.252177
0.251251
0.25033
0.249415
0.248503
0.247596
0.246694
0.245794
0.244899
0.244005
0.243115
0.242226
0.24134
0.240455
0.239571
0.238689
0.237809
0.236931
0.236054
0.235178
0.234303
0.23343
0.232558
0.231689
0.230821
0.229956
0.229092
0.228231
0.227372
0.226516
0.225663
0.224814
0.223967
0.223126
0.222288
0.221455
0.220628
0.219807
0.218991
0.21818
0.217376
0.216576
0.215783
0.214996
0.214217
0.213443
0.212677
0.211917
0.211165
0.210418
0.209679
0.208946
0.208219
0.207501
0.206802
0.275254
0.274059
0.27288
0.271716
0.270569
0.269438
0.268323
0.267224
0.26614
0.265071
0.264016
0.262976
0.26195
0.260936
0.259935
0.258944
0.257964
0.256993
0.256032
0.25508
0.254135
0.253198
0.252267
0.251342
0.250423
0.249509
0.248598
0.247693
0.246791
0.245893
0.244999
0.244107
0.243218
0.242331
0.241446
0.240562
0.23968
0.2388
0.237922
0.237046
0.236171
0.235297
0.234424
0.233553
0.232683
0.231816
0.23095
0.230087
0.229226
0.228367
0.22751
0.226656
0.225805
0.224957
0.224113
0.223273
0.222437
0.221606
0.22078
0.219959
0.219144
0.218334
0.217528
0.216729
0.215936
0.215148
0.214368
0.213594
0.212826
0.212065
0.211311
0.210563
0.209821
0.209086
0.208358
0.207637
0.206935
0.275386
0.274196
0.27302
0.271861
0.270717
0.26959
0.268478
0.267383
0.266302
0.265237
0.264185
0.263148
0.262125
0.261114
0.260115
0.259127
0.258149
0.257181
0.256222
0.255271
0.254328
0.253392
0.252463
0.25154
0.250622
0.24971
0.248801
0.247897
0.246997
0.2461
0.245207
0.244316
0.243428
0.242542
0.241659
0.240776
0.239896
0.239017
0.23814
0.237265
0.23639
0.235517
0.234645
0.233775
0.232906
0.232039
0.231174
0.230311
0.229451
0.228592
0.227735
0.226882
0.226031
0.225184
0.22434
0.2235
0.222664
0.221832
0.221006
0.220184
0.219368
0.218557
0.217751
0.216951
0.216156
0.215368
0.214586
0.21381
0.213041
0.212278
0.211522
0.210772
0.210029
0.209292
0.208562
0.207839
0.207134
0.275595
0.274411
0.273242
0.272089
0.270951
0.269829
0.268724
0.267633
0.266558
0.265498
0.264451
0.263419
0.262399
0.261392
0.260397
0.259412
0.258438
0.257472
0.256516
0.255568
0.254627
0.253693
0.252766
0.251845
0.250929
0.250018
0.249111
0.248208
0.247309
0.246414
0.245521
0.244631
0.243744
0.242859
0.241976
0.241094
0.240215
0.239336
0.23846
0.237584
0.23671
0.235837
0.234966
0.234095
0.233226
0.232359
0.231494
0.23063
0.229769
0.22891
0.228053
0.227199
0.226348
0.2255
0.224656
0.223815
0.222979
0.222146
0.221319
0.220496
0.219679
0.218866
0.218059
0.217258
0.216462
0.215673
0.21489
0.214113
0.213343
0.212579
0.211822
0.211071
0.210326
0.209588
0.208856
0.208132
0.207426
0.275896
0.27472
0.27356
0.272415
0.271285
0.270171
0.269073
0.26799
0.266922
0.265869
0.264829
0.263802
0.262788
0.261786
0.260796
0.259816
0.258846
0.257884
0.256932
0.255987
0.255049
0.254118
0.253193
0.252274
0.25136
0.250451
0.249545
0.248644
0.247747
0.246852
0.24596
0.245071
0.244184
0.2433
0.242417
0.241535
0.240656
0.239777
0.2389
0.238024
0.23715
0.236276
0.235404
0.234533
0.233663
0.232795
0.231928
0.231064
0.230201
0.229341
0.228483
0.227628
0.226775
0.225926
0.225081
0.224239
0.223401
0.222567
0.221738
0.220914
0.220095
0.219281
0.218473
0.21767
0.216874
0.216083
0.215299
0.214521
0.213749
0.212984
0.212226
0.211474
0.210728
0.209989
0.209257
0.208531
0.207824
0.276309
0.275145
0.273995
0.272861
0.271742
0.270638
0.269549
0.268476
0.267416
0.266371
0.265339
0.26432
0.263313
0.262317
0.261333
0.260358
0.259393
0.258436
0.257487
0.256546
0.255612
0.254684
0.253762
0.252845
0.251933
0.251025
0.250122
0.249222
0.248325
0.247431
0.24654
0.245651
0.244765
0.24388
0.242997
0.242115
0.241235
0.240356
0.239478
0.238601
0.237725
0.23685
0.235977
0.235104
0.234233
0.233363
0.232494
0.231628
0.230764
0.229901
0.229042
0.228184
0.22733
0.226479
0.225632
0.224788
0.223948
0.223112
0.222282
0.221456
0.220635
0.219819
0.219009
0.218205
0.217406
0.216614
0.215828
0.215049
0.214276
0.213509
0.21275
0.211996
0.211249
0.210509
0.209775
0.209048
0.208341
0.276869
0.275718
0.274582
0.27346
0.272353
0.271262
0.270184
0.269122
0.268072
0.267037
0.266014
0.265003
0.264004
0.263015
0.262037
0.261068
0.260108
0.259156
0.258212
0.257275
0.256344
0.255419
0.254499
0.253585
0.252675
0.251769
0.250866
0.249967
0.249071
0.248178
0.247286
0.246397
0.24551
0.244625
0.243741
0.242858
0.241976
0.241096
0.240216
0.239337
0.23846
0.237583
0.236707
0.235832
0.234958
0.234086
0.233215
0.232346
0.231479
0.230614
0.229751
0.228891
0.228034
0.22718
0.22633
0.225483
0.224641
0.223803
0.222969
0.222141
0.221317
0.220499
0.219687
0.21888
0.21808
0.217285
0.216498
0.215716
0.214941
0.214173
0.213411
0.212656
0.211908
0.211166
0.21043
0.209702
0.208993
0.277622
0.276488
0.275367
0.274261
0.273168
0.27209
0.271026
0.269975
0.268937
0.267912
0.266898
0.265896
0.264905
0.263924
0.262952
0.261989
0.261034
0.260087
0.259146
0.258212
0.257284
0.256362
0.255444
0.254531
0.253622
0.252716
0.251814
0.250915
0.250019
0.249124
0.248232
0.247342
0.246453
0.245566
0.24468
0.243795
0.242911
0.242028
0.241145
0.240263
0.239383
0.238502
0.237623
0.236745
0.235867
0.234991
0.234117
0.233244
0.232373
0.231504
0.230638
0.229774
0.228913
0.228055
0.227201
0.226351
0.225505
0.224663
0.223826
0.222994
0.222168
0.221346
0.220531
0.219721
0.218918
0.218121
0.21733
0.216546
0.215768
0.214997
0.214233
0.213476
0.212725
0.211981
0.211243
0.210513
0.209803
0.27864
0.277525
0.276422
0.275332
0.274255
0.273191
0.27214
0.271101
0.270075
0.26906
0.268055
0.267061
0.266077
0.265103
0.264136
0.263178
0.262227
0.261283
0.260345
0.259413
0.258486
0.257564
0.256646
0.255733
0.254823
0.253917
0.253013
0.252113
0.251214
0.250317
0.249423
0.248529
0.247637
0.246746
0.245857
0.244968
0.244079
0.243192
0.242305
0.241418
0.240532
0.239647
0.238763
0.237879
0.236997
0.236115
0.235235
0.234357
0.233481
0.232607
0.231735
0.230866
0.23
0.229137
0.228278
0.227423
0.226572
0.225726
0.224884
0.224047
0.223216
0.222391
0.221571
0.220757
0.21995
0.219149
0.218354
0.217567
0.216786
0.216012
0.215244
0.214484
0.21373
0.212982
0.212242
0.211509
0.210796
0.280026
0.27893
0.277846
0.276773
0.275711
0.274661
0.273622
0.272595
0.271577
0.270571
0.269573
0.268585
0.267606
0.266635
0.265671
0.264714
0.263764
0.26282
0.261882
0.260948
0.26002
0.259095
0.258175
0.257258
0.256345
0.255434
0.254527
0.253621
0.252717
0.251815
0.250915
0.250016
0.249118
0.248221
0.247324
0.246428
0.245533
0.244639
0.243744
0.242851
0.241958
0.241065
0.240173
0.239282
0.238392
0.237503
0.236616
0.23573
0.234846
0.233965
0.233086
0.23221
0.231337
0.230467
0.229601
0.228739
0.227882
0.227029
0.226181
0.225338
0.224501
0.22367
0.222845
0.222026
0.221213
0.220407
0.219608
0.218815
0.21803
0.217251
0.216479
0.215714
0.214956
0.214205
0.21346
0.212723
0.212007
0.281925
0.280848
0.27978
0.278722
0.277672
0.276633
0.275602
0.274581
0.273569
0.272566
0.27157
0.270583
0.269602
0.268629
0.267663
0.266702
0.265747
0.264798
0.263853
0.262913
0.261978
0.261046
0.260117
0.259192
0.25827
0.25735
0.256433
0.255518
0.254605
0.253693
0.252782
0.251873
0.250965
0.250057
0.24915
0.248243
0.247337
0.246432
0.245527
0.244622
0.243718
0.242814
0.241912
0.24101
0.240109
0.23921
0.238312
0.237416
0.236522
0.23563
0.234741
0.233855
0.232973
0.232094
0.231219
0.230348
0.229482
0.22862
0.227764
0.226914
0.226069
0.22523
0.224397
0.223571
0.222752
0.221939
0.221133
0.220334
0.219542
0.218758
0.21798
0.217209
0.216446
0.215689
0.214939
0.214197
0.213475
0.28454
0.283478
0.282422
0.281371
0.280327
0.279289
0.278258
0.277234
0.276217
0.275207
0.274203
0.273206
0.272215
0.27123
0.27025
0.269276
0.268307
0.267343
0.266383
0.265427
0.264475
0.263527
0.262582
0.261641
0.260702
0.259765
0.258831
0.257899
0.256969
0.25604
0.255113
0.254187
0.253261
0.252337
0.251413
0.25049
0.249568
0.248646
0.247724
0.246804
0.245884
0.244965
0.244046
0.243129
0.242214
0.241299
0.240387
0.239477
0.238569
0.237663
0.236761
0.235862
0.234966
0.234075
0.233188
0.232305
0.231427
0.230555
0.229688
0.228826
0.227971
0.227122
0.22628
0.225445
0.224616
0.223795
0.22298
0.222173
0.221373
0.22058
0.219795
0.219017
0.218246
0.217482
0.216724
0.215975
0.215247
0.288149
0.287093
0.286035
0.284978
0.283924
0.282871
0.281823
0.280778
0.279739
0.278704
0.277674
0.276649
0.27563
0.274615
0.273606
0.272602
0.271603
0.270608
0.269618
0.268632
0.267651
0.266673
0.265698
0.264728
0.26376
0.262795
0.261833
0.260874
0.259916
0.258961
0.258007
0.257055
0.256104
0.255154
0.254206
0.253258
0.252311
0.251366
0.250421
0.249478
0.248535
0.247594
0.246654
0.245716
0.244779
0.243845
0.242912
0.241983
0.241056
0.240132
0.239211
0.238295
0.237382
0.236474
0.23557
0.234672
0.233779
0.232891
0.23201
0.231135
0.230266
0.229405
0.22855
0.227702
0.226861
0.226028
0.225202
0.224384
0.223574
0.22277
0.221975
0.221187
0.220406
0.219632
0.218865
0.218106
0.217368
0.293116
0.292046
0.290967
0.289881
0.288789
0.287696
0.286601
0.285507
0.284415
0.283327
0.282242
0.281161
0.280086
0.279015
0.27795
0.276891
0.275837
0.274788
0.273745
0.272707
0.271675
0.270647
0.269624
0.268606
0.267591
0.266581
0.265575
0.264572
0.263573
0.262576
0.261582
0.260591
0.259602
0.258615
0.25763
0.256647
0.255666
0.254686
0.253709
0.252733
0.251759
0.250787
0.249817
0.24885
0.247885
0.246923
0.245963
0.245007
0.244055
0.243106
0.242162
0.241222
0.240287
0.239357
0.238432
0.237513
0.2366
0.235693
0.234793
0.2339
0.233013
0.232134
0.231263
0.230399
0.229543
0.228694
0.227854
0.227021
0.226196
0.225379
0.22457
0.223768
0.222974
0.222187
0.221407
0.220636
0.219886
0.299964
0.298851
0.297713
0.296556
0.295385
0.294203
0.293015
0.291824
0.290632
0.289443
0.288257
0.287075
0.2859
0.28473
0.283569
0.282414
0.281267
0.280128
0.278998
0.277874
0.276759
0.275651
0.274551
0.273457
0.272371
0.271291
0.270216
0.269148
0.268085
0.267027
0.265974
0.264925
0.26388
0.262839
0.261802
0.260768
0.259738
0.258711
0.257688
0.256667
0.25565
0.254636
0.253626
0.252619
0.251615
0.250616
0.249621
0.24863
0.247644
0.246663
0.245686
0.244716
0.243751
0.242792
0.241839
0.240893
0.239954
0.239022
0.238097
0.23718
0.23627
0.235369
0.234475
0.23359
0.232712
0.231844
0.230983
0.230131
0.229287
0.228451
0.227623
0.226803
0.225991
0.225186
0.224389
0.2236
0.222833
0.309498
0.308302
0.307055
0.305767
0.304448
0.303108
0.301747
0.300378
0.299007
0.297638
0.296274
0.294917
0.293569
0.292232
0.290906
0.289593
0.288292
0.287005
0.28573
0.284468
0.28322
0.281983
0.280759
0.279547
0.278347
0.277157
0.275977
0.274808
0.273648
0.272497
0.271355
0.27022
0.269093
0.267974
0.266861
0.265754
0.264654
0.26356
0.262472
0.261389
0.260312
0.259241
0.258175
0.257114
0.256059
0.25501
0.253967
0.25293
0.251899
0.250875
0.249857
0.248846
0.247842
0.246845
0.245856
0.244874
0.2439
0.242935
0.241977
0.241028
0.240088
0.239156
0.238233
0.237319
0.236414
0.235517
0.234629
0.233751
0.23288
0.232019
0.231166
0.230321
0.229484
0.228655
0.227833
0.22702
0.22623
0.323238
0.321851
0.320368
0.318811
0.3172
0.315551
0.31388
0.312196
0.31051
0.30883
0.307159
0.305502
0.30386
0.302233
0.300627
0.299045
0.297486
0.29595
0.294439
0.292951
0.291485
0.290042
0.288621
0.28722
0.28584
0.284479
0.283136
0.281812
0.280503
0.279211
0.277934
0.276672
0.275423
0.274187
0.272964
0.271752
0.270552
0.269362
0.268182
0.267013
0.265853
0.264702
0.26356
0.262427
0.261303
0.260187
0.25908
0.257981
0.256892
0.25581
0.254738
0.253674
0.252618
0.251572
0.250535
0.249507
0.248488
0.247478
0.246478
0.245487
0.244506
0.243534
0.242572
0.241619
0.240676
0.239742
0.238818
0.237903
0.236997
0.2361
0.235213
0.234333
0.233462
0.232599
0.231745
0.230899
0.230076
0.343369
0.341549
0.339573
0.337481
0.335309
0.333088
0.330841
0.328589
0.326345
0.324121
0.321924
0.31976
0.317632
0.315544
0.313495
0.311488
0.309522
0.307597
0.305714
0.303871
0.302067
0.300302
0.298573
0.296876
0.295211
0.293581
0.291984
0.290419
0.288884
0.287378
0.2859
0.284447
0.28302
0.281615
0.280233
0.278871
0.277529
0.276207
0.274901
0.273613
0.272341
0.271084
0.269842
0.268614
0.267399
0.266198
0.265009
0.263833
0.262669
0.261516
0.260375
0.259246
0.258127
0.25702
0.255924
0.254838
0.253764
0.2527
0.251647
0.250604
0.249572
0.248551
0.247539
0.246538
0.245547
0.244567
0.243596
0.242635
0.241683
0.240741
0.239808
0.238884
0.237969
0.237062
0.236163
0.235274
0.234408
0.368154
0.365337
0.362374
0.359322
0.356225
0.353119
0.350031
0.346978
0.343973
0.341014
0.338131
0.335314
0.332564
0.329882
0.327268
0.324721
0.322241
0.319827
0.317478
0.315192
0.312968
0.310805
0.3087
0.306651
0.304657
0.302715
0.300824
0.298982
0.297186
0.295435
0.293726
0.292057
0.290426
0.288833
0.287273
0.285743
0.284243
0.282771
0.281328
0.279911
0.278519
0.277152
0.275807
0.274483
0.27318
0.271896
0.270631
0.269382
0.268151
0.266935
0.265735
0.264549
0.263378
0.26222
0.261076
0.259945
0.258826
0.257719
0.256625
0.255542
0.25447
0.253409
0.25236
0.251321
0.250292
0.249273
0.248264
0.247265
0.246275
0.245294
0.244322
0.243358
0.242403
0.241455
0.240515
0.239599
0.39469
0.391155
0.387506
0.383817
0.380104
0.376404
0.37274
0.369127
0.365573
0.362083
0.358659
0.355303
0.352016
0.348798
0.34565
0.342574
0.339571
0.33664
0.333782
0.330998
0.328288
0.325651
0.323088
0.320597
0.318178
0.31583
0.313552
0.311342
0.309198
0.307118
0.305101
0.303143
0.301243
0.299399
0.297609
0.295869
0.294177
0.292529
0.290925
0.289361
0.287835
0.286345
0.284889
0.283465
0.282071
0.280706
0.279368
0.278055
0.276766
0.275499
0.274254
0.273029
0.271823
0.270635
0.269463
0.268308
0.267167
0.266041
0.264927
0.263826
0.262737
0.26166
0.260594
0.259539
0.258494
0.257458
0.256431
0.255413
0.254402
0.253398
0.2524
0.251408
0.250421
0.249439
0.248461
0.247499
0.396974
0.393884
0.390877
0.387996
0.385254
0.382643
0.380145
0.377735
0.375384
0.373066
0.370756
0.368436
0.366094
0.363724
0.361325
0.358897
0.356445
0.353972
0.351484
0.348987
0.346489
0.343997
0.341518
0.339059
0.336627
0.334228
0.331869
0.329554
0.327287
0.325071
0.322909
0.320803
0.318755
0.316765
0.314833
0.312959
0.311138
0.309369
0.307648
0.305973
0.304341
0.302767
0.301241
0.299761
0.298325
0.296931
0.295578
0.294264
0.292986
0.291743
0.290533
0.289355
0.288205
0.287083
0.285987
0.284913
0.283861
0.282828
0.281813
0.280813
0.279827
0.278852
0.277887
0.27693
0.27598
0.275033
0.27409
0.273147
0.272204
0.271258
0.270309
0.269353
0.268389
0.267416
0.266432
0.265441
0.394853
0.392705
0.390522
0.389074
0.388283
0.388066
0.388343
0.389022
0.390006
0.39106
0.392038
0.392901
0.393618
0.394166
0.394527
0.394689
0.394646
0.394396
0.39394
0.393283
0.392433
0.391403
0.390205
0.388855
0.387372
0.385772
0.384073
0.382293
0.380449
0.378556
0.376629
0.374681
0.372723
0.370765
0.368809
0.36685
0.364874
0.362876
0.360883
0.358915
0.356984
0.355104
0.353284
0.351531
0.349849
0.348241
0.346709
0.345252
0.343869
0.342559
0.34132
0.340147
0.339037
0.337985
0.336988
0.336038
0.335132
0.334264
0.333427
0.332615
0.331819
0.331031
0.330243
0.329449
0.328645
0.327826
0.326988
0.326126
0.325237
0.324316
0.323359
0.322362
0.321321
0.320233
0.319095
0.3179
0.553644
0.573401
0.588971
0.599301
0.609153
0.619543
0.629994
0.639952
0.649306
0.657976
0.665829
0.672672
0.678227
0.682401
0.685142
0.68649
0.686523
0.685348
0.683087
0.679867
0.675817
0.671063
0.665734
0.659958
0.653836
0.647453
0.64088
0.634177
0.627401
0.620597
0.613804
0.607061
0.600407
0.593873
0.587489
0.581278
0.575265
0.56947
0.563904
0.558577
0.553495
0.548664
0.544085
0.539759
0.535683
0.531852
0.528262
0.524904
0.521769
0.518846
0.516124
0.51359
0.51123
0.50903
0.506973
0.505043
0.503225
0.501502
0.499857
0.498271
0.496703
0.49512
0.493521
0.491903
0.490256
0.488571
0.486838
0.485046
0.483184
0.481241
0.479207
0.477073
0.47483
0.472473
0.469999
0.467369
1.34209
1.46577
1.57902
1.6774
1.7568
1.818
1.86256
1.89281
1.91166
1.92114
1.92303
1.91853
1.90885
1.8946
1.87643
1.85511
1.83131
1.80558
1.77837
1.75006
1.72095
1.6912
1.66051
1.62872
1.59591
1.5623
1.52816
1.49377
1.45954
1.4258
1.39277
1.3606
1.32943
1.29938
1.27055
1.24298
1.2167
1.19172
1.16803
1.1456
1.12442
1.10443
1.08561
1.0679
1.05126
1.03564
1.02099
1.00725
0.994376
0.982307
0.970992
0.960374
0.950398
0.941009
0.932151
0.92377
0.915813
0.908228
0.900963
0.893976
0.887221
0.880648
0.874208
0.867857
0.861554
0.855262
0.848945
0.842573
0.836118
0.829556
0.822867
0.816037
0.809058
0.801932
0.79464
3.22062
2.42524
1.9477
1.77122
1.67657
1.64694
1.65308
1.6403
1.64112
1.64839
1.66018
1.67111
1.67932
1.69165
1.71185
1.74073
1.7784
1.82468
1.87942
1.94269
2.01497
2.09648
2.15406
2.18546
2.19955
2.20223
2.19744
2.1874
2.17273
2.1528
2.12993
2.10509
2.07882
2.0513
2.02259
1.99289
1.96249
1.93166
1.90078
1.87013
1.83996
1.81044
1.78173
1.75394
1.72715
1.7014
1.6767
1.65306
1.63046
1.60888
1.58826
1.56856
1.54972
1.53169
1.51441
1.49781
1.48183
1.46641
1.45147
1.43695
1.42279
1.40892
1.39528
1.38182
1.36848
1.35522
1.34198
1.32873
1.31545
1.3021
1.28866
1.27514
1.26152
1.24785
1.23413
1.54924
1.43679
1.39983
1.38956
1.38906
1.37991
1.37293
1.36161
1.33893
1.32445
1.31245
1.3028
1.29525
1.29042
1.28827
1.2885
1.29076
1.29439
1.29863
1.30365
1.31031
1.31928
1.3294
1.33981
1.3512
1.36646
1.39338
1.43165
1.48235
1.54448
1.60859
1.67345
1.74028
1.81035
1.86592
1.90799
1.93939
1.96209
1.97678
1.98399
1.9857
1.98345
1.97835
1.97121
1.96263
1.95306
1.94279
1.93189
1.9203
1.90811
1.89538
1.88221
1.86868
1.85487
1.84083
1.82659
1.81221
1.79769
1.78304
1.76828
1.7534
1.73839
1.72325
1.70798
1.69257
1.67702
1.66134
1.64551
1.62956
1.61349
1.59731
1.58104
1.5647
1.54838
1.53224
1.15071
1.18361
1.21384
1.23829
1.2499
1.24271
1.23016
1.21868
1.20937
1.20087
1.19298
1.18603
1.18051
1.17713
1.17654
1.17783
1.18004
1.18157
1.17876
1.17352
1.16929
1.16796
1.16934
1.17297
1.17806
1.18442
1.1923
1.20161
1.21255
1.225
1.23807
1.25149
1.26523
1.27929
1.29277
1.30518
1.31657
1.32747
1.33899
1.35199
1.36722
1.3885
1.41501
1.44592
1.48045
1.5177
1.55643
1.59
1.61639
1.6364
1.65125
1.66193
1.6692
1.67365
1.67575
1.67584
1.67423
1.67114
1.66677
1.66126
1.65473
1.64729
1.63904
1.63008
1.62049
1.61036
1.59975
1.58868
1.57724
1.56551
1.55354
1.54139
1.5291
1.51682
1.50474
1.1965
1.25465
1.28622
1.30381
1.31534
1.31495
1.30896
1.30233
1.29579
1.28887
1.28146
1.2738
1.26621
1.25885
1.25183
1.24519
1.23836
1.23051
1.22226
1.2141
1.20654
1.20003
1.19478
1.19076
1.18786
1.18603
1.18557
1.18648
1.18859
1.19168
1.1954
1.19921
1.20207
1.20154
1.19859
1.19465
1.19146
1.19077
1.19144
1.19267
1.19444
1.19688
1.20006
1.20396
1.20853
1.21366
1.21925
1.22485
1.2302
1.23566
1.24084
1.2455
1.24951
1.2528
1.25538
1.25726
1.25849
1.25911
1.25916
1.25857
1.25736
1.25557
1.25332
1.25117
1.2492
1.24726
1.24538
1.2435
1.24162
1.2397
1.23775
1.23575
1.23369
1.23163
1.22979
1.23913
1.28278
1.33752
1.38877
1.41479
1.41729
1.41171
1.40582
1.40116
1.39547
1.38849
1.38081
1.37291
1.36512
1.35765
1.35055
1.34342
1.33544
1.32759
1.3203
1.31375
1.30801
1.30309
1.29897
1.2954
1.29224
1.28938
1.28673
1.2842
1.28169
1.27913
1.27635
1.27295
1.26856
1.26329
1.25761
1.25205
1.24691
1.24221
1.23784
1.23371
1.22977
1.22599
1.22233
1.21879
1.21535
1.21202
1.20874
1.20532
1.20066
1.19437
1.18711
1.17941
1.17161
1.16397
1.15668
1.15017
1.14464
1.13981
1.13548
1.13152
1.12781
1.1243
1.12079
1.11727
1.11374
1.11023
1.10677
1.10336
1.09998
1.09665
1.09335
1.0901
1.08696
1.08431
1.23733
1.25446
1.52623
1.6448
1.63196
1.63035
1.63037
1.63289
1.63904
1.64673
1.63517
1.61683
1.59745
1.57915
1.56286
1.54866
1.53634
1.5255
1.51588
1.50736
1.49983
1.49317
1.48722
1.4818
1.47671
1.47184
1.46708
1.46241
1.45773
1.45252
1.44703
1.4414
1.43567
1.42982
1.42382
1.4177
1.4115
1.40518
1.39873
1.39214
1.38545
1.37868
1.37184
1.36493
1.35795
1.3509
1.34385
1.33681
1.3298
1.32277
1.31568
1.30848
1.30114
1.29367
1.28609
1.2784
1.27064
1.26279
1.25488
1.24692
1.23893
1.2309
1.22278
1.21458
1.20635
1.19812
1.18992
1.18178
1.17372
1.16577
1.15795
1.15027
1.14274
1.13537
1.12824
1.12089
1.56931
1.68118
1.78546
1.87145
1.93898
1.98909
2.02425
2.04561
2.05635
2.05894
2.0549
2.04582
2.03263
2.01665
1.99946
1.98118
1.96255
1.94415
1.92494
1.90519
1.88518
1.8651
1.84507
1.82517
1.80546
1.78597
1.76675
1.74783
1.72934
1.7113
1.69373
1.67666
1.66011
1.64412
1.62873
1.61394
1.59975
1.58596
1.57256
1.55966
1.54727
1.5354
1.52402
1.51309
1.50255
1.49233
1.4824
1.47269
1.46316
1.45376
1.44446
1.43522
1.42603
1.41685
1.40766
1.39845
1.3892
1.3799
1.37055
1.36114
1.35166
1.34212
1.33252
1.32287
1.31318
1.30348
1.29377
1.28409
1.27445
1.26489
1.25542
1.24608
1.23689
1.22789
1.21914
1.21032
0.870046
0.92049
0.971422
1.02282
1.07492
1.1272
1.17901
1.22954
1.27808
1.32386
1.36626
1.40479
1.43922
1.4692
1.49451
1.51548
1.53253
1.54611
1.55742
1.56679
1.57445
1.58065
1.58565
1.58966
1.59287
1.59544
1.59749
1.59907
1.59941
1.59865
1.59689
1.59421
1.59072
1.58646
1.58153
1.57598
1.56989
1.56331
1.5563
1.54893
1.54126
1.53336
1.52527
1.51706
1.50876
1.50041
1.49205
1.48369
1.47533
1.467
1.45872
1.45053
1.44241
1.43436
1.42637
1.41839
1.41041
1.4024
1.39435
1.38622
1.37801
1.36972
1.36132
1.35283
1.34424
1.33555
1.32677
1.31791
1.30896
1.30002
1.29113
1.28234
1.2737
1.26526
1.25708
1.24911
0.560868
0.572406
0.584532
0.597553
0.611399
0.626365
0.642603
0.660185
0.679049
0.699162
0.720499
0.74236
0.764495
0.786636
0.808489
0.829797
0.85034
0.869944
0.888494
0.905941
0.922272
0.937509
0.951698
0.964906
0.977201
0.988667
0.999383
1.00945
1.01958
1.02977
1.03999
1.05026
1.06054
1.07085
1.08121
1.0916
1.10197
1.11184
1.12114
1.12988
1.13804
1.14563
1.15265
1.1591
1.16498
1.17029
1.17507
1.17932
1.18309
1.18638
1.18923
1.19166
1.1937
1.19536
1.19667
1.19765
1.19831
1.19867
1.19874
1.19853
1.19805
1.1973
1.19631
1.19508
1.19363
1.19199
1.19017
1.18819
1.18607
1.18385
1.18153
1.17916
1.17677
1.17439
1.17209
1.16983
0.455614
0.457926
0.459849
0.462099
0.464808
0.468087
0.47192
0.476383
0.481521
0.487342
0.493825
0.500879
0.508468
0.516504
0.524911
0.533603
0.542493
0.551488
0.560495
0.569441
0.578265
0.586899
0.595293
0.603412
0.61123
0.618729
0.625907
0.63281
0.63948
0.645956
0.652274
0.658459
0.664501
0.670308
0.675876
0.681272
0.686926
0.692892
0.699176
0.705782
0.712709
0.719945
0.727414
0.734954
0.742573
0.750276
0.758062
0.765927
0.773857
0.781836
0.789849
0.797886
0.805945
0.814004
0.822037
0.830017
0.837922
0.845726
0.853407
0.860946
0.868323
0.875522
0.88253
0.889336
0.895933
0.902318
0.908488
0.914446
0.920198
0.925752
0.931123
0.936331
0.9414
0.946356
0.951037
0.409491
0.4098
0.409922
0.409958
0.409989
0.410075
0.410262
0.410586
0.411076
0.411756
0.412642
0.413743
0.415066
0.41661
0.41837
0.420338
0.422503
0.424848
0.427354
0.43
0.432764
0.435622
0.438548
0.441521
0.444517
0.447517
0.450503
0.453457
0.456359
0.459198
0.461965
0.464652
0.467259
0.469771
0.472186
0.474516
0.476791
0.479042
0.481301
0.483597
0.48596
0.488423
0.491077
0.494088
0.497457
0.501185
0.505263
0.509657
0.514318
0.519256
0.52447
0.529934
0.535571
0.541377
0.547356
0.55351
0.559836
0.56633
0.572983
0.579787
0.586728
0.593795
0.600972
0.608246
0.6156
0.62302
0.630489
0.637996
0.645528
0.653075
0.66063
0.668189
0.675749
0.683301
0.690673
0.390583
0.390351
0.389952
0.389437
0.388846
0.388212
0.387565
0.386924
0.386307
0.385725
0.385188
0.384704
0.384277
0.383911
0.383609
0.383372
0.383202
0.383097
0.383058
0.383082
0.383164
0.383303
0.383493
0.38373
0.38401
0.384327
0.384676
0.385053
0.385452
0.385867
0.386294
0.386729
0.387171
0.387615
0.388059
0.388504
0.388953
0.389409
0.389878
0.390368
0.390886
0.391432
0.392016
0.392664
0.393389
0.394207
0.395134
0.39622
0.397527
0.39906
0.400816
0.40278
0.404929
0.407271
0.409815
0.412564
0.415521
0.418687
0.422062
0.425645
0.429432
0.433422
0.43761
0.441992
0.446561
0.451311
0.456236
0.461329
0.466581
0.471986
0.477537
0.483226
0.489042
0.49496
0.500819
0.382394
0.38211
0.381669
0.381104
0.380444
0.379714
0.378936
0.378126
0.377296
0.376456
0.375612
0.374769
0.37393
0.373097
0.37227
0.371452
0.370642
0.36984
0.369047
0.368263
0.367486
0.366716
0.365951
0.365192
0.364437
0.363687
0.36294
0.362196
0.361455
0.360716
0.359978
0.359243
0.35851
0.35778
0.357055
0.356335
0.355624
0.354923
0.354237
0.353569
0.352922
0.352303
0.351718
0.351169
0.35066
0.350199
0.34979
0.349444
0.349169
0.348974
0.348874
0.348901
0.349076
0.349401
0.349876
0.350498
0.351273
0.352205
0.353298
0.354552
0.355969
0.357544
0.359273
0.361139
0.363139
0.365272
0.367534
0.369926
0.372446
0.375093
0.377866
0.380761
0.383774
0.386893
0.390027
0.377993
0.377858
0.377564
0.37714
0.37661
0.375996
0.375318
0.37459
0.373823
0.373027
0.372207
0.371368
0.370512
0.369642
0.368758
0.36786
0.366948
0.366021
0.36508
0.364123
0.363149
0.362157
0.361148
0.360119
0.35907
0.358001
0.356908
0.355792
0.354652
0.353489
0.352303
0.351094
0.349865
0.348617
0.347352
0.346072
0.34478
0.343479
0.342172
0.340862
0.339553
0.338251
0.33696
0.335684
0.334429
0.333199
0.332001
0.330838
0.329717
0.328644
0.327626
0.326664
0.325764
0.324934
0.324182
0.323525
0.32297
0.322518
0.322169
0.321928
0.321796
0.321775
0.321866
0.322068
0.322381
0.322802
0.323332
0.323969
0.324711
0.325558
0.326506
0.327553
0.328694
0.329919
0.331184
0.375115
0.375116
0.374959
0.374669
0.374268
0.373777
0.373212
0.372588
0.371916
0.371205
0.370461
0.369689
0.368892
0.368072
0.367231
0.366368
0.365484
0.364578
0.36365
0.362698
0.361722
0.360719
0.359688
0.358628
0.357537
0.356413
0.355255
0.354061
0.352831
0.351563
0.350256
0.348911
0.347525
0.346101
0.344638
0.34314
0.341609
0.340046
0.338457
0.336844
0.335212
0.333566
0.33191
0.330249
0.328588
0.326934
0.325292
0.323666
0.322063
0.320488
0.318946
0.317441
0.315979
0.314563
0.313201
0.311894
0.310645
0.30946
0.308347
0.307309
0.306347
0.305466
0.304665
0.303945
0.303307
0.302752
0.302279
0.301889
0.30158
0.30135
0.301199
0.301122
0.301116
0.301174
0.301279
0.373443
0.37346
0.373325
0.373059
0.372685
0.372219
0.371679
0.371077
0.370426
0.369733
0.369005
0.368246
0.367462
0.366653
0.365821
0.364967
0.364091
0.363193
0.362272
0.361326
0.360355
0.359356
0.358328
0.357268
0.356175
0.355047
0.353881
0.352676
0.351429
0.35014
0.348807
0.34743
0.346007
0.34454
0.343027
0.34147
0.339869
0.338229
0.33655
0.334839
0.333097
0.33133
0.329544
0.327742
0.32593
0.324115
0.322301
0.320495
0.318702
0.316927
0.315176
0.313455
0.311767
0.310119
0.308513
0.306954
0.305446
0.303991
0.302593
0.301253
0.299974
0.298759
0.297609
0.296524
0.295504
0.294551
0.293663
0.292843
0.292089
0.291401
0.290777
0.290215
0.289709
0.28926
0.288837
0.372823
0.372795
0.372619
0.372315
0.371904
0.371403
0.370828
0.370193
0.369507
0.36878
0.368017
0.367223
0.366402
0.365556
0.364688
0.363796
0.362883
0.361947
0.360989
0.360006
0.358997
0.357961
0.356896
0.355801
0.354673
0.35351
0.352311
0.351075
0.349798
0.348482
0.347123
0.345723
0.34428
0.342795
0.341269
0.339701
0.338095
0.336452
0.334777
0.333073
0.331344
0.329594
0.327829
0.326054
0.324274
0.322495
0.320722
0.318962
0.31722
0.315502
0.313814
0.31216
0.310546
0.308977
0.307456
0.30599
0.304579
0.303226
0.301935
0.300709
0.29955
0.298459
0.297438
0.296486
0.295602
0.294786
0.294039
0.293361
0.29275
0.292206
0.291727
0.291307
0.290942
0.29063
0.290339
0.373038
0.372903
0.372625
0.372225
0.371722
0.371134
0.370475
0.369758
0.368993
0.368189
0.36735
0.366482
0.365588
0.364669
0.363729
0.362766
0.361783
0.360777
0.35975
0.358699
0.357626
0.356527
0.355402
0.35425
0.35307
0.351861
0.350621
0.349349
0.348046
0.346711
0.345343
0.343942
0.342509
0.341045
0.339553
0.338035
0.336494
0.334935
0.33336
0.331774
0.330181
0.328588
0.326999
0.325419
0.323855
0.322312
0.320795
0.31931
0.317864
0.316462
0.315111
0.313817
0.312583
0.311412
0.310307
0.309275
0.30832
0.307449
0.306663
0.305966
0.305359
0.304844
0.30442
0.304088
0.303847
0.303695
0.303631
0.303651
0.303752
0.303931
0.304183
0.304502
0.304881
0.305309
0.305759
0.374201
0.373849
0.373368
0.372778
0.372097
0.371344
0.370532
0.369673
0.368775
0.367847
0.366894
0.365919
0.364925
0.363915
0.362888
0.361847
0.36079
0.359719
0.358633
0.357532
0.356415
0.355281
0.354131
0.352964
0.35178
0.350576
0.349354
0.348114
0.346857
0.345585
0.344298
0.342998
0.341689
0.340374
0.339055
0.337737
0.336424
0.33512
0.33383
0.332559
0.331313
0.330096
0.328914
0.327771
0.326676
0.325636
0.324653
0.323737
0.322893
0.322125
0.32144
0.320843
0.320345
0.319953
0.319672
0.319505
0.319457
0.319528
0.31972
0.320035
0.320471
0.321027
0.321703
0.322494
0.323397
0.324409
0.325524
0.326738
0.328045
0.329441
0.330921
0.332477
0.334101
0.335778
0.337451
0.376427
0.375889
0.375238
0.374492
0.373672
0.372794
0.371873
0.37092
0.369944
0.368952
0.367948
0.366936
0.365919
0.364899
0.363876
0.362852
0.361827
0.3608
0.359772
0.358743
0.357711
0.356678
0.355642
0.354605
0.353568
0.35253
0.351495
0.350463
0.349436
0.348416
0.347408
0.346413
0.345437
0.344484
0.343559
0.342665
0.341807
0.34099
0.340221
0.339504
0.338846
0.338253
0.337734
0.337294
0.336949
0.336718
0.336614
0.336639
0.336801
0.337109
0.337569
0.338187
0.338968
0.339914
0.341029
0.342313
0.343767
0.345389
0.347177
0.349128
0.351235
0.353492
0.35589
0.358419
0.361068
0.363823
0.36667
0.369592
0.372576
0.375623
0.378735
0.381913
0.38516
0.388457
0.391706
0.381852
0.3813
0.380639
0.379896
0.379096
0.378258
0.377398
0.376529
0.375659
0.374796
0.373944
0.373107
0.372287
0.371486
0.370703
0.36994
0.369196
0.368471
0.367763
0.367073
0.3664
0.365747
0.365112
0.364494
0.363896
0.363318
0.362763
0.362234
0.361734
0.361267
0.360838
0.360451
0.360112