/*--------------------------------*- C++ -*----------------------------------*\
  =========                 |
  \\      /  F ield         | OpenFOAM: The Open Source CFD Toolbox
   \\    /   O peration     | Website:  https://openfoam.org
    \\  /    A nd           | Version:  13
     \\/     M anipulation  |
\*---------------------------------------------------------------------------*/
FoamFile
{
    format      ascii;
    class       volScalarField;
    location    "1000";
    object      nut;
}
// * * * * * * * * * * * * * * * * * * * * * * * * * * * * * * * * * * * * * //

dimensions      [0 2 -1 0 0 0 0];

internalField   nonuniform List<scalar> 
171247
(
0.00116787
0.000243031
0.00666669
0.00668576
0.00662638
0.00646121
0.00615731
0.0057129
0.00515074
0.00445322
0.00564227
0.00397884
0.00336495
0.00358931
0.00190595
0.00180125
0.000826254
0.00208326
0.00729207
0.0071501
0.00695669
0.00669089
0.00635669
0.00596782
0.00561365
0.00537206
0.0049487
0.00717117
0.00582754
0.00533401
0.003665
0.00261386
0.00227643
0.00178385
0.00175519
0.00866684
0.00832752
0.00797659
0.00761019
0.00725977
0.00697974
0.00680106
0.00688315
0.00755026
0.00924962
0.00895707
0.00863359
0.00633173
0.00480934
0.00406107
0.0037638
0.00338431
0.00388081
0.0101578
0.00978534
0.00945313
0.0091471
0.00886893
0.00871525
0.0088226
0.00937043
0.0106288
0.0134026
0.0132058
0.0128127
0.0124321
0.0106197
0.00878763
0.00759117
0.00725342
0.00723829
0.00710257
0.00643388
0.00565972
0.0051043
0.0116617
0.011497
0.0113873
0.011301
0.0113052
0.0115239
0.0120787
0.0131267
0.0148565
0.0161841
0.0157672
0.0153579
0.0149637
0.0145765
0.0141617
0.0122035
0.0107227
0.010397
0.0109378
0.0106897
0.0101427
0.00972316
0.0137212
0.0137818
0.0140228
0.0143764
0.0147813
0.0152704
0.0159056
0.0167021
0.0176019
0.0182422
0.0180095
0.0177501
0.0174758
0.0171957
0.0169134
0.0166299
0.0159564
0.0143879
0.0137018
0.0137443
0.0143819
0.0144385
0.0140942
0.013795
0.0162315
0.0168485
0.0177453
0.0186511
0.0192638
0.0193197
0.0192908
0.0192488
0.0191452
0.0187875
0.0185753
0.0186753
0.0187866
0.0186483
0.0185014
0.0183496
0.0181404
0.0172914
0.0165488
0.016531
0.0170128
0.0173476
0.017179
0.0170163
0.0195006
0.0195035
0.0195027
0.0195017
0.0195027
0.0195059
0.0193365
0.0184679
0.0175999
0.0169688
0.016664
0.0166821
0.0169449
0.0173186
0.0176527
0.0178253
0.0177877
0.0175954
0.0174506
0.017576
0.018037
0.0188006
0.0188128
0.0187439
0.0193804
0.0193827
0.0193875
0.0193969
0.0194125
0.0194367
0.0176737
0.0163935
0.0155558
0.0151036
0.0149518
0.0150183
0.0152533
0.0156058
0.0160177
0.0164087
0.0166883
0.0168348
0.0169525
0.0172021
0.0176721
0.0183564
0.0192188
0.0194607
0.019164
0.0191621
0.0191658
0.0191758
0.0191958
0.0182021
0.0163517
0.0150982
0.0143566
0.0139992
0.0139084
0.0140032
0.0142191
0.0145243
0.0149067
0.015314
0.0156547
0.0158836
0.0160702
0.0163457
0.0167837
0.0173805
0.0181019
0.0189213
0.0189542
0.0189478
0.0189468
0.0189532
0.0189706
0.017316
0.015533
0.0143546
0.0136759
0.0133615
0.0133106
0.0134327
0.0136483
0.0139244
0.0142714
0.0146553
0.0149833
0.0152059
0.0153861
0.0156411
0.0160345
0.0165594
0.0171818
0.0178762
0.0188074
0.0187965
0.0187907
0.0187927
0.0188058
0.0167822
0.0150452
0.0139134
0.0132564
0.0129713
0.0129593
0.0131257
0.0133778
0.0136743
0.0140286
0.0144115
0.0147293
0.014936
0.0151012
0.0153386
0.0157081
0.0161998
0.0167788
0.0174189
0.0188056
0.0187943
0.0187881
0.0187897
0.0188024
0.0167389
0.0149902
0.0138485
0.013184
0.0128999
0.0129021
0.0130986
0.0133962
0.0137487
0.0141598
0.0145845
0.0149169
0.0151131
0.0152583
0.0154779
0.0158337
0.0163153
0.0168867
0.0175236
0.0189398
0.0189385
0.0189447
0.0189618
0.0171967
0.0154011
0.0141942
0.0135055
0.0132077
0.0132142
0.0134402
0.0138032
0.0142579
0.0147919
0.0153185
0.0157042
0.0159041
0.0160242
0.0162189
0.0165655
0.0170561
0.0176545
0.0183352
0.0191472
0.0191509
0.0191611
0.0191813
0.0180433
0.0161594
0.014874
0.0141063
0.0137852
0.0137959
0.0140652
0.0145218
0.0151125
0.0158224
0.0165152
0.0170173
0.0172621
0.0173721
0.0175511
0.017908
0.0184457
0.0191314
0.0195588
0.0193639
0.0193696
0.0193802
0.0193971
0.0192925
0.01743
0.0160925
0.0152403
0.0148088
0.0147875
0.0150831
0.0156553
0.0164432
0.0173815
0.0182667
0.0188842
0.0191402
0.019187
0.0193049
0.0195199
0.0195062
0.0194885
0.0194665
0.0194949
0.019496
0.0194973
0.019501
0.0195076
0.0191888
0.0181305
0.0172473
0.0166758
0.0164725
0.0167398
0.0174156
0.0184218
0.0193414
0.0192865
0.0192265
0.0191647
0.0191033
0.0190426
0.0189822
0.0189215
0.0188601
0.0187973
0.0179289
0.018814
0.0193641
0.0193473
0.0193216
0.0192829
0.0190484
0.0187266
0.0186072
0.0188825
0.0188271
0.0186873
0.0185383
0.0183852
0.0182324
0.0180833
0.0179391
0.0177999
0.0176663
0.0175387
0.017417
0.0173005
0.0141429
0.0144863
0.0148907
0.0153929
0.0160594
0.0169174
0.0179034
0.0182631
0.0180204
0.0177524
0.0174719
0.0171896
0.01691
0.0166389
0.016377
0.0161218
0.0158625
0.0155998
0.0153447
0.0151072
0.0148926
0.0147014
0.0115149
0.011393
0.0112873
0.0112714
0.0114784
0.0120393
0.0131217
0.0149681
0.0160832
0.0156522
0.0152358
0.0148468
0.014486
0.0141395
0.0137873
0.0134061
0.0128956
0.0123561
0.0118656
0.011454
0.0111242
0.0108672
0.00956703
0.00922382
0.00891323
0.00864975
0.00850408
0.00862099
0.00918801
0.0105016
0.0130635
0.0129326
0.0125438
0.0121986
0.0118543
0.0114685
0.00993128
0.00894792
0.00847735
0.00820202
0.00764378
0.00728704
0.00707777
0.00651081
0.00789925
0.00758835
0.00727101
0.00696661
0.00674546
0.00664636
0.0067984
0.00749873
0.00774068
0.0103826
0.0103667
0.0102479
0.00887495
0.0072433
0.00607557
0.00554288
0.00482621
0.00435638
0.00372341
0.00339018
0.00342076
0.00348681
0.00701869
0.00685965
0.00663653
0.00634509
0.0060043
0.00566517
0.00541766
0.0049609
0.00748536
0.00698085
0.00572609
0.00483552
0.00403464
0.00363345
0.00325065
0.00276222
0.00270801
0.00248237
0.00302095
0.00343349
0.00407969
0.00480808
0.00690502
0.00683624
0.00665701
0.00633839
0.0058598
0.00525459
0.00449062
0.00644658
0.00453426
0.00424471
0.00399801
0.00277743
0.00207162
0.00202449
0.00154294
0.00181414
0.00283273
0.00494381
0.00634245
0.00665635
0.0070813
0.00750369
0.0065125
0.00667304
0.00682943
0.00642176
0.00585617
0.00497528
0.00396168
0.00520349
0.00333086
0.00255098
0.00212011
0.00166163
0.000567601
0.000798802
0.00155644
0.00530175
0.00674498
0.00644311
0.00634298
0.00652598
0.00717824
0.00758011
0.00501678
0.00519871
0.00537597
0.00554994
0.00572565
0.0059166
0.00604608
0.00335241
0.00242252
0.00300862
0.00113635
0.000342186
0.000524811
0.00389725
0.00766315
0.0077069
0.00806518
0.00839081
0.00860053
0.00884817
0.00384102
0.00399138
0.00414248
0.00429578
0.00446333
0.00466834
0.00491888
0.00511084
0.00303725
0.00277776
0.00222785
0.0014872
0.000795501
0.000687955
0.00298238
0.00718819
0.00774672
0.00899922
0.00921709
0.00955489
0.0098976
0.0103225
0.00298303
0.00309957
0.00322028
0.0033463
0.00348232
0.00364075
0.00385476
0.00411675
0.0043472
0.0047447
0.00485542
0.00333088
0.00261435
0.00228955
0.0018805
0.00192835
0.0021563
0.00261221
0.00327603
0.00372884
0.00433904
0.00519955
0.00296416
0.00306241
0.00319574
0.00337513
0.00357048
0.00374744
0.00409265
0.00430804
0.00425129
0.00379523
0.0032666
0.00294314
0.0029491
0.00308227
0.0032559
0.00296871
0.00301572
0.00305874
0.00360299
0.00356479
0.00355769
0.00358151
0.0036194
0.00367961
0.00374935
0.00380393
0.003821
0.00378996
0.00371921
0.00358332
0.003515
0.00350072
0.00352313
0.00357229
0.00364167
0.00543316
0.00551842
0.0055376
0.00546863
0.0052909
0.00498362
0.00457095
0.00476769
0.00346831
0.00300045
0.00171575
0.000482269
0.00547887
0.00546925
0.00541519
0.00530944
0.00514457
0.00494792
0.0047192
0.00415057
0.00510899
0.00452504
0.0044228
0.00312323
0.00264154
0.0019044
0.0016991
0.00174142
0.00166525
0.00638459
0.00610872
0.00584281
0.00557855
0.00535421
0.00520169
0.00514053
0.00533099
0.00512456
0.00673649
0.00717459
0.00717674
0.00674704
0.0060582
0.0055592
0.00490296
0.0043027
0.0040562
0.00853887
0.00802561
0.00756435
0.00714532
0.00678719
0.00658817
0.00661257
0.00696932
0.0080619
0.0090794
0.00897855
0.00883689
0.00871179
0.00857699
0.0084013
0.00809646
0.00761483
0.00743012
0.00691794
0.006623
0.00647451
0.00642557
0.0106476
0.0102238
0.0098216
0.00940078
0.00906353
0.00895698
0.00915516
0.00980902
0.011205
0.0113952
0.0110532
0.0107704
0.0105408
0.0103472
0.0101724
0.0100008
0.00981958
0.00948973
0.00937005
0.00914322
0.00895493
0.00880888
0.0128643
0.0126622
0.0125683
0.012455
0.0122866
0.0121645
0.0122186
0.0125446
0.0132391
0.0145201
0.0142346
0.0138338
0.0134692
0.013147
0.0128641
0.012616
0.0123986
0.012208
0.012038
0.0118815
0.0117403
0.0116162
0.0115093
0.0114198
0.0148789
0.0152507
0.0157656
0.0160179
0.0158694
0.0155444
0.0152531
0.0151333
0.0152255
0.0156419
0.0164678
0.0162251
0.0159506
0.0156843
0.0154332
0.0152008
0.0149899
0.0148024
0.0146387
0.0144976
0.0143772
0.0142743
0.0141852
0.0141073
0.0186427
0.0185508
0.0184699
0.0184088
0.0183546
0.0171912
0.0161834
0.0155026
0.0151449
0.0150819
0.0153336
0.0158391
0.0165393
0.017412
0.0172681
0.0171259
0.0169896
0.0168627
0.0167476
0.0166464
0.0165564
0.0164763
0.016404
0.0163377
0.0185443
0.0184998
0.0184719
0.0184548
0.0184449
0.0168975
0.0154531
0.0145618
0.014115
0.0139962
0.014137
0.0144356
0.0148559
0.0153821
0.0160387
0.0167177
0.0172747
0.0176331
0.0175967
0.0177985
0.0178609
0.0178213
0.0177829
0.0177449
0.0180923
0.0180706
0.0180648
0.0180686
0.0180847
0.0165304
0.0150031
0.0140173
0.0134808
0.0132911
0.0133543
0.0135679
0.0138394
0.0141767
0.0146408
0.0151717
0.0156073
0.0158549
0.016024
0.0162994
0.0167563
0.0173637
0.018063
0.0182522
0.0176094
0.0175921
0.0175852
0.0175895
0.0176079
0.0161409
0.0146087
0.0136101
0.0130551
0.0128534
0.0129053
0.0131211
0.0133506
0.0135923
0.0139425
0.0143605
0.0146841
0.0148436
0.0149552
0.0151787
0.0155803
0.016123
0.0167478
0.0174193
0.0171815
0.017161
0.0171492
0.0171491
0.0171636
0.015787
0.0142401
0.0132331
0.0126778
0.0124905
0.0125763
0.0128438
0.0131098
0.0133504
0.0136708
0.0140415
0.0143018
0.0144036
0.0144715
0.0146554
0.015011
0.0155013
0.0160697
0.0166839
0.0171786
0.0171567
0.0171435
0.0171421
0.0171554
0.015752
0.0141912
0.0131648
0.0125937
0.0123989
0.0124909
0.0127841
0.0130991
0.0134058
0.0137935
0.0142182
0.0144696
0.0145478
0.0145904
0.0147566
0.0151005
0.0155806
0.0161398
0.0167454
0.0175826
0.0175749
0.0175785
0.0175964
0.0160466
0.0144914
0.0134564
0.0128756
0.0126749
0.0127705
0.0130878
0.0134785
0.0139168
0.0144587
0.0150095
0.0153568
0.0154513
0.0154773
0.0156328
0.0159839
0.0164837
0.017069
0.0177071
0.0180589
0.0180534
0.0180576
0.0180744
0.0164148
0.01485
0.0138146
0.0132464
0.0130671
0.013211
0.013592
0.0141033
0.0146739
0.015467
0.0162837
0.0168448
0.0170382
0.0170747
0.0172223
0.0175807
0.0181049
0.018271
0.0182671
0.0184916
0.0184667
0.0184527
0.0184465
0.0167993
0.0152819
0.0143075
0.0137976
0.0136658
0.0138775
0.0143597
0.0150823
0.0159462
0.0170828
0.0181513
0.0180999
0.0180482
0.0179994
0.0179536
0.0179101
0.0178683
0.0178273
0.0177865
0.0185742
0.0184991
0.0184447
0.0183745
0.0171065
0.0159791
0.0151763
0.014713
0.0145839
0.0148443
0.0154893
0.0165274
0.0175263
0.0173824
0.0172387
0.0171
0.0169709
0.0168547
0.0167527
0.0166626
0.0165826
0.0165108
0.0164448
0.0159433
0.0161494
0.0159439
0.0155256
0.0151122
0.0148609
0.0148141
0.0150923
0.0158409
0.0163666
0.0160852
0.0158118
0.0155547
0.0153178
0.0151045
0.0149176
0.0147581
0.0146248
0.0145157
0.0144274
0.014355
0.0142934
0.0126944
0.0125319
0.0123183
0.0121432
0.0121289
0.0123701
0.0129514
0.0140636
0.0142922
0.013868
0.0134875
0.0131571
0.0128722
0.0126275
0.0124195
0.0122465
0.012106
0.0119929
0.0119033
0.0118346
0.0117829
0.0117433
0.0102067
0.00976198
0.00929606
0.00891357
0.00875785
0.00889657
0.00945664
0.0106836
0.0112542
0.0109076
0.010627
0.0104063
0.0102262
0.0100745
0.00994204
0.00982451
0.0097134
0.00959194
0.00948108
0.00939346
0.00932974
0.00928613
0.00766619
0.00720905
0.00680292
0.00647231
0.00628974
0.00632395
0.00666625
0.00762282
0.00860581
0.00875533
0.0086277
0.00852095
0.00841589
0.00829832
0.00816
0.00799565
0.00777753
0.00740366
0.00714714
0.00699153
0.00690909
0.00687716
0.00573252
0.00551903
0.0053142
0.00512827
0.00502634
0.00501726
0.00522406
0.00543042
0.00764001
0.00764943
0.00761861
0.00751587
0.00733961
0.00708943
0.00677185
0.00637414
0.00584354
0.00464187
0.00468864
0.00481649
0.00469178
0.0044359
0.00531706
0.00528135
0.00519244
0.00506343
0.00488598
0.00469134
0.00414289
0.00665122
0.00522247
0.00567451
0.00476847
0.00503051
0.00449539
0.00395685
0.00359078
0.00329023
0.00325396
0.00358706
0.00437356
0.00506733
0.005602
0.0058983
0.00548179
0.00549308
0.00542053
0.00524379
0.00493724
0.00453546
0.00693454
0.00383516
0.00357715
0.00455315
0.00164762
0.00198939
0.00123696
0.00181236
0.00139746
0.00127175
0.00184361
0.00260023
0.00315163
0.00591976
0.00590047
0.00644835
0.00581049
0.0058141
0.00571218
0.00547347
0.00500071
0.00415947
0.00584808
0.00318606
0.00345602
0.00199328
9.27444e-05
0.000899462
0.00374462
0.00345003
0.00429027
0.00595734
0.00660014
0.00531759
0.00534552
0.00529873
0.00514747
0.00475823
0.00394304
0.00501647
0.0028283
0.00209509
0.00101233
0.00324127
0.00413706
0.00608456
0.00857415
0.00925627
0.00451427
0.00471615
0.00491626
0.00512273
0.00534929
0.00523431
0.00517547
0.00342059
0.00277218
0.00195079
0.000132152
0.00248907
0.00685739
0.00804639
0.00914698
0.00731134
0.00798591
0.00329937
0.00345219
0.0036168
0.00380444
0.00402687
0.00430739
0.00462102
0.00422637
0.00401698
0.00445626
0.00238353
0.00177484
0.00122233
0.00112424
0.001362
0.00166914
0.00236777
0.00384242
0.00427737
0.00496087
0.0052996
0.00557631
0.00346842
0.00362422
0.00384151
0.00371913
0.00413678
0.00457607
0.0044577
0.00390705
0.00351226
0.00317708
0.0029045
0.00266615
0.00257423
0.00292373
0.00307039
0.00324174
0.00340757
0.00346724
0.00436986
0.00420037
0.004243
0.00408603
0.0044549
0.00448784
0.00446586
0.00441703
0.0043483
0.00427
0.00419453
0.0041258
0.00406169
0.00403659
0.00405092
0.00408524
0.00413636
0.00670682
0.00688569
0.00696112
0.00673145
0.00639396
0.00577412
0.00484373
0.00404201
0.00299451
0.00166736
0.000124535
0.00598971
0.00602194
0.00599063
0.00590495
0.00572487
0.00545933
0.00521886
0.00503213
0.00412963
0.00419569
0.00285177
0.00217332
0.00189977
0.0017404
0.00163811
0.00156827
0.00164268
0.00177936
0.00471097
0.00476102
0.00476785
0.00474472
0.00474718
0.00476
0.00487529
0.00493236
0.00581621
0.0062848
0.00687826
0.00621477
0.0057227
0.00531368
0.00489558
0.00447625
0.00409049
0.00380332
0.00571211
0.00542544
0.00517531
0.00495341
0.00476351
0.00465846
0.00469739
0.00487829
0.0053378
0.00587737
0.00707303
0.00712737
0.00714016
0.00714597
0.0071034
0.00701146
0.00688243
0.00673556
0.00657547
0.0081055
0.00762292
0.00717783
0.00668437
0.00619468
0.00584816
0.00572971
0.00580529
0.00614641
0.00678839
0.00751068
0.00751787
0.00753578
0.00756783
0.00759709
0.00733237
0.00764403
0.00764541
0.00764453
0.00763768
0.00762329
0.00761353
0.0076132
0.0104502
0.0101398
0.00969045
0.00904441
0.00840068
0.00790427
0.00766029
0.00770872
0.0078542
0.00830091
0.00887628
0.00885105
0.00874555
0.00867636
0.00863228
0.00860821
0.00859946
0.00860721
0.008631
0.00837898
0.00814975
0.00802455
0.00794789
0.00788272
0.0123999
0.0125703
0.0125218
0.0118235
0.0109668
0.010281
0.00984335
0.0100711
0.0103184
0.0106366
0.0110972
0.0108825
0.0106976
0.0105441
0.0104189
0.0103222
0.0102507
0.0102054
0.0101839
0.0101841
0.0100451
0.00976575
0.00958727
0.00945654
0.0149707
0.0146507
0.0144209
0.0142808
0.0135917
0.0124351
0.0115967
0.011388
0.0117008
0.0119559
0.0125536
0.012991
0.0128249
0.0126733
0.0125369
0.0124163
0.0123141
0.012233
0.0121754
0.0121406
0.0121238
0.0121199
0.0121253
0.0121367
0.0154931
0.0153178
0.0152137
0.0151252
0.0150437
0.0141114
0.0128267
0.012192
0.011962
0.0120131
0.0124764
0.0130589
0.0136048
0.0141214
0.0142626
0.0141864
0.0141164
0.014058
0.0140145
0.0139852
0.0139671
0.0139564
0.0139509
0.0139489
0.0150276
0.0149677
0.0149446
0.0149365
0.0149354
0.0149484
0.0136835
0.0128319
0.0122881
0.012167
0.012345
0.0127935
0.0131567
0.0134957
0.0140261
0.0147332
0.0150584
0.0150616
0.0150698
0.0150831
0.0150989
0.0151152
0.0151312
0.0151458
0.0142466
0.0142257
0.0142242
0.0142413
0.0142765
0.0143303
0.0135448
0.0125096
0.0119194
0.0117575
0.0118775
0.0122749
0.0125481
0.0127594
0.0131644
0.0137072
0.0140923
0.0141616
0.0141148
0.0141452
0.0143923
0.0148259
0.0153528
0.0154046
0.0132528
0.013243
0.0132484
0.0132725
0.0133154
0.0133792
0.0132582
0.0121218
0.0114709
0.0112785
0.0114223
0.0118905
0.0122363
0.0124415
0.0127818
0.0132179
0.0134588
0.0134266
0.0133333
0.0133511
0.013581
0.013991
0.0145009
0.0149043
0.0132382
0.0132259
0.0132289
0.0132506
0.0132913
0.013353
0.0132204
0.0120569
0.0113783
0.0111579
0.0112847
0.0117528
0.0121434
0.0124374
0.0128521
0.0133309
0.0135517
0.0134743
0.0133515
0.0133547
0.0135775
0.0139803
0.0144813
0.0148831
0.0142075
0.014206
0.0142235
0.0142596
0.014314
0.0134887
0.0123935
0.0117463
0.0115418
0.0116563
0.0121164
0.0125778
0.0131045
0.0137324
0.0143979
0.0147256
0.0146324
0.0144452
0.0143794
0.0145608
0.0149392
0.0153585
0.0154054
0.014983
0.0149625
0.0149576
0.0149633
0.0149829
0.0136456
0.0126894
0.012088
0.011913
0.0121266
0.0126455
0.0132767
0.0139861
0.0148231
0.015134
0.0151277
0.0151251
0.0151287
0.0151381
0.0151509
0.0151645
0.0151772
0.0151882
0.0153961
0.0152953
0.0152107
0.0151321
0.0142259
0.0128898
0.0121024
0.0117629
0.0116906
0.0120745
0.0127004
0.0134989
0.0143653
0.0144119
0.0143281
0.0142489
0.0141808
0.0141279
0.0140899
0.0140635
0.0140455
0.0140332
0.0140241
0.01474
0.0145153
0.0143848
0.0138708
0.0126518
0.0117152
0.0112696
0.0114779
0.0115164
0.0119031
0.0124102
0.013036
0.0128822
0.0127374
0.012605
0.0124895
0.0123947
0.0123242
0.0122775
0.0122503
0.012238
0.0122352
0.0122381
0.0129281
0.0121802
0.0112609
0.0104919
0.00995679
0.00992254
0.010147
0.0102148
0.0105314
0.0109221
0.0109037
0.0107345
0.010593
0.0104778
0.0103905
0.0103315
0.0102988
0.0102903
0.00997413
0.00956223
0.00925113
0.00905538
0.0099291
0.00921769
0.00851633
0.00796001
0.00764906
0.00755096
0.00769763
0.00794605
0.00839184
0.00872257
0.00874481
0.00865547
0.00869027
0.00865803
0.00864253
0.00864524
0.00857121
0.00816616
0.0078502
0.00758794
0.00741564
0.00734817
0.00712559
0.00660936
0.00610539
0.00574104
0.00559674
0.00563524
0.00589637
0.00643649
0.00711157
0.00751385
0.00753043
0.00742445
0.00754075
0.00690367
0.00743204
0.0076615
0.00768537
0.00758235
0.00734057
0.00712525
0.00698865
0.00694638
0.00495801
0.00475759
0.00459671
0.00451204
0.00456209
0.00475263
0.00512713
0.0059605
0.00669394
0.00709079
0.00710136
0.0070118
0.00708734
0.00702123
0.00692917
0.00683392
0.00674098
0.00664575
0.00651124
0.00643549
0.00640576
0.00640842
0.00469707
0.00472439
0.00470998
0.00472258
0.00474324
0.00486162
0.00495608
0.00514098
0.00713783
0.00705521
0.0068518
0.00664384
0.00643135
0.00618814
0.00592242
0.00565929
0.00541364
0.00511869
0.00423751
0.0042919
0.0044007
0.00455361
0.00594412
0.0059245
0.005832
0.00566914
0.00543115
0.00520196
0.00636607
0.00486949
0.00517909
0.00579181
0.00470299
0.00420531
0.00384274
0.00350791
0.00322865
0.00302968
0.00292864
0.00295418
0.00329307
0.00350668
0.00389251
0.00433843
0.00673348
0.00683483
0.00663786
0.00631932
0.00573412
0.00481547
0.00489472
0.00369027
0.00381731
0.00248713
0.00176316
0.0013666
0.00131616
0.00127728
0.00126732
0.00143454
0.0013834
0.0020272
0.00373051
0.00456279
0.00476281
0.00511012
0.00685873
0.00701084
0.0071881
0.00735347
0.00665361
0.00689365
0.00381408
0.00259395
0.00199484
0.000452864
0.00214272
0.0031017
0.00467777
0.00539079
0.00605042
0.00612463
0.0062022
0.00628551
0.00638317
0.00459912
0.00316266
0.00244884
0.000405341
0.00100318
0.00355845
0.00680013
0.00929298
0.00414021
0.00427251
0.00441855
0.00459655
0.00484206
0.00423786
0.00307058
0.00218743
0.00166831
0.00148282
0.00375304
0.00570046
0.0085933
0.00992573
0.00322391
0.00333097
0.00344632
0.00357718
0.00375468
0.00401286
0.00419815
0.00270407
0.00266524
0.00190346
0.000827496
0.00130535
0.0012485
0.00124393
0.00128366
0.00164954
0.00146021
0.00208145
0.00263269
0.00332173
0.00391649
0.00458462
0.00406095
0.00416403
0.0038841
0.00431089
0.00344821
0.00397715
0.00405058
0.00383124
0.00361089
0.00340579
0.00323886
0.00315838
0.00312269
0.00313137
0.00377572
0.00385456
0.00395994
0.00409669
0.00562841
0.00537649
0.00496793
0.0052815
0.005534
0.00544852
0.00537977
0.00531804
0.00526019
0.0052101
0.00518567
0.00519386
0.00522261
0.005261
0.00530948
0.00537079
0.00544677
0.00607983
0.0061109
0.00612259
0.00611081
0.00609549
0.00608269
0.00600825
0.00297932
0.00210903
0.000287218
0.00603275
0.00621053
0.00639462
0.0065692
0.00673583
0.00689684
0.00534147
0.00406219
0.00332071
0.00234743
0.00179734
0.00168523
0.00170111
0.00202815
0.00201913
0.00170987
0.00155071
0.00151529
0.0050042
0.0052216
0.00546962
0.00576047
0.00610183
0.0060763
0.00568583
0.00508462
0.00507832
0.00586899
0.00482423
0.00433807
0.00412117
0.0039492
0.00375489
0.00356785
0.00339689
0.00325437
0.00465196
0.00468094
0.0047619
0.00490919
0.0051258
0.00537264
0.00502457
0.00493761
0.00518594
0.00550247
0.00670301
0.00652088
0.00627094
0.00609633
0.0058183
0.0055965
0.00542213
0.00529661
0.00506317
0.0055329
0.0050339
0.00497359
0.00527985
0.00529652
0.00458816
0.00466697
0.00473053
0.00519838
0.00575201
0.00644249
0.00657326
0.00663688
0.00641418
0.00664848
0.00667519
0.00661391
0.00647484
0.00641415
0.00638987
0.00639278
0.0064135
0.00645089
0.00594708
0.0057587
0.00551863
0.00525351
0.00506745
0.00497482
0.00502773
0.00544275
0.00593679
0.00628783
0.00642799
0.00656877
0.00670137
0.00682744
0.00693302
0.00626118
0.00696358
0.00711918
0.00716368
0.00721827
0.00728397
0.00735974
0.00744321
0.0074393
0.00730555
0.00717765
0.00702888
0.00695543
0.00630658
0.00579252
0.00543457
0.00528658
0.00555161
0.00588729
0.00626258
0.00650987
0.006624
0.00671305
0.00692223
0.00607761
0.00662993
0.00704277
0.00757832
0.00766262
0.00749281
0.00733298
0.00720543
0.00713315
0.00869553
0.00840463
0.00823541
0.00812572
0.00805403
0.00789003
0.00712757
0.00659489
0.0063285
0.00628975
0.00647021
0.00674651
0.00681516
0.00691286
0.00701615
0.0072226
0.00757539
0.007837
0.00788341
0.00778955
0.00766413
0.00756511
0.00749274
0.00744436
0.0100049
0.00971687
0.00949073
0.00935742
0.00924844
0.00914926
0.00909001
0.00856677
0.00802214
0.00766935
0.00758981
0.00779705
0.0082375
0.00831543
0.00829716
0.0083637
0.00862339
0.00895123
0.00902426
0.00888689
0.00872609
0.00864001
0.0086139
0.00861803
0.00864159
0.0100853
0.0099562
0.00986273
0.00981412
0.00978585
0.00975271
0.00974679
0.00976661
0.00932565
0.00879171
0.00867203
0.00893896
0.00945101
0.00958262
0.0096007
0.00979689
0.0101697
0.010224
0.0102868
0.0103579
0.0101372
0.0101078
0.0101822
0.010311
0.0104619
0.00965719
0.00961249
0.00958637
0.00958389
0.00960594
0.00964348
0.00970287
0.00978408
0.00988242
0.00940562
0.00919564
0.00936721
0.00991114
0.0100757
0.010097
0.010387
0.0106554
0.0107472
0.0108456
0.0108056
0.0107879
0.0108648
0.0110663
0.0113455
0.0114368
0.00843604
0.00843488
0.00845397
0.00849938
0.00856571
0.00865776
0.00877633
0.00891608
0.00881122
0.00854603
0.00871496
0.00931347
0.00964398
0.00974925
0.00991283
0.010044
0.0101752
0.0103133
0.0103303
0.0103343
0.0104405
0.0106698
0.0109909
0.0111132
0.00839967
0.00839597
0.00841303
0.00845656
0.00852119
0.00861196
0.00872934
0.00886853
0.00873116
0.00842543
0.00855173
0.00909646
0.00948106
0.00968321
0.00987472
0.0100059
0.0101376
0.0102766
0.0103297
0.0103209
0.0104161
0.0106318
0.0109386
0.0110859
0.00958277
0.00955972
0.00956059
0.00958628
0.00962925
0.00969475
0.00978148
0.0098867
0.00938319
0.00905771
0.00911976
0.00956555
0.00983915
0.0101518
0.0105985
0.0106824
0.0107669
0.0108599
0.0109587
0.0108712
0.010896
0.0110458
0.0112776
0.0114361
0.00993168
0.00988959
0.009867
0.00984729
0.00985108
0.009879
0.00954808
0.00891634
0.00866207
0.00879176
0.00922687
0.00953752
0.00929341
0.0102067
0.0102653
0.010303
0.0103519
0.0104117
0.0103807
0.0101467
0.0101423
0.0101993
0.0102834
0.00967239
0.00953248
0.00941404
0.00929846
0.00922568
0.00893803
0.00835751
0.00790164
0.00765285
0.00765739
0.00797785
0.00815079
0.00797811
0.00857667
0.00901496
0.00922821
0.00926654
0.00907159
0.00875058
0.00859349
0.0085075
0.00847114
0.00842728
0.00844623
0.00827394
0.00816846
0.00810213
0.00806297
0.00753759
0.00689853
0.00649771
0.006293
0.00627659
0.00645624
0.00649899
0.0067628
0.0070467
0.00731169
0.00765602
0.00794621
0.00784362
0.00765873
0.00750906
0.00737879
0.00726976
0.00719906
0.00722591
0.00713819
0.00672109
0.00612473
0.00567104
0.00544325
0.00542927
0.00566098
0.00592234
0.00609074
0.00630456
0.00655015
0.00679735
0.00680702
0.00629939
0.00672186
0.00758025
0.00749111
0.00731124
0.00714269
0.00700905
0.00691211
0.00572658
0.00532116
0.00506955
0.00493748
0.00496305
0.005312
0.00575312
0.00618854
0.00655368
0.00670064
0.00683541
0.00695776
0.00700155
0.00610548
0.00666491
0.00720468
0.00724363
0.0072959
0.00736364
0.00744648
0.0073827
0.00721738
0.00491613
0.00532055
0.00521444
0.00453798
0.00461417
0.00467081
0.00511174
0.00564411
0.00652162
0.00664942
0.00670439
0.00619983
0.00647052
0.00675729
0.006781
0.00644306
0.0063793
0.00635912
0.0063742
0.00641516
0.00647944
0.00656365
0.00482563
0.00497726
0.00519838
0.00537737
0.00498858
0.00490483
0.00510913
0.00543728
0.00664264
0.00650797
0.00622828
0.00623163
0.0061845
0.00610205
0.00600072
0.00591411
0.00492011
0.00493059
0.00496427
0.00499846
0.00509015
0.00523172
0.00516481
0.00542449
0.00572701
0.00607373
0.00604346
0.00566639
0.00502164
0.00692361
0.00623072
0.00597304
0.00541988
0.00507608
0.00481004
0.00457235
0.00437477
0.00422592
0.00412548
0.00406284
0.00400098
0.00359261
0.00395058
0.00437561
0.0060802
0.00626868
0.00645217
0.00663493
0.00681938
0.00512036
0.00480258
0.00387419
0.00476554
0.00348178
0.00316482
0.00306588
0.00294165
0.00277904
0.00266039
0.00256081
0.00249248
0.00250116
0.00260723
0.00286003
0.00500593
0.00577869
0.0060811
0.00611694
0.00613701
0.00615528
0.00617413
0.006301
0.00317957
0.00252913
0.00170685
0.00159213
0.00126002
0.0011392
0.00170638
0.00136359
0.000739069
0.000752539
0.000506705
0.00070297
0.00222732
0.00476816
0.00497608
0.00482672
0.00544663
0.00541795
0.00539925
0.00541671
0.00544147
0.0051198
0.00289215
0.00138594
0.00127523
0.00367097
0.00427515
0.00538763
0.00452734
0.00463436
0.0047506
0.00487565
0.00500404
0.00431572
0.00269473
0.00129889
0.000678409
0.00315401
0.00498596
0.00719018
0.00379417
0.00393356
0.00408281
0.00424936
0.0044497
0.00409488
0.00231029
0.00157661
0.00172049
0.00383968
0.00450447
0.00538036
0.00376279
0.00388569
0.00401318
0.00414997
0.00431453
0.0035185
0.00442395
0.00202422
0.00132124
0.00165815
0.00128756
0.00169027
0.00178477
0.0018324
0.00126046
0.00124954
0.00153819
0.0014794
0.00243656
0.00279905
0.00367455
0.0040371
0.00533113
0.00510426
0.00394333
0.00437808
0.00349852
0.00409528
0.00442352
0.00437334
0.00433054
0.00429667
0.00421272
0.00418575
0.00387355
0.00322561
0.00366706
0.00506666
0.00528284
0.00540828
0.00726287
0.0072165
0.00701899
0.00729598
0.00714441
0.00704209
0.00695471
0.00687779
0.00681585
0.00676969
0.00675641
0.0067979
0.00583031
0.00578086
0.00634147
0.00677961
0.00711468
0.00446497
0.00444241
0.00443418
0.00444499
0.0044705
0.00452418
0.00418011
0.00237553
0.00105268
0.0054141
0.00530873
0.00519261
0.0050786
0.00497752
0.00489854
0.00487201
0.00337756
0.0025801
0.0015037
0.00145798
0.0014613
0.00177989
0.00202168
0.0020621
0.00166864
0.000791835
0.00077971
0.00503374
0.00522027
0.00532494
0.00534613
0.00532436
0.00527402
0.00521733
0.004424
0.00401852
0.00381058
0.00320739
0.00288694
0.00271894
0.0026281
0.00258379
0.00255734
0.00249697
0.0025378
0.00330571
0.00357503
0.0038951
0.0042478
0.00459399
0.00478202
0.00470614
0.00423351
0.00396063
0.00365851
0.00398865
0.00481197
0.00440731
0.00407318
0.00377952
0.00354402
0.00344499
0.00338033
0.00345558
0.00360207
0.00331979
0.00335794
0.0034597
0.00357534
0.00383121
0.0040275
0.00413878
0.00397932
0.00417125
0.00432645
0.00538896
0.00537914
0.00525092
0.00522529
0.00511335
0.00496466
0.00481275
0.00472469
0.00473842
0.00446659
0.00457971
0.004719
0.00488186
0.00398368
0.00393664
0.0038747
0.00384185
0.00388191
0.00397173
0.00410725
0.00422532
0.0044904
0.00475735
0.00502929
0.00524353
0.00538525
0.0055018
0.00554235
0.00559834
0.00566808
0.00571355
0.00540927
0.00542709
0.00548204
0.00556597
0.00567316
0.00579896
0.00399957
0.00421466
0.00420313
0.00418465
0.00421339
0.00426773
0.0043555
0.00433864
0.00443524
0.00463056
0.00483982
0.00505377
0.00525448
0.00544493
0.00561988
0.00570753
0.00586628
0.00601198
0.00593565
0.0060187
0.00611177
0.00621534
0.00632906
0.00645187
0.00420388
0.0044054
0.0048199
0.00483448
0.00456803
0.00446745
0.00443105
0.00434658
0.00422702
0.00447903
0.00490522
0.00518834
0.00529636
0.00543017
0.00573915
0.00544843
0.00581517
0.00610426
0.00623025
0.00635912
0.00649051
0.00662519
0.00676335
0.0069046
0.00539886
0.00518001
0.00535794
0.0054859
0.00550021
0.0050686
0.00517364
0.00528013
0.00549916
0.00570871
0.00551353
0.00557679
0.00565802
0.00585279
0.00581943
0.00594331
0.0062201
0.00632916
0.00644383
0.00657792
0.00671772
0.00685947
0.00700252
0.00714679
0.00729193
0.00555396
0.00553678
0.00552845
0.00553468
0.00557378
0.00506576
0.00517721
0.00530946
0.00545619
0.00561165
0.00576488
0.00590722
0.00601993
0.00612923
0.00624986
0.00637135
0.00648621
0.00659878
0.00671987
0.0068602
0.007011
0.00716226
0.00731236
0.00746075
0.00760725
0.005963
0.00594091
0.00591647
0.00591291
0.00594528
0.00521522
0.0052944
0.00540405
0.00554217
0.00570224
0.00574555
0.00540932
0.00613859
0.00625955
0.00639552
0.0065329
0.00665951
0.00678365
0.00691664
0.0070666
0.00722688
0.00738598
0.00754218
0.00769494
0.00784379
0.00558102
0.00560847
0.00564544
0.00570604
0.00529415
0.00536839
0.00546997
0.00559919
0.00574895
0.00572615
0.00514156
0.00574028
0.00626653
0.00639232
0.00652268