/*--------------------------------*- C++ -*----------------------------------*\
  =========                 |
  \\      /  F ield         | OpenFOAM: The Open Source CFD Toolbox
   \\    /   O peration     | Website:  https://openfoam.org
    \\  /    A nd           | Version:  13
     \\/     M anipulation  |
\*---------------------------------------------------------------------------*/
FoamFile
{
    format      ascii;
    class       volScalarField;
    location    "1000";
    object      omega;
}
// * * * * * * * * * * * * * * * * * * * * * * * * * * * * * * * * * * * * * //

dimensions      [0 0 -1 0 0 0 0];

internalField   nonuniform List<scalar> 
171247
(
830.865
291.388
77.2389
77.3623
77.776
78.611
80.0816
82.5545
86.012
91.6776
92.9894
101.564
120.977
144.353
326.19
679.618
1062.95
236.537
48.3955
49.7448
51.3299
53.2529
55.4521
57.9417
61.4287
66.1983
72.212
75.1416
83.4458
96.3024
122.249
211.184
371.425
534.729
549.308
30.3949
31.3662
32.4711
33.6899
35.2511
37.3472
40.0659
43.4356
47.3134
50.8451
53.9308
60.1841
67.9755
82.4496
113.505
166.125
232.074
229.787
23.7541
24.18
24.7095
25.4089
26.3202
27.4886
28.948
30.706
32.7194
34.8052
36.6321
38.4857
40.6016
43.3767
47.5508
54.0993
63.6455
81.3126
96.7917
110.259
122.149
132.859
21.2157
21.4478
21.7319
22.0813
22.5129
23.045
23.6946
24.4733
25.3794
26.3714
27.3807
28.4248
29.5219
30.7521
32.2606
34.2425
36.9091
40.7184
44.9898
49.2207
53.1702
56.7288
19.8748
19.9774
20.094
20.2264
20.3798
20.562
20.782
21.0497
21.3739
21.7584
22.1942
22.6709
23.1765
23.7085
24.2768
24.9105
25.6382
26.4907
27.5059
28.6369
29.7974
30.918
31.956
32.8785
19.3471
19.3898
19.4324
19.4766
19.5268
19.5883
19.6664
19.7691
19.9007
20.0628
20.2532
20.4653
20.6926
20.9317
21.1838
21.4539
21.7461
22.0615
22.4023
22.7581
23.1149
23.4566
23.7728
24.0583
19.0337
19.0336
19.0324
19.0327
19.0405
19.0609
19.0955
19.1434
19.2065
19.2841
19.374
19.4729
19.5776
19.6862
19.7978
19.9132
20.0337
20.1593
20.2889
20.4188
20.5449
20.6628
20.7686
20.8615
18.9194
18.8938
18.8691
18.8494
18.8403
18.8447
18.8628
18.8939
18.9362
18.9864
19.0413
19.0983
19.1551
19.2106
19.2644
19.3167
19.3686
19.421
19.4733
19.5242
19.5712
19.6126
19.6473
19.674
18.9613
18.9247
18.8904
18.8638
18.8492
18.849
18.8632
18.8907
18.9282
18.9711
19.0159
19.0598
19.1012
19.1389
19.1725
19.202
19.2287
19.2538
19.2777
19.2996
19.318
19.3316
19.3401
19.3429
19.0772
19.0378
19.0035
18.978
18.9655
18.9677
18.9853
19.0166
19.0573
19.1026
19.1484
19.1917
19.2311
19.2659
19.2956
19.3202
19.3407
19.3589
19.3754
19.3893
19.3995
19.4048
19.4051
19.4
19.199
19.1608
19.1291
19.107
19.0989
19.1063
19.13
19.1679
19.2157
19.2678
19.3193
19.3668
19.4092
19.446
19.4768
19.5016
19.522
19.5395
19.555
19.5677
19.5762
19.5796
19.5776
19.5702
19.1937
19.156
19.1247
19.1031
19.0955
19.1036
19.1282
19.1673
19.2166
19.2702
19.3229
19.371
19.4128
19.448
19.4763
19.4982
19.5154
19.5299
19.5427
19.5528
19.559
19.5602
19.5561
19.5467
19.02
18.9864
18.9615
18.9498
18.953
18.9719
19.0053
19.0485
19.0963
19.1433
19.1857
19.2217
19.2505
19.2718
19.2868
19.2977
19.3066
19.3146
19.3209
19.3242
19.3234
19.318
19.3079
18.8957
18.862
18.8359
18.8219
18.8223
18.8377
18.8673
18.9073
18.9523
18.9973
19.0385
19.0735
19.1015
19.1221
19.1368
19.1479
19.1576
19.1669
19.1753
19.1813
19.1838
19.1819
19.175
18.8559
18.8309
18.811
18.8015
18.8057
18.8241
18.8562
18.8997
18.9508
19.0045
19.057
19.1053
19.1481
19.1851
19.2175
19.2468
19.2753
19.3037
19.3313
19.356
19.3762
19.3912
19.4007
18.9828
18.9802
18.9788
18.9851
19.004
19.0368
19.0838
19.146
19.222
19.309
19.4021
19.4971
19.5904
19.68
19.766
19.8507
19.9359
20.0218
20.1062
20.1857
20.2576
20.3205
20.3744
19.3569
19.398
19.4454
19.5043
19.5809
19.6827
19.8134
19.9745
20.1632
20.3724
20.5909
20.8107
21.0283
21.2455
21.4655
21.6913
21.9224
22.1518
22.37
22.5699
22.7482
22.9051
20.0284
20.1563
20.3065
20.487
20.7076
20.9788
21.3104
21.7057
22.1527
22.6378
23.1388
23.6383
24.13
24.629
25.1503
25.7091
26.3248
26.9667
27.5912
28.1655
28.6726
29.1101
21.4455
21.7316
22.0892
22.5375
23.0966
23.7843
24.6104
25.5671
26.6046
27.649
28.6843
29.6834
30.6878
31.7589
32.9847
34.4653
36.5204
38.8284
41.0854
43.1157
44.8251
46.2131
24.476
25.0348
25.7858
26.7722
28.0382
29.6072
31.463
33.532
35.6538
37.6737
39.4438
41.1858
43.1378
45.6465
49.1568
54.1223
64.9344
74.941
83.5937
90.8398
96.7323
101.555
32.6393
33.9477
35.3821
37.0421
39.2043
41.9136
45.1484
48.7446
52.3003
55.4666
55.4019
56.6811
59.902
66.1588
77.584
96.0346
178.267
199.163
216.67
232.61
245.72
257.399
50.4883
52.0935
54.0015
56.2648
58.7712
61.9596
66.2103
71.6146
71.7549
73.7728
79.1717
89.9658
116.855
166.584
240.921
324.944
387.016
419.389
397.114
382.921
369.884
354.417
74.0151
74.4236
75.1934
76.5072
78.6858
81.918
87.1624
87.2616
90.7756
100.478
123.672
145.378
272.914
475.55
709.381
560.768
251.792
144.738
146.11
166.685
193.787
207.147
93.8839
92.4293
91.5213
91.3126
92.1076
94.9195
101.921
102.639
112.814
145.272
200.711
562.746
647.304
451.323
265.349
132.594
115.866
125.314
138.22
155.541
153.08
156.92
106.248
102.88
100.081
97.9354
96.6941
97.1132
97.0044
101.342
121.842
148.793
382.682
844.686
631.481
216.119
123.999
124.419
122.935
120.084
121.896
126.067
122.451
116.655
111.52
106.979
103.274
100.932
100.615
99.9868
108.06
134.636
188.726
383.864
720.093
566.044
219.884
136.612
118.365
113.565
122.197
122.693
126.198
133.866
137.655
130.779
124.495
118.675
113.281
108.456
104.935
103.574
102.799
106.731
118.362
161.385
253.073
393.131
519.144
571.514
518.154
442.026
417.65
401.523
391.738
380.497
119.592
115.033
110.972
107.703
105.494
104.129
103.9
108.531
121.2
148.89
189.604
235.999
227.65
238.38
247.517
256.778
264.798
273.353
106.681
105.642
104.472
103.2
102.167
101.347
101.113
101.824
103.832
107.334
112.226
121.684
128.766
133.988
137.789
140.371
142.032
131.314
129.55
128.409
128.086
128.908
131.156
135.647
137.898
153.796
194.816
473.909
743.642
92.195
93.999
96.1279
98.779
101.712
105.326
110.473
118.482
122.587
137.534
167.185
242.59
436.694
575.371
643.136
629.889
651.034
51.2343
54.2676
57.4005
60.6018
64.3987
69.028
74.5597
80.9439
87.7151
92.1345
101.564
111.264
124.597
139.608
159.056
185.82
220.387
256.333
31.5215
33.1483
35.0938
37.485
40.4041
43.8867
47.8989
52.2925
56.7059
60.239
63.1979
65.9045
68.5884
71.4863
74.9132
79.2123
84.6872
91.776
102.135
110.301
116.809
122.113
24.9361
25.848
26.9116
28.1703
29.6776
31.4669
33.5358
35.826
38.1927
40.3535
42.3264
44.1663
45.9025
47.6031
49.3531
51.2511
53.3685
55.7532
58.4093
60.9453
63.1913
65.1108
21.7923
22.2403
22.724
23.2439
23.8185
24.4729
25.2311
26.1082
27.0995
28.1719
29.2743
30.3575
31.4054
32.4122
33.3858
34.3422
35.2994
36.2759
37.2697
38.2499
39.1615
39.9741
40.6807
41.2771
20.9955
21.2575
21.5008
21.7211
21.9313
22.152
22.416
22.7465
23.145
23.6048
24.1061
24.6198
25.1269
25.6208
26.1036
26.5747
27.0347
27.4855
27.9257
28.3467
28.7348
29.0802
29.3825
29.6446
20.3978
20.5208
20.6239
20.7058
20.7935
20.8996
21.0279
21.1822
21.3634
21.5687
21.7932
22.0277
22.2635
22.4947
22.7163
22.9298
23.135
23.3324
23.5218
23.7033
23.8696
24.0178
24.1482
24.2619
20.2093
20.2407
20.2585
20.2775
20.3109
20.3595
20.4247
20.5058
20.5997
20.7026
20.8113
20.9226
21.0335
21.1415
21.2434
21.3384
21.4271
21.5103
21.59
21.6639
21.7296
21.7858
21.8323
21.87
20.4295
20.4124
20.388
20.3707
20.3654
20.3749
20.3988
20.4361
20.483
20.5353
20.5893
20.6425
20.6936
20.7413
20.7842
20.8219
20.8549
20.8848
20.9123
20.9364
20.9553
20.9682
20.975
20.975
20.8091
20.7724
20.7369
20.7074
20.6883
20.6829
20.6911
20.7108
20.7385
20.7699
20.8009
20.8289
20.8537
20.8748
20.891
20.9019
20.909
20.914
20.9177
20.9188
20.9158
20.9079
20.8949
20.8764
21.2742
21.2314
21.1919
21.1584
21.1353
21.1265
21.1327
21.1502
21.1753
21.203
21.2286
21.2492
21.265
21.2761
21.2816
21.2813
21.277
21.2706
21.2629
21.2525
21.238
21.2183
21.1936
21.1633
21.2684
21.227
21.1889
21.1567
21.1348
21.1274
21.1352
21.1546
21.182
21.2119
21.2394
21.261
21.2765
21.286
21.2887
21.2849
21.2771
21.2676
21.2569
21.2438
21.2267
21.2046
21.1775
21.1449
20.7467
20.7123
20.6839
20.6659
20.6614
20.6709
20.6925
20.7227
20.7563
20.7883
20.8151
20.8359
20.8505
20.8581
20.8594
20.8571
20.8534
20.849
20.843
20.8337
20.8203
20.8024
20.7798
20.365
20.3414
20.3244
20.3191
20.3282
20.3521
20.3898
20.4375
20.49
20.5424
20.5909
20.6342
20.6719
20.7021
20.7246
20.742
20.757
20.7709
20.7829
20.7912
20.7951
20.7938
20.7878
20.1756
20.1914
20.2079
20.2384
20.2837
20.3459
20.4245
20.516
20.616
20.7198
20.8235
20.9238
21.019
21.1045
21.1802
21.2469
21.3078
21.3651
21.4182
21.4657
21.5067
21.5416
21.5708
20.4206
20.517
20.5914
20.6718
20.7696
20.8897
21.036
21.21
21.4086
21.6261
21.8539
22.0825
22.3018
22.5036
22.6915
22.8657
23.0276
23.1796
23.3229
23.4535
23.5706
23.6751
23.769
21.2666
21.4748
21.6737
21.8837
22.146
22.4759
22.8777
23.3451
23.8591
24.3909
24.9105
25.4046
25.8713
26.3061
26.7087
27.0814
27.4269
27.7447
28.0296
28.2797
28.4985
28.6912
22.4668
22.9682
23.5302
24.1807
24.9473
25.849
26.8861
28.0287
29.215
30.3678
31.462
32.4783
33.4131
34.2702
35.0595
35.7951
36.4878
37.1276
37.6893
38.163
38.5581
38.8923
25.742
26.8234
28.1272
29.7149
31.6258
33.8589
36.3489
38.9336
41.3024
43.3633
45.2205
46.8836
48.3902
49.7727
51.0925
52.3904
53.7094
55.0887
56.3322
57.3446
58.1341
58.7388
34.1176
36.1988
38.7904
41.9704
45.7601
50.0861
54.7486
59.3284
62.965
65.8245
68.3108
70.5805
72.7805
74.9851
77.3385
80.0033
83.3506
88.9567
93.3214
96.4607
98.6484
100.096
58.6786
62.1678
65.6967
69.5573
74.1216
79.3902
85.2629
90.941
90.3094
90.9906
93.3827
96.7897
100.795
105.559
111.562
119.868
133.719
185.469
192.289
196.503
199.387
201.653
95.8407
97.8881
100.39
103.314
106.65
111.272
118.475
118.033
121.706
133.558
160.928
190.319
216.646
240.849
262.468
295.307
338.168
366.012
389.78
369.503
348.41
328.575
126.11
125.146
124.888
125.637
127.865
132.118
131.214
139.512
164.312
205.879
405.771
592.883
949.517
645.591
789.151
759.334
544.959
297.931
263.84
257.053
260.545
246.744
144.778
141.493
139.133
137.988
138.878
144.498
144.475
164.511
195.089
618.712
2443.98
546.618
158.022
176.487
205.22
195.41
188.267
160.227
155.388
151.577
148.927
148.14
152.084
152.159
181.679
257.307
883.582
197.238
195.38
178.911
163.309
159.791
159.749
153.764
148.662
144.554
141.699
140.846
141.527
154.352
188.702
564.447
1933.83
371.539
217.888
215.149
256.147
286.558
280.684
153.511
147.055
141.428
136.773
133.137
130.998
130.354
132.508
146.449
192.045
325.44
545.598
757.171
779.926
642.49
626.028
561.868
530.245
405.004
389.109
375.362
361.658
126.36
124.308
123.114
123.082
124.649
131.474
146.783
172.079
189.523
203.373
214.41
227.639
237.585
198.498
199.977
200.411
198.996
198.328
98.6416
100.595
102.601
104.545
106.112
107.627
109.132
110.605
111.972
113.128
114.045
114.961
116.011
116.017
114.786
113.203
111.562
154.796
149.991
145.983
142.887
140.75
140.129
142.886
148.086
186.391
483.982
2403.68
141.031
139.275
138.052
137.332
137.018
137.572
139.547
141.713
156.791
207.322
343.863
553.272
604.593
608.385
601.828
589.371
572.972
594.932
101.706
104.921
107.716
110.329
113.249
116.622
120.415
124.607
127.616
137.597
150.598
164.893
175.795
184.963
194.37
204.199
215.409
229.23
56.9588
60.8016
64.5795
68.7186
73.3166
78.4242
83.8627
89.4319
94.7191
98.88
101.857
104.091
105.72
107.394
108.736
109.876
110.898
112.076
113.695
39.8167
42.4082
45.1855
48.1749
51.4858
55.1976
59.2473
63.5006
67.7056
71.4414
74.4799
76.9854
78.901
80.4268
81.6239
82.771
83.4189
83.7003
83.9632
84.2797
84.6466
84.951
85.1811
32.1342
33.8262
35.4976
37.1743
38.9336
40.8451
42.9461
45.2115
47.5896
49.982
52.2705
54.3058
56.0641
57.5742
58.8401
59.8492
60.62
61.1729
61.5815
61.898
62.1414
62.3233
62.4677
62.599
29.6858
30.7637
31.6445
32.345
32.9404
33.5829
34.3995
35.3493
36.4261
37.5894
38.7697
39.9003
40.9481
41.9022
42.7517
43.4586
44.0424
44.5113
44.8936
45.2032
45.4492
45.6428
45.7998
45.9376
26.8178
27.4598
27.9192
28.2113
28.5412
28.9046
29.3176
29.7772
30.2747
30.81
31.3614
31.9068
32.422
32.8994
33.3328
33.7085
34.0216
34.2803
34.4956
34.6766
34.8262
34.9464
35.0443
35.1271
25.2656
25.5404
25.6929
25.8399
26.0117
26.2013
26.418
26.6481
26.8852
27.1315
27.3825
27.6318
27.8682
28.0876
28.2834
28.4509
28.5876
28.6957
28.7812
28.8493
28.9035
28.9437
28.9719
28.9911
25.2875
25.3254
25.3116
25.2944
25.297
25.3158
25.3494
25.3958
25.4542
25.5226
25.5977
25.6711
25.7411
25.8046
25.8578
25.8984
25.9255
25.9405
25.9473
25.9468
25.9381
25.9207
25.8957
25.8654
26.1685
26.1047
26.0204
25.9245
25.8263
25.7372
25.6615
25.6004
25.5514
25.5109
25.4755
25.4381
25.4008
25.3631
25.3205
25.2704
25.2152
25.1576
25.0994
25.0404
24.9793
24.9153
24.8476
24.7756
28.0446
27.9235
27.782
27.6232
27.4595
27.3013
27.1563
27.0255
26.9083
26.7984
26.6923
26.5817
26.4706
26.3607
26.2467
26.127
26.0053
25.8848
25.7672
25.6517
25.5367
25.421
25.3039
25.1848
28.0584
27.942
27.8044
27.6495
27.489
27.3332
27.1905
27.0621
26.9474
26.84
26.7357
26.6253
26.5131
26.4001
26.2812
26.1561
26.0292
25.9042
25.7826
25.6634
25.5448
25.4255
25.3051
25.183
26.0686
25.9844
25.888
25.7884
25.6956
25.6157
25.5504
25.4976
25.4533
25.4135
25.3705
25.3259
25.2782
25.2254
25.1654
25.1019
25.0382
24.9754
24.9132
24.85
24.7848
24.7173
24.6469
25.1841
25.1682
25.1478
25.1401
25.1472
25.1678
25.2026
25.2524
25.3127
25.3782
25.4423
25.503
25.5559
25.6024
25.6333
25.6514
25.6605
25.6641
25.6644
25.658
25.6454
25.6284
25.6085
25.2718
25.4204
25.5613
25.7269
25.9072
26.114
26.333
26.5571
26.7891
27.0266
27.2648
27.4944
27.7099
27.9059
28.0746
28.2124
28.3234
28.4134
28.4873
28.5494
28.6025
28.6496
28.6925
27.1649
27.6073
27.8736
28.173
28.502
28.8748
29.2979
29.7612
30.2722
30.8126
31.3649
31.9032
32.4102
32.8756
33.2818
33.6178
33.8961
34.1283
34.3252
34.4956
34.6467
34.7829
34.9132
30.7062
31.381
31.9494
32.5961
33.41
34.3755
35.476
36.6996
37.9743
39.226
40.4064
41.4918
42.4616
43.2778
43.931
44.4567
44.8939
45.247
45.5365
45.7833
46.0112
46.2384
34.3978
36.0479
37.8031
39.7376
41.898
44.2747
46.8008
49.4844
52.085
54.4302
56.4759
58.2404
59.722
60.8936
61.778
62.3971
62.8212
63.1195
63.3391
63.5254
63.7095
63.9099
44.7066
47.8027
51.279
55.2182
59.5575
64.147
68.7249
72.9226
76.3529
79.2038
81.3875
83.111
84.4435
85.6797
86.2688
86.2536
86.063
85.8245
85.6125
85.4309
85.2915
85.2129
66.9314
71.2538
76.0653
81.3983
87.0478
92.7531
98.1262
102.774
105.939
108.069
109.476
110.929
111.928
112.47
112.525
112.275
112.014
112.044
113
113.429
113.517
113.452
110.555
113.176
115.506
118.051
120.93
124.083
127.539
132.289
131.033
131.333
133.376
135.544
137.816
140.238
142.498
144.57
146.839
152.424
180.275
179.45
177.822
176.063
139.895
138.418
137.528
136.983
137.223
138.878
138.231
143.859
161.589
200.538
236.246
252.928
263.235
271.121
275.689
277.707
281.727
291.453
299.947
321.317
304.425
289.545
148.88
144.875
141.707
139.546
138.924
141.768
144.598
170.489
216.85
485.776
701.337
956.088
967.872
947.674
921.236
784.856
728.319
637.597
483.992
403.798
303.687
264.013
147.975
142.965
138.615
135.103
132.529
131.872
143.269
207.284
551.494
468.092
219.475
280.919
230.546
207.692
134.792
129.338
124.519
120.241
116.187
117.919
131.934
175.082
1201.04
292.598
226.596
211.056
217.292
159.022
152.667
147.14
142.478
139.373
139.097
141.638
174.797
554.549
531.354
471.496
333.001
362.354
326.157
153.781
148.375
143.764
140.038
137.177
135.571
134.471
142.872
195.172
444.253
1046.95
745.171
810.496
814.296
793.356
601.49
510.215
405.737
382.211
283.755
274.935
266.149
113.581
113.827
115.345
116.863
124.888
140.479
154.69
164.434
171.425
175.855
177.461
175.806
174.496
173.186
143.462
142.272
140.643
138.868
76.1312
79.0528
82.3873
85.5294
88.1685
90.0903
91.4258
92.3753
92.9888
93.17
92.8666
92.3743
91.812
91.0273
89.8804
88.4421
86.8038
152.642
145.865
139.845
134.516
130.068
126.614
125.432
135.812
213.638
1263.86
160.097
154.649
149.572
144.619
139.981
136.041
134.12
136.236
171.776
319.952
577.203
596.672
557.302
456.067
443.312
487.43
496.538
501.694
151.608
149.123
146.554
144.132
141.992
140.792
139.429
140.029
143.634
165.669
195.762
211.839
218.626
223.034
227.519
229.883
230.37
230.944
113.269
115.234
117.159
119.271
121.585
124.503
127.232
129.601
131.477
133.287
135.555
137.763
140.023
141.409
143.886
145.463
145.76
144.742
142.946
84.2393
87.6076
90.7206
93.583
96.7957
100.856
104.932
108.861
112.313
115.187
117.123
118.227
118.962
119.521
119.287
117.736
114.916
114.037
112.984
112.004
111.073
110.326
109.773
67.1069
70.151
72.8584
75.3707
77.8782
80.53
83.4121
86.2294
89.2241
92.0376
94.3197
96.0564
97.337
98.2938
98.7928
98.9793
98.1577
96.9808
95.6096
94.2899
93.1071
92.0991
91.28
90.6561
61.4055
63.7712
65.2781
66.1781
66.992
68.0487
69.3587
70.866
72.3971
73.9234
75.324
76.5283
77.5519
78.4095
79.0389
79.6834
79.7564
79.3941
78.6866
77.9195
77.1671
76.4781
75.8801
75.3806
52.2812
54.2034
55.1705
55.796
56.313
56.8173
57.4058
58.1165
58.9119
59.7479
60.5324
61.1859
61.7627
62.2535
62.6485
62.8961
62.95
62.82
62.5578
62.2224
61.8582
61.4939
61.1512
60.8446
42.9097
44.2449
45.2697
45.7489
46.189
46.764
47.2306
47.8374
48.279
48.6545
49.0087
49.3247
49.5729
49.7785
49.9412
50.0601
50.1143
50.074
49.9475
49.7639
49.5474
49.3122
49.0675
48.8235
48.5884
39.5703
40.0241
40.3303
40.3756
40.3575
40.519
40.651
40.7711
40.8885
41.0054
41.1249
41.2289
41.283
41.3073
41.2977
41.2523
41.1623
41.0259
40.849
40.6501
40.4485
40.2401
40.026
39.8089
39.5928
39.655
39.6436
39.5321
39.2994
38.9897
38.7242
38.4483
38.1786
37.941
37.7402
37.5681
37.4007
37.2265
37.0525
36.8789
36.6866
36.4681
36.2293
35.9798
35.7321
35.4887
35.2501
35.0131
34.7769
34.5423
45.823
45.446
44.9155
44.2868
43.6771
43.0303
42.3715
41.7437
41.1678
40.6336
40.1185
39.617
39.1364
38.6735
38.2113
37.7417
37.2725
36.8111
36.3685
35.9475
35.547
35.1619
34.7889
34.427
45.9928
45.6242
45.0979
44.4717
43.8643
43.2165
42.5536
41.9195
41.3363
40.7955
40.2732
39.7621
39.273
38.8003
38.3228
37.8375
37.3546
36.8815
36.4297
36.0006
35.5932
35.2023
34.8249
34.4598
39.6097
39.4807
39.2288
38.8974
38.6068
38.2911
37.9826
37.7021
37.4594
37.2482
37.0523
36.8601
36.683
36.5137
36.3297
36.1182
35.8912
35.656
35.4241
35.1991
34.9798
34.7639
34.5516
34.344
39.7234
39.7501
39.7061
39.8009
39.8732
39.9367
39.999
40.0739
40.16
40.2481
40.3121
40.3649
40.4879
40.4873
40.4444
40.3569
40.231
40.0838
39.9364
39.7887
39.6375
39.4867
39.3415
43.9533
44.4612
44.9395
45.581
46.0937
46.7224
47.1509
47.4878
47.8078
48.1256
48.4196
48.708
49.0961
49.3145
49.4723
49.5342
49.5088
49.4376
49.3387
49.2225
49.099
48.979
48.8769
53.6887
54.6924
55.2657
55.7059
56.0816
56.5079
57.0554
57.7206
58.4956
59.3155
60.0935
60.866
61.5712
62.185
62.6441
62.9013
62.9738
62.9324
62.8174
62.6653
62.5105
62.3817
62.2971
63.1805
64.1139
64.927
65.9711
67.2861
68.8445
70.5753
72.3679
74.1125
75.7248
77.1638
78.4156
79.4356
80.1327
80.7492
80.8483
80.4739
80.0073
79.535
79.1185
78.795
78.5879
70.4228
73.1152
75.8277
78.7006
81.8931
85.1398
88.5994
91.8314
94.5446
96.7314
98.4745
99.8867
100.818
101.504
101.165
100.37
99.2497
98.1373
97.1421
96.3328
95.7479
95.4092
90.2766
93.3742
96.8505
101.203
105.589
109.824
113.57
116.696
118.838
120.27
121.363
122.42
122.597
119.163
114.045
118.278
117.336
116.363
115.412
114.711
114.318
114.291
119.372
121.477
123.787
126.625
129.303
131.509
133.184
134.794
137.179
139.833
142.468
138.859
135.153
133.424
131.947
130.049
146.917
145.363
143.934
144.226
144.538
145.2
150.088
147.444
144.932
142.564
141.03
139.376
139.664
139.252
145.417
157.078
166.314
172.428
176.755
180.018
181.575
181.026
179.623
177.721
177.047
210.042
209.939
209.617
153.257
148.04
142.986
138.276
134.277
132.797
134.269
151.085
201.163
270.654
293.169
296.329
299.356
304.989
302.66
298.17
299.289
298.908
300.011
297.339
351.887
318.791
143.879
137.691
132.315
127.923
124.6
123.69
133.26
203.672
418.317
674.802
951.967
665.055
663.436
662.756
499.151
734.049
619.599
576.135
530.714
418.407
277.919
253.973
143.062
138.067
133.364
129.385
125.864
125.052
137.605
266.735
451.821
275.922
251.682
231.191
152.98
147.109
141.816
137.131
133.421
132.254
143.963
374.277
369.781
248.729
217.831
291.903
151.097
145.103
139.975
135.744
132.749
132.187
141.11
203.41
733.778
531.409
366.974
315.866
132.843
128.319
124.586
121.77
120.321
121.655
121.516
141.947
260.899
557.904
843.647
602.006
526.665
498.045
684.358
740.727
687.47
462.535
313.349
277.152
196.863
187.319
91.7634
92.3048
94.6127
98.0195
111.18
127.309
131.256
132.007
131.942
131.555
132.795
132.494
130.184
128.116
125.559
102.543
100.883
98.8688
60.6216
62.3698
64.6244
66.7895
68.2841
69.1687
69.815
70.2404
70.3889
70.2416
69.8729
69.4828
69.1194
68.5526
67.7477
66.6773
65.4057
153.884
146.423
139.387
132.817
126.731
121.563
121.042
134.478
332.266
155.348
148.14
141.198
134.561
128.321
122.689
119.264
123.564
178.761
535.24
574.329
560.85
481.834
463.761
469.991
600.763
565.811
780.547
162.632
155.585
148.183
140.574
133.546
129.006
123.309
121.094
133.153
178.635
228.899
262.651
280.9
296.065
307.744
301.047
299.223
298.493
153.741
150.949
148.558
146.267
143.429
139.966
135.366
131.393
128.162
128.641
138.092
154.245
170.091
184.04
197.089
206.25
207.671
205.958
200.449
219.412
140.265
138
134.925
132.048
132.032
132.251
133.027
133.406
132.69
131.459
131.627
134.144
138.634
140.165
144.942
149.144
151.721
150.522
147.514
159.253
157.786
155.701
153.581
123.16
122.445
121.978
121.783
122.274
123.017
123.344
123.896
123.984
123.524
123.004
122.939
123.586
124.27
124.794
123.923
122.861
121.187
122.844
123.227
123.086
122.622
122.019
121.411
121.957
124.497
124.63
123.082
120.793
118.285
115.757
114.674
118.268
116.617
115.118
113.855
112.834
112.101
111.755
110.904
108.761
106.127
105.308
104.369
103.488
102.695
101.999
101.404
126.672
129.042
128.62
126.329
123.016
118.804
114.284
110.075
107.494
105.981
104.295
106.992
104.949
103.224
101.704
100.218
98.4118
96.3788
94.5605
92.8843
91.3613
90.0229
88.8655
87.8735
103.716
106.741
109.219
109.873
108.93
127.214
123.201
116.721
107.115
100.374
95.6463
92.1103
98.8705
96.4334
94.1886
92.116
90.1182
88.0724
86.0247
84.1453
82.3637
80.7017
79.1858
77.8206
76.5986
88.7962
90.1356
91.3554
91.3238
90.0614
106.597
103.796
100.873
97.861
94.9974
92.3724
89.8674
87.4264
85.0815
82.9066
80.8615
78.8688
76.8665
74.9152
73.0877
71.4209
69.8461
68.3818
67.0323
65.7918
67.7521
67.9792
68.3448
68.1445
67.3231
81.8871
80.6879
79.3486
77.9967
76.7452
75.5854
74.5879
73.3048
71.8018
70.2895
68.7745
67.1987
65.5646
63.9325
62.3835
60.9902
59.6641
58.4177
57.2521
56.1633
78.1375
77.6052
76.3151
74.2841
95.1447
92.1361
89.0556
86.089
83.3508
80.9472
79.008
76.9502
74.708
72.5171
70.4091
68.2844
66.1488
64.0672
62.1114
60.3635
58.7257
57.2048
55.7952
54.4876
87.9358
87.6535
86.2491
83.7982
96.192
93.0862
89.9057
86.8332
83.9927
81.4988
79.5039
77.3962
75.1169
72.9148
70.7879
68.6267
66.4551
64.3425
62.3605
60.5898
58.9341
57.3993
55.9798
54.6667
69.4314
69.121
68.2372
66.716
81.0907
79.4636
78.1022
76.6935
75.3601
74.1504
73.161
71.9611
70.6246
69.3732
68.0109
66.5522
65.019
63.4761
62.0081
60.6994
59.4532
58.2829
57.1914
56.1774
74.8344
75.0838
74.4485
103.72
101.121
98.3201
95.3614
92.4872
89.8565
87.431
85.2217
83.2088
80.0174
79.0638
77.4109
75.6994
74.0036
72.4055
70.9511
69.5685
68.279
67.0928
66.0104
96.2369
96.5224
95.6246
125.578
121.934
115.633
105.383
97.4038
91.356
86.7978
97.8698
95.8179
92.2474
91.3267
89.7482
88.0516
86.2934
84.659
83.0878
81.6059
80.2513
79.0397
77.9733
119.183
120.306
119.49
117.307
113.956
110.205
106.316
102.661
99.6874
97.2181
107.3
105.597
104.271
102.95
101.655
100.165
98.2961
96.5729
94.9854
93.554
92.3204
91.2891
90.4508
127.716
126.029
123.32
119.656
115.638
112.108
118.81
117.16
115.862
114.917
114.194
113.69
113.522
112.959
109.937
105.316
107.905
107.131
106.427
105.831
105.362
105.033
120.115
119.417
118.604
117.945
117.715
124.754
124.997
124.767
124.469
124.645
125.522
126.38
127.096
124.064
120.371
117.644
126.705
127.423
127.561
127.362
127.044
126.769
132.775
133.051
133.057
131.298
129.976
130.136
130.409
130.229
133.529
136.536
141.579
138.939
138.365
139.777
141.146
140.413
138.325
166.862
165.466
163.43
161.439
159.81
149.295
146.919
144.038
141.452
138.383
135.624
132.849
131.472
135.222
144.1
154.597
165.336
175.359
182.731
186.705
186.156
183.215
231.635
221.788
214.919
209.164
204.827
154.538
147.63
140.314
133.539
130.604
126.161
123.615
129.94
157.102
192.644
220.645
239.446
254.763
267.095
251.978
264.372
264.334
261.348
254.613
289.618
275.373
263.897
146.676
140.265
134.117
128.278
122.542
120.508
121.924
152.694
258.168
335.105
371.884
381.24
393.666
407.064
373.098
448.229
461.703
459.036
429.856
410.506
269.367
213.055
146.754
140.287
134.037
128.066
122.733
121.375
129.209
196.156
961.431
871.1
633.478
651.542
595.363
609.885
1045.67
440.242
510.512
385.075
270.23
238.229
258.498
273.434
145.53
139.065
133.14
127.714
123.231
123.01
142.932
643.297
592.971
333.969
316.441
306.271
142.788
136.402
130.828
126.047
122.502
123.508
141.281
358.393
384.618
317.949
133.8
127.735
122.576
118.494
116.031
117.448
144.849
457.495
788.345
540.598
405.246
265.505
110.689
106.475
103.003
100.419
99.0653
99.514
106.935
140.311
638.569
819.053
629.865
399.067
351.384
321.666
328.455
624.631
818.134
605.001
312.244
247.251
153.75
141.407
74.4914
75.2561
76.1878
83.2952
97.5071
104.067
104.653
103.628
102.332
101.092
100.114
99.7425
99.0523
96.6586
93.9757
76.793
75.2387
73.345
52.5846
53.4154
54.5524
55.4702
55.8949
56.1161
56.1026
55.9412
55.6327
55.1876
54.6846
54.2694
53.9349
53.4791
52.8459
51.9589
50.9191
144.622
137.911
131.757
126.068
120.89
116.53
115.964
136.297
837.504
143.721
136.778
130.539
124.926
119.825
116.858
113.391
117.529
188.157
522.881
625.674
735.022
782.34
513.935
758.627
445.637
317.275
346.798
286.539
152.584
144.12
136.454
130.896
122.909
117.321
113.063
114.527
148.263
212.929
381.566
515.076
571.314
798.038
667.059
467.74
414.021
382.421
158.928
155.199
151.446
146.382
138.717
131.433
124.782
122.092
127.36
131.789
168.45
222.386
279.305
335.688
450.388
567.583
635.387
576.41
416.87
306.229
144.158
141.479
140.803
140.981
140.496
139.654
137.555
134.822
133.602
135.858
142.713
192.504
191.236
204.385
223.412
244.066
267.436
283.788
307.794
264.269
238.592
218.806
203.701
144.354
143.058
143.324
140.316
137.09
135.479
134.22
132.9
146.145
146.933
151.513
153.622
154.773
158.2
162.604
168.242
174.635
179.343
198.03
189.152
180.258
172.066
164.797
204.972
202.816
195.198
181.764
166.486
152.997
142.778
135.133
132.765
133.156
133.727
133.806
132.315
131.488
130.864
131.137
130.191
129.273
139.663
140.038
138.924
136.957
134.556
234.548
232.819
222.156
209.12
196.667
184.113
171.908
161.031
150.922
142.072
134.938
128.626
124.685
122.651
120.698
118.164
115.884
113.169
110.673
112.793
112.805
112.45
111.796
110.915
249.165
242.557
238.519
229.487
216.336
201.708
187.313
176.066
167.24
159.515
152.799
145.775
137.309
129.006
122.437
117.293
113.029
109.221
105.496
106.723
104.451
102.441
100.64
99.0101
97.5171
253.937
248.154
244.669
237.316
224.117
207.428
189.723
174.156
161.274
151.017
143.093
136.684
130.702
124.441
118.625
113.561
108.909
104.403
100.007
96.5081
99.7373
96.9685
94.3804
91.9971
89.8153
173.091
175.352
179.133
179.408
174.638
167.119
207.689
194.841
182.485
171.084
161.401
150.486
135.191
123.838
114.612
107.409
101.561
96.3371
91.4172
87.1279
94.0136
91.2845
88.6244
86.0832
83.6836
196.479
195.377
197.25
193.097
184.54
174.843
223.475
207.514
192.172
178.577
167.443
156.898
141.937
130.25
119.932
111.394
104.472
98.2285
92.3709
87.1703
95.7676
92.7899
89.8449
86.9933
84.2695
226.391
226.963
219.812
208.656
194.878
224.226
208.314
193.019
179.394
168.133
157.608
142.789
131.179
121.013
112.761
106.001
99.7247
93.8044
88.5083
96.4773
93.5321
90.6019
87.7531
85.0237
172.235
174.903
173.716
167.85
160.356
151.712
198.006
186
174.38
164.218
153.943
138.631
126.974
117.31
109.614
103.309
97.4852
91.983
87.1257
96.2758
93.4894
90.7414
88.1015
85.605
217.857
214.881
205.788
193.409
179.499
166.143
154.065
143.752
135.412
129.11
123.701
118.374
113.827
109.93
105.875
101.701
97.4546
93.7067
101.229
98.4078
95.7687
93.3434
91.1339
239.906
233.054
220.661
205.348
189.592
176.714
166.364
157.646
150.491
144.259
137.245
130.025
124.318
119.428
114.675
110.177
105.809
108.138
105.743
103.63
101.757
100.091
98.5962
237.62
227.518
214.717
203.172
191.751
180.528
170.587
160.557
151.2
142.949
134.933
128.114
123.304
119.628
116.418
113.498
110.422
107.611
113.305
113.227
112.873
112.29
111.533
223.083
210.365
196.497
181.823
167.361
154.765
143.79
135.634
130.991
128.283
134.434
132.934
129.592
125.608
123.453
121.243
119.267
138.951
139.54
138.733
137.101
135.03
176.449
174.791
164.477
151.962
142.464
136.236
132.333
145.758
146.787
151.686
153.981
149.426
145.631
145.125
145.958
146.441
148.581
196.953
188.884
180.606
172.832
165.843
135.038
134.314
134.631
136.329
136.615
136.46
135.658
136.072
138.048
193.102
184.264
180.162
186.176
194.184
194.254
226.219
233.88
265.768
240.137
220.279
205.003
193.022
151.521
147.833
141.934
136.741
132.063
129.576
130.981
138.734
154.045
182.813
217.503
253.637
266.019
286.614
340.6
356.671
381.583
303.207
269.968
245.906
228.339
213.375
144.279
136.669
132.713
125.303
119.148
115.547
121.087
131.435
164.221
302.776
371.14
440.633
605.923
681.221
1084.01
574.947
397.09
352.169
321.268
261.837
236.571
206.008
136.507
130.294
124.719
119.663
116.784
112.564
113.854
165.988
243.835
442.952
587.952
625.759
771.272
554.327
434.452
382.932
279.62
249.45
231.497
186.354
200.21
137.919
131.827
126.201
121.075
116.744
115.179
124.008
268.763
561.47
857.364
1081.29
679.473
537.671
1813.58
385.661
341.532
555.518
507.276
242.64
208.313
285.948
295.401
139.818
133.306
127.379
122.206
118.363
118.729
135.349
476.58
402.595
328.597
138.18
131.68
125.921
121.109
118.135
121.137
160.619
542.579
444.602
318.093
129.314
123.594
118.66
114.733
112.591
115.069
161.347
1558.85
649.247