/*--------------------------------*- C++ -*----------------------------------*\
  =========                 |
  \\      /  F ield         | OpenFOAM: The Open Source CFD Toolbox
   \\    /   O peration     | Website:  https://openfoam.org
    \\  /    A nd           | Version:  13
     \\/     M anipulation  |
\*---------------------------------------------------------------------------*/
FoamFile
{
    format      ascii;
    class       volScalarField;
    location    "100";
    object      k;
}
// * * * * * * * * * * * * * * * * * * * * * * * * * * * * * * * * * * * * * //

dimensions      [0 2 -2 0 0 0 0];

internalField   nonuniform List<scalar> 
169916
(
0.364693
0.367546
0.371109
0.375329
0.379985
0.384692
0.389037
0.392689
0.395475
0.397356
0.398379
0.398479
0.397671
0.396297
0.368467
0.372623
0.377966
0.384484
0.391737
0.398912
0.405493
0.411041
0.415247
0.418037
0.419542
0.419939
0.419308
0.41834
0.372421
0.378269
0.386081
0.39586
0.406734
0.417546
0.427732
0.436556
0.443162
0.44735
0.449502
0.450162
0.450373
0.450877
0.451827
0.453178
0.45484
0.45672
0.458702
0.460634
0.46235
0.463651
0.370734
0.376307
0.384291
0.395344
0.409216
0.424816
0.43002
0.446299
0.464189
0.478675
0.48769
0.491937
0.504292
0.502854
0.504678
0.50736
0.50981
0.511904
0.512958
0.512731
0.510747
0.506524
0.500246
0.372703
0.379672
0.390218
0.405125
0.423868
0.432689
0.461619
0.498322
0.532358
0.556572
0.566307
0.564457
0.561795
0.563148
0.566149
0.567356
0.565968
0.557822
0.544494
0.527544
0.50856
0.488903
0.469599
0.373548
0.381731
0.394912
0.414424
0.425046
0.460973
0.507564
0.575797
0.614719
0.68037
0.703025
0.705414
0.692743
0.719761
0.802014
0.726222
0.65958
0.605513
0.563199
0.528505
0.500491
0.478063
0.460229
0.446129
0.37277
0.381426
0.395875
0.405894
0.440173
0.502236
0.551752
0.680957
0.803756
0.993969
1.10182
1.35424
1.3152
1.00244
0.882137
0.782526
0.699102
0.640613
0.59767
0.565128
0.540372
0.521531
0.507415
0.49692
0.487524
0.37019
0.378217
0.392687
0.403222
0.445105
0.531202
0.62441
0.859493
1.0692
1.33797
1.3409
1.16074
0.908623
0.792639
0.673153
0.634814
0.603157
0.578523
0.561311
0.549981
0.542955
0.539048
0.537355
0.537154
0.366126
0.372404
0.384352
0.390559
0.421456
0.482801
0.537424
0.666061
0.720748
0.75564
0.749417
0.71057
0.668723
0.636579
0.617718
0.62177
0.611718
0.605634
0.602932
0.602621
0.60387
0.606193
0.609265
0.612865
0.616892
0.621363
0.361385
0.365418
0.373064
0.384932
0.390873
0.412442
0.442404
0.474017
0.499077
0.524497
0.54568
0.558734
0.566697
0.570627
0.557255
0.559766
0.561558
0.56357
0.566194
0.569504
0.573419
0.577857
0.582768
0.588105
0.593845
0.600024
0.356747
0.359008
0.363221
0.369765
0.379068
0.38891
0.393844
0.409086
0.425663
0.442891
0.459422
0.473436
0.477122
0.481691
0.484285
0.485085
0.485174
0.485301
0.485892
0.487194
0.489323
0.492298
0.496095
0.500683
0.506055
0.512251
0.352754
0.353946
0.356445
0.360432
0.366052
0.373054
0.381179
0.390107
0.399169
0.407416
0.414271
0.419579
0.423744
0.426236
0.427314
0.427558
0.427452
0.427324
0.427394
0.427805
0.428648
0.429977
0.431839
0.434279
0.437343
0.441092
0.349794
0.350436
0.35212
0.354952
0.358957
0.364068
0.370121
0.376653
0.38299
0.388378
0.392504
0.395366
0.397121
0.397981
0.398262
0.398238
0.398109
0.398023
0.398099
0.398421
0.399045
0.400004
0.401324
0.403023
0.405122
0.407638
0.348187
0.348572
0.34987
0.352112
0.355268
0.359224
0.363786
0.368611
0.373164
0.37691
0.379597
0.381234
0.382097
0.382446
0.382473
0.382318
0.382104
0.382004
0.382085
0.382408
0.382997
0.383861
0.384996
0.386396
0.388052
0.389926
0.34769
0.348046
0.349231
0.351233
0.353954
0.357238
0.360847
0.364468
0.367748
0.370393
0.372242
0.373277
0.373684
0.373547
0.373111
0.372634
0.372298
0.372241
0.372526
0.373013
0.373699
0.374573
0.375614
0.3768
0.378097
0.348104
0.348613
0.349893
0.351889
0.354449
0.357354
0.360358
0.363206
0.365693
0.367693
0.369106
0.369886
0.37008
0.369755
0.369305
0.368952
0.368819
0.36897
0.369368
0.369904
0.370564
0.371327
0.372168
0.373053
0.37395
0.349259
0.350054
0.351585
0.353748
0.356334
0.359082
0.361734
0.364096
0.366075
0.367648
0.368776
0.369421
0.369517
0.369209
0.368837
0.368573
0.368486
0.368584
0.368842
0.369212
0.369618
0.370041
0.370464
0.370858
0.371191
0.351967
0.353858
0.356313
0.359055
0.361782
0.364255
0.36635
0.368053
0.369399
0.370392
0.371014
0.371181
0.370961
0.370622
0.3703
0.370031
0.3698
0.36957
0.369303
0.368986
0.36863
0.368239
0.367819
0.367389
0.356145
0.358967
0.361955
0.364757
0.367163
0.369121
0.370685
0.371921
0.372858
0.373489
0.37372
0.373498
0.373021
0.372419
0.371742
0.370994
0.370166
0.369252
0.368274
0.367278
0.366301
0.365363
0.364481
0.358028
0.361175
0.364412
0.367331
0.369736
0.371634
0.373128
0.374308
0.375216
0.375848
0.376072
0.375742
0.375021
0.374073
0.372992
0.371814
0.370552
0.369218
0.367848
0.366497
0.365209
0.364002
0.3629
0.362398
0.365792
0.368793
0.371215
0.373094
0.374557
0.375711
0.37661
0.377249
0.377476
0.377091
0.376246
0.375128
0.373855
0.372479
0.371022
0.369503
0.367961
0.366456
0.36503
0.363707
0.362505
0.362392
0.365781
0.368776
0.371193
0.373068
0.374527
0.375677
0.376571
0.377205
0.37742
0.377026
0.376173
0.375047
0.373767
0.372385
0.370923
0.369399
0.367855
0.366348
0.364922
0.363598
0.362397
0.361167
0.364396
0.367301
0.369693
0.371578
0.373059
0.374223
0.375114
0.375724
0.375903
0.375534
0.37478
0.373801
0.372691
0.371488
0.370206
0.368857
0.367476
0.366119
0.364828
0.363621
0.362521
0.361556
0.358963
0.361944
0.364735
0.367127
0.369071
0.370619
0.371835
0.372748
0.373349
0.373516
0.373235
0.372705
0.372052
0.371325
0.370533
0.369668
0.368725
0.367726
0.366716
0.365732
0.36479
0.36391
0.363124
0.356316
0.359055
0.361775
0.364236
0.366314
0.367996
0.369315
0.37028
0.370871
0.370978
0.370705
0.370317
0.369945
0.369624
0.369344
0.369071
0.368769
0.368425
0.36805
0.367646
0.36722
0.366786
0.366369
0.353758
0.356343
0.359086
0.361727
0.36407
0.36602
0.367556
0.368644
0.369252
0.369283
0.368927
0.368515
0.368214
0.368089
0.368152
0.368381
0.368728
0.369122
0.369536
0.369953
0.370344
0.370677
0.370916
0.354462
0.357365
0.360359
0.363187
0.365643
0.367604
0.368976
0.369719
0.369859
0.369495
0.369015
0.368635
0.368475
0.368597
0.36898
0.369502
0.370148
0.370897
0.371726
0.372601
0.373489
0.374375
0.375222
0.35396
0.35724
0.360837
0.364439
0.367697
0.370315
0.372145
0.373174
0.373587
0.373477
0.373066
0.37261
0.372291
0.372243
0.37252
0.372999
0.373678
0.374544
0.375579
0.37676
0.378055
0.379433
0.38092
0.355259
0.359205
0.363742
0.368563
0.373111
0.37686
0.37958
0.381283
0.382229
0.382669
0.382783
0.382717
0.3826
0.382555
0.382679
0.383035
0.38365
0.384534
0.385688
0.387108
0.388788
0.390695
0.392747
0.35893
0.364017
0.370017
0.376676
0.383108
0.388573
0.392806
0.395819
0.397756
0.398804
0.39926
0.399394
0.399409
0.399459
0.399662
0.400107
0.40085
0.40193
0.403378
0.405219
0.407482
0.410194
0.413388
0.399095
0.407377
0.414351
0.419895
0.424373
0.427217
0.428663
0.42927
0.429508
0.429706
0.430095
0.430833
0.432018
0.433714
0.435972
0.438844
0.442386
0.446664
0.451761
0.413639
0.426203
0.437336
0.446218
0.476121
0.480698
0.483514
0.484705
0.485253
0.485836
0.486847
0.488517
0.490961
0.494206
0.498233
0.503016
0.508547
0.514856
0.52204
0.482745
0.501167
0.514881
0.521905
0.523989
0.552615
0.554475
0.555954
0.557829
0.560176
0.562977
0.566253
0.570037
0.574349
0.579062
0.584132
0.589597
0.595563
0.583684
0.614335
0.607469
0.604062
0.598209
0.617784
0.6077
0.601298
0.597957
0.596729
0.596806
0.597719
0.599198
0.601062
0.603233
0.60575
0.608775
0.769429
0.830155
0.73922
0.670544
0.677536
0.639449
0.608919
0.583947
0.565466
0.552674
0.54416
0.538737
0.535512
0.533829
0.533194
0.533328
1.50983
1.19016
1.01561
0.801065
0.710793
0.6489
0.604056
0.570688
0.545167
0.525544
0.510537
0.499303
0.491143
0.483478
0.476731
0.800038
0.723695
0.655742
0.600971
0.558397
0.524218
0.496735
0.474798
0.457371
0.443601
0.432797
0.424123
0.417049
0.365029
0.368042
0.371819
0.376242
0.380964
0.385571
0.389685
0.393049
0.395572
0.397282
0.398267
0.398641
0.398358
0.397669
0.369125
0.373672
0.379577
0.386576
0.393866
0.400925
0.407228
0.412327
0.416029
0.418412
0.419717
0.420299
0.420566
0.420516
0.373651
0.380387
0.389486
0.400226
0.411382
0.422789
0.433062
0.441005
0.446215
0.449068
0.450385
0.451247
0.451897
0.452451
0.452973
0.453483
0.454006
0.454594
0.455365
0.456131
0.456844
0.457466
0.371925
0.378485
0.388314
0.401884
0.418301
0.423859
0.44301
0.463736
0.479939
0.489028
0.491629
0.489888
0.487756
0.490144
0.490337
0.490702
0.490808
0.490971
0.490992
0.490443
0.489263
0.487497
0.485277
0.374524
0.383277
0.396993
0.416824
0.426577
0.462575
0.507874
0.546885
0.564397
0.557427
0.539911
0.522861
0.510929
0.503694
0.512254
0.510776
0.509132
0.507985
0.506004
0.501017
0.494755
0.487577
0.479877
0.376045
0.386976
0.404642
0.415479
0.459576
0.531563
0.59701
0.711355
0.772419
0.76644
0.758476
0.679791
0.630142
0.678236
0.654672
0.720108
0.678168
0.64175
0.61076
0.584204
0.561904
0.54437
0.53121
0.521711
0.375819
0.387316
0.395226
0.427344
0.498693
0.577816
0.854174
1.14691
1.24712
1.07202
0.943115
0.800747
0.755347
0.727076
0.711075
0.702979
0.700202
0.700798
0.703315
0.706526
0.373359
0.384481
0.392596
0.428842
0.48754
0.663688
1.05215
0.864515
0.791765
0.864244
0.864018
0.871772
0.881934
0.892824
0.90317
0.912208
0.919444
0.923945
0.368776
0.378166
0.395317
0.40825
0.470515
0.575309
0.775402
1.11522
0.957883
0.838023
0.882823
0.885035
0.897635
0.912084
0.923331
0.929703
0.932871
0.933842
0.933347
0.932064
0.930615
0.363334
0.369106
0.37964
0.386876
0.412629
0.455925
0.498474
0.547328
0.56743
0.563148
0.568622
0.593686
0.598759
0.617712
0.637491
0.679938
0.698294
0.717872
0.737409
0.755692
0.772069
0.786361
0.798675
0.809289
0.81867
0.827362
0.358083
0.361153
0.366836
0.375327
0.380656
0.395393
0.413193
0.430989
0.449431
0.468092
0.485828
0.502446
0.516301
0.525178
0.525275
0.52783
0.531475
0.537726
0.546703
0.558219
0.571194
0.585127
0.599578
0.614242
0.629031
0.644092
0.353646
0.355179
0.358192
0.362911
0.369245
0.376777
0.385665
0.39654
0.408985
0.420417
0.429484
0.435951
0.439533
0.440566
0.440222
0.439181
0.438184
0.437614
0.437896
0.439164
0.441543
0.445155
0.450103
0.456377
0.46403
0.473118
0.350447
0.351224
0.353098
0.356192
0.360482
0.365978
0.372594
0.380303
0.38812
0.394621
0.399279
0.402182
0.403738
0.404112
0.403611
0.402631
0.401703
0.401095
0.400983
0.401302
0.402135
0.403527
0.405527
0.408192
0.411573
0.415735
0.348772
0.349243
0.350652
0.353038
0.356393
0.360677
0.365737
0.37119
0.376335
0.380496
0.383248
0.384831
0.385545
0.385502
0.384901
0.384142
0.383495
0.383154
0.38326
0.383796
0.384667
0.385886
0.387462
0.389401
0.391708
0.394335
0.348455
0.348927
0.350253
0.352427
0.355368
0.358955
0.362916
0.36692
0.370584
0.37359
0.375611
0.376653
0.37686
0.376361
0.375639
0.374976
0.374571
0.374552
0.374988
0.375773
0.3768
0.378057
0.379522
0.381171
0.382986
0.349225
0.349932
0.351446
0.353712
0.356574
0.359806
0.363153
0.366307
0.36908
0.371331
0.372911
0.373733
0.373731
0.373268
0.372794
0.372541
0.372626
0.37309
0.373838
0.374767
0.375864
0.377104
0.378449
0.379854
0.381282
0.350837
0.351925
0.353817
0.356389
0.359402
0.362556
0.365554
0.368169
0.370347
0.372141
0.373494
0.374287
0.374347
0.374035
0.373765
0.373716
0.373945
0.374429
0.375093
0.375829
0.376621
0.377453
0.378286
0.379071
0.379793
0.354268
0.356695
0.359753
0.363095
0.366341
0.369211
0.371581
0.3735
0.375073
0.376312
0.377143
0.377388
0.377244
0.377034
0.376899
0.376856
0.376864
0.376853
0.376759
0.376577
0.376334
0.376036
0.375684
0.375319
0.359636
0.363273
0.367057
0.370509
0.373378
0.37565
0.377462
0.378936
0.380121
0.380963
0.381258
0.381021
0.380502
0.379851
0.379112
0.378283
0.377344
0.376275
0.375121
0.373956
0.372826
0.371735
0.370726
0.361924
0.366107
0.370346
0.374061
0.377009
0.379251
0.380999
0.382402
0.383522
0.384319
0.384515
0.384001
0.382999
0.381743
0.380349
0.378855
0.377271
0.3756
0.373899
0.372248
0.370683
0.369214
0.367869
0.367712
0.372237
0.376138
0.379164
0.381414
0.383128
0.384477
0.385562
0.386352
0.38652
0.385888
0.384667
0.38314
0.38146
0.379684
0.377827
0.375902
0.373971
0.372107
0.370346
0.36869
0.367176
0.367702
0.372219
0.37611
0.379128
0.381373
0.383083
0.384428
0.385507
0.38629
0.386448
0.385809
0.38458
0.383045
0.381356
0.379572
0.377709
0.375778
0.373843
0.371977
0.370212
0.368556
0.367042
0.366096
0.370319
0.374012
0.376937
0.379161
0.38089
0.382271
0.383361
0.384123
0.384263
0.383703
0.38266
0.381366
0.379936
0.378414
0.376806
0.375118
0.373406
0.371748
0.37018
0.368711
0.36737
0.36621
0.36327
0.367044
0.37048
0.37333
0.375585
0.377378
0.378827
0.379978
0.380772
0.380982
0.38067
0.380081
0.379361
0.378556
0.377669
0.376682
0.375577
0.374399
0.373219
0.372082
0.370992
0.369986
0.369126
0.359761
0.363101
0.36634
0.369199
0.371554
0.373448
0.374988
0.376193
0.376985
0.377156
0.376949
0.376677
0.376474
0.376359
0.376299
0.37623
0.376088
0.375873
0.375608
0.3753
0.374945
0.374584
0.37427
0.356408
0.359422
0.362573
0.365563
0.368157
0.370299
0.372041
0.373341
0.374083
0.374066
0.3737
0.373385
0.373288
0.373465
0.373905
0.374546
0.375262
0.376039
0.376861
0.377691
0.378478
0.379201
0.379846
0.356602
0.359838
0.363181
0.366315
0.369051
0.371251
0.372776
0.373548
0.373466
0.372941
0.372413
0.372106
0.372133
0.372546
0.373271
0.374175
0.375248
0.376464
0.377791
0.379181
0.380602
0.382006
0.383314
0.355388
0.358974
0.362923
0.366919
0.370561
0.373535
0.375531
0.376564
0.37678
0.376288
0.37556
0.374879
0.374439
0.374377
0.374762
0.37551
0.376498
0.377715
0.379141
0.380752
0.382531
0.384484
0.386601
0.356393
0.360657
0.365705
0.371232
0.376437
0.380628
0.383428
0.385079
0.38587
0.385977
0.385476
0.384783
0.384177
0.383855
0.383954
0.384447
0.385276
0.386458
0.388008
0.389939
0.392262
0.394929
0.397974
0.360457
0.365922
0.372629
0.380325
0.38833
0.394885
0.399623
0.402624
0.404345
0.404909
0.404691
0.404058
0.403446
0.403132
0.403166
0.403667
0.404707
0.406346
0.408648
0.411684
0.415524
0.42024
0.425819
0.408681
0.420187
0.429521
0.436589
0.440854
0.442465
0.442731
0.442285
0.441931
0.442074
0.443136
0.445267
0.448581
0.45315
0.459033
0.466296
0.474994
0.485197
0.497027
0.426484
0.442773
0.457179
0.469243
0.478418
0.483259
0.520909
0.52387
0.52809
0.534643
0.543673
0.555068
0.568122
0.58214
0.596713
0.611498
0.626376
0.641458
0.657083
0.501047
0.51545
0.529816
0.545375
0.558925
0.566065
0.66661
0.684823
0.703045
0.720477
0.73637
0.750414
0.762669
0.773361
0.782774
0.791279
0.799328
0.807475
0.966698
1.04271
0.86816
0.7499
0.782701
0.761611
0.902715
0.894478
0.897945
0.904715
0.910505
0.913231
0.913608
0.912493
0.910507
0.908183
0.906021
0.90456
1.11279
0.979437
0.862936
0.822917
0.896157
0.884964
0.882641
0.884285
0.888242
0.892915
0.8974
0.901294
0.904392
0.906149
0.907332
1.17984
1.04207
0.891477
0.832504
0.781786
0.746577
0.726039
0.715081
0.710288
0.709156
0.710331
0.712829
0.715854
0.719025
0.841006
0.703307
0.666824
0.634655
0.605818
0.579438
0.557715
0.540961
0.528602
0.519836
0.513885
0.510087
0.507979
0.363115
0.365579
0.368843
0.372887
0.377419
0.382032
0.386316
0.389958
0.392819
0.39493
0.396404
0.397362
0.397921
0.398353
0.398539
0.366454
0.370224
0.375393
0.381905
0.389022
0.396213
0.402858
0.408428
0.412616
0.415481
0.417308
0.418482
0.419605
0.420509
0.421161
0.370118
0.375752
0.383816
0.393943
0.405087
0.417196
0.428276
0.436966
0.442662
0.445631
0.446892
0.447824
0.448828
0.449996
0.451332
0.452333
0.453072
0.453638
0.454079
0.454432
0.454727
0.454987
0.455229
0.373976
0.38223
0.394318
0.410154
0.416626
0.438148
0.460688
0.47773
0.486886
0.487986
0.48364
0.479225
0.476742
0.476545
0.480582
0.481717
0.482288
0.482423
0.482032
0.481348
0.480476
0.479461
0.478339
0.377654
0.389195
0.406479
0.416308
0.45671
0.510708
0.548449
0.566644
0.561217
0.543666
0.522978
0.505063
0.491689
0.487968
0.488511
0.510023
0.509672
0.507661
0.504227
0.499821
0.494905
0.489757
0.484564
0.380344
0.394888
0.404118
0.444397
0.53123
0.625966
0.73731
0.909841
1.02416
1.15507
1.198
1.07936
0.843551
0.6997
0.712089
0.667384
0.669612
0.636648
0.60869
0.584276
0.563977
0.546938
0.532724
0.520939
0.381059
0.39743
0.410824
0.470613
0.567923
1.00596
1.04892
0.938161
0.819963
0.773609
0.740589
0.715978
0.697758
0.684186
0.673766
0.665397
0.657629
0.378707
0.394376
0.40905
0.476058
0.631996
0.87402
1.18191
1.35591
1.15553
1.06165
1.00409
0.963815
0.931871
0.904841
0.88039
0.856998
0.373187
0.385653
0.396225
0.451274
0.56117
0.976567
1.30481
1.39344
1.3585
1.32215
1.28328
1.24379
1.20628
1.17081
1.13741
1.10625
1.0781
1.05296
0.366437
0.375394
0.390698
0.403825
0.455312
0.540394
0.575079
0.646898
0.694574
0.848521
0.808343
0.774213
0.775956
0.873941
0.980504
0.987332
1.03288
1.07688
1.10573
1.11759
1.11702
1.10797
1.09435
1.07906
1.06494
1.05269
0.360299
0.364623
0.372615
0.384134
0.393012
0.413467
0.430656
0.448354
0.476253
0.505859
0.528583
0.564359
0.611854
0.657539
0.695247
0.709018
0.730069
0.755718
0.782997
0.809518
0.833315
0.852497
0.867447
0.878845
0.887947
0.896264
0.355228
0.357315
0.36116
0.366964
0.374102
0.382148
0.391577
0.398575
0.420293
0.445597
0.463531
0.472854
0.469912
0.464709
0.46099
0.458175
0.456935
0.459931
0.466626
0.476038
0.488111
0.50271
0.519194
0.537073
0.556266
0.576779
0.351723
0.352755
0.354973
0.358528
0.363259
0.369295
0.376552
0.381225
0.393922
0.407447
0.417066
0.421947
0.421537
0.419327
0.41673
0.414786
0.413174
0.41173
0.411824
0.413543
0.41673
0.421041
0.426496
0.433149
0.441075
0.350023
0.350699
0.352364
0.355071
0.358845
0.363689
0.36975
0.376881
0.384042
0.390173
0.394077
0.395839
0.396234
0.395431
0.394166
0.393016
0.392332
0.3921
0.392579
0.394
0.396053
0.39872
0.40201
0.405916
0.410366
0.350139
0.350896
0.352567
0.355157
0.358612
0.362757
0.367554
0.37249
0.376991
0.380909
0.383671
0.384994
0.385058
0.384481
0.383774
0.383294
0.383278
0.38383
0.384992
0.386639
0.388679
0.391087
0.393816
0.396768
0.399951
0.351663
0.352805
0.354857
0.357755
0.361323
0.365277
0.369347
0.373
0.376142
0.378982
0.381092
0.382153
0.382123
0.381804
0.381721
0.382128
0.38312
0.384595
0.386406
0.388466
0.390751
0.393225
0.395828
0.398491
0.401176
0.353929
0.355703
0.358442
0.36199
0.366007
0.370045
0.373716
0.376717
0.379204
0.381394
0.383191
0.384256
0.384304
0.384204
0.384447
0.385124
0.38622
0.387591
0.389148
0.390849
0.392719
0.394719
0.396733
0.398631
0.400379
0.359039
0.362699
0.367172
0.371907
0.376254
0.379851
0.382618
0.384833
0.386734
0.388356
0.389453
0.389664
0.389571
0.389592
0.389821
0.390229
0.390723
0.391173
0.391478
0.391698
0.391871
0.391969
0.391937
0.391885
0.366899
0.372541
0.378258
0.383214
0.387033
0.389758
0.391737
0.39331
0.394621
0.395395
0.395332
0.39467
0.393798
0.392866
0.39188
0.390817
0.389611
0.388209
0.386741
0.385328
0.383961
0.382601
0.381356
0.370266
0.377012
0.383715
0.389258
0.393237
0.395784
0.397475
0.398716
0.399604
0.39998
0.399497
0.398059
0.396146
0.394078
0.391947
0.389769
0.387506
0.385144
0.382819
0.380627
0.378545
0.376538
0.374693
0.379533
0.386897
0.392882
0.397038
0.399552
0.401116
0.402119
0.402926
0.403246
0.402632
0.400894
0.398553
0.396011
0.393449
0.390882
0.388268
0.385597
0.383039
0.380628
0.378311
0.376054
0.373935
0.379514
0.386859
0.392822
0.396965
0.399476
0.401039
0.40204
0.402835
0.40314
0.402514
0.400765
0.398414
0.395855
0.393276
0.390693
0.388062
0.38538
0.382813
0.380393
0.378071
0.37581
0.373685
0.376993
0.383656
0.389145
0.393072
0.395582
0.397242
0.398431
0.399253
0.399553
0.399008
0.397521
0.395557
0.393439
0.391261
0.389041
0.386744
0.384358
0.382017
0.379814
0.377726
0.375721
0.373882
0.372279
0.372541
0.378235
0.383155
0.386935
0.389632
0.391583
0.39312
0.394368
0.395011
0.394833
0.394068
0.393095
0.392057
0.390967
0.389812
0.38853
0.387074
0.385565
0.384125
0.382743
0.381381
0.380145
0.379128
0.367194
0.371928
0.376268
0.379852
0.382607
0.384797
0.386695
0.388292
0.389301
0.389416
0.389233
0.389153
0.389259
0.389533
0.3899
0.390238
0.390446
0.390592
0.390709
0.390771
0.390726
0.390678
0.390675
0.362028
0.366046
0.370083
0.373748
0.376725
0.379162
0.381279
0.382997
0.383996
0.383964
0.383818
0.384015
0.384628
0.385647
0.386983
0.388511
0.390187
0.392043
0.394045
0.396073
0.397996
0.399768
0.401274
0.361381
0.365349
0.369424
0.373062
0.376155
0.378913
0.380933
0.381917
0.381803
0.381411
0.381252
0.381576
0.38245
0.383878
0.385647
0.387662
0.389903
0.392342
0.394926
0.397588
0.400288
0.40288
0.405089
0.358659
0.362807
0.367603
0.37257
0.377072
0.380931
0.383625
0.38491
0.384949
0.384305
0.383485
0.382862
0.382676
0.383061
0.384056
0.385612
0.387554
0.389851
0.392482
0.395354
0.39848
0.401863
0.405396
0.358858
0.363676
0.369815
0.37703
0.38431
0.390468
0.394408
0.396204
0.396639
0.39581
0.394445
0.393142
0.392286
0.391962
0.392402
0.393809
0.395839
0.398504
0.40184
0.405859
0.410509
0.415599
0.421515
0.36326
0.369262
0.3773
0.387549
0.390336
0.397566
0.403585
0.421189
0.421281
0.419402
0.417143
0.415621
0.414284
0.4136
0.414613
0.417251
0.421169
0.426326
0.432737
0.440496
0.4497
0.460203
0.471704
0.410112
0.427094
0.439099
0.474844
0.474014
0.470223
0.467073
0.46437
0.465967
0.471567
0.479976
0.491136
0.504969
0.520246
0.536928
0.555049
0.574428
0.595195
0.617655
0.448985
0.477837
0.500128
0.52372
0.543513
0.553592
0.664183
0.676687
0.696955
0.72226
0.749724
0.776639
0.801439
0.822921
0.840521
0.85398
0.864693
0.874204
0.884057
0.520574
0.558257
0.567863
0.651373
0.716753
0.761192
1.03748
1.05727
1.07883
1.09122
1.09251
1.08532
1.0732
1.05876
1.04376
1.02985
1.01803
1.00886
1.16885
1.17793
1.09079
1.09922
1.33792
1.31538
1.44778
1.38
1.32076
1.26657
1.21915
1.17745
1.14025
1.10743
1.07829
1.05251
1.03014
1.35556
1.93182
1.54701
1.30051
1.17806
1.09906
1.04074
0.994299
0.955821
0.922629
0.89289
0.865402
0.839376
0.895029
0.978502
0.875289
0.825337
0.78949
0.76175
0.740562
0.724311
0.711419
0.699698
0.688507
0.677905
0.668104
0.862853
0.777696
0.656361
0.626533
0.601239
0.5789
0.56027
0.544624
0.531604
0.520848
0.512059
0.505023
0.499631
0.36355
0.366213
0.36972
0.373894
0.378398
0.382779
0.386653
0.389764
0.392097
0.393793
0.395025
0.395961
0.396816
0.397675
0.398375
0.367255
0.371496
0.377189
0.383855
0.391081
0.398098
0.404236
0.40895
0.412102
0.413997
0.415115
0.416058
0.417318
0.418669
0.419894
0.37153
0.378142
0.386944
0.397454
0.410224
0.422635
0.432697
0.439966
0.442955
0.442662
0.441612
0.44224
0.443622
0.445397
0.4472
0.448835
0.45002
0.450893
0.451558
0.452079
0.452499
0.452859
0.453192
0.376317
0.386199
0.399441
0.405775
0.428202
0.454109
0.474101
0.503443
0.496749
0.48656
0.475343
0.470524
0.465062
0.464546
0.465995
0.474249
0.477223
0.478943
0.479839
0.480175
0.480099
0.479825
0.479486
0.381188
0.395103
0.402852
0.43559
0.493375
0.542011
0.572473
0.578344
0.566271
0.545611
0.523241
0.505355
0.491195
0.488489
0.489632
0.493857
0.528703
0.528305
0.525488
0.521342
0.516703
0.512015
0.507494
0.385155
0.403638
0.41856
0.481898
0.591581
0.741124
1.01954
1.09855
1.08981
1.07215
1.05025
1.06154
1.05707
0.844884
0.769602
0.709085
0.693804
0.654673
0.623869
0.598203
0.57687
0.559239
0.544697
0.532746
0.385349
0.394062
0.434
0.50079
0.705151
0.927142
0.83946
0.788837
0.727248
0.692824
0.663445
0.638842
0.618645
0.602041
0.588432
0.577289
0.382868
0.391874
0.434421
0.520942
0.531423
1.14907
1.23456
1.04302
0.938334
0.870237
0.82095
0.783432
0.753833
0.72988
0.710245
0.376967
0.384123
0.417144
0.520748
0.670734
0.645634
1.19642
1.39532
1.26195
1.12659
1.0682
1.03278
0.990929
0.947582
0.90515
0.866297
0.830916
0.370352
0.381187
0.390703
0.432029
0.505791
0.603824
0.675778
0.712077
0.757245
0.763323
0.934327
1.2682
1.29342
1.28308
1.10111
1.08006
1.20671
1.23856
1.22687
1.18606
1.13923
1.0946
1.05479
1.02057
0.991894
0.967651
0.362832
0.368794
0.378603
0.387164
0.411256
0.433009
0.446679
0.472246
0.53482
0.606739
0.808832
1.02635
1.09478
1.09534
1.05965
0.959594
0.984897
1.01016
1.02962
1.04078
1.04207
1.03781
1.02788
1.01273
0.996816
0.98311
0.357253
0.360008
0.364857
0.371477
0.378961
0.38672
0.392982
0.414997
0.463426
0.525855
0.561007
0.579053
0.636962
0.621826
0.609935
0.606258
0.608382
0.614567
0.624211
0.636728
0.651242
0.66735
0.684782
0.704037
0.723269
0.742638
0.353588
0.354993
0.357683
0.361699
0.36677
0.372667
0.377241
0.392599
0.41763
0.443066
0.452847
0.450535
0.456077
0.45095
0.447209
0.446713
0.4495
0.455457
0.464354
0.475988
0.486116
0.494609
0.502312
0.510016
0.518285
0.352169
0.353208
0.355318
0.358513
0.362772
0.367832
0.371182
0.381544
0.394608
0.406612
0.415409
0.417739
0.417134
0.417124
0.417213
0.417168
0.418316
0.420703
0.424287
0.428959
0.434648
0.44124
0.448534
0.455492
0.461425
0.353076
0.354336
0.356631
0.359958
0.364211
0.368863
0.371
0.378007
0.385375
0.39225
0.398819
0.402106
0.406045
0.405865
0.405724
0.405704
0.406584
0.408554
0.411655
0.41561
0.420589
0.426307
0.432245
0.43779
0.443221
0.355512
0.35745
0.360499
0.364573
0.3693
0.374537
0.380111
0.384939
0.388326
0.3892
0.392564
0.395238
0.400476
0.401931
0.403214
0.40551
0.408828
0.412965
0.417858
0.422792
0.427887
0.433182
0.438713
0.444441
0.450245
0.358758
0.361732
0.366037
0.371413
0.377111
0.382761
0.387665
0.391168
0.393951
0.396837
0.399748
0.401541
0.401797
0.403076
0.40521
0.407988
0.411124
0.414788
0.419148
0.424316
0.430328
0.436682
0.442762
0.448051
0.452551
0.366486
0.372513
0.379632
0.386784
0.393197
0.397999
0.401078
0.403365
0.405525
0.407647
0.409103
0.409157
0.409221
0.410053
0.411762
0.414124
0.416822
0.419524
0.421897
0.424049
0.426091
0.427856
0.429144
0.379147
0.388723
0.39804
0.405585
0.410555
0.412864
0.413986
0.414617
0.4154
0.415661
0.414768
0.413236
0.411888
0.410768
0.409706
0.408598
0.407302
0.40576
0.404325
0.403127
0.401954
0.400696
0.384575
0.396579
0.408029
0.416383
0.420887
0.421779
0.421798
0.421428
0.421214
0.420763
0.419193
0.416074
0.412638
0.409366
0.406226
0.403146
0.399998
0.396792
0.39385
0.391169
0.388484
0.385803
0.401089
0.414056
0.42315
0.427641
0.428052
0.427563
0.427501
0.428103
0.428366
0.426861
0.423461
0.419582
0.416015
0.412744
0.409647
0.406497
0.403286
0.4004
0.397855
0.395229
0.39244
0.389776
0.40105
0.413971
0.423024
0.427497
0.427909
0.427397
0.427273
0.427787
0.428006
0.426459
0.423025
0.419104
0.415493
0.412184
0.409059
0.405883
0.40265
0.399748
0.397191
0.394556
0.391755
0.389087
0.396544
0.407879
0.416088
0.420466
0.421283
0.421259
0.420841
0.420556
0.420022
0.41839
0.415221
0.411716
0.408379
0.405183
0.402045
0.398841
0.39559
0.392609
0.389892
0.387175
0.384467
0.382007
0.388728
0.397976
0.405417
0.410261
0.41251
0.413611
0.414185
0.414852
0.414939
0.41389
0.412215
0.410704
0.40941
0.408183
0.406943
0.405544
0.403907
0.402379
0.401086
0.399829
0.398502
0.397397
0.39701
0.379674
0.386824
0.393222
0.397998
0.401077
0.403427
0.405542
0.4078
0.409117
0.409003
0.408897
0.409494
0.410888
0.412884
0.415186
0.417472
0.41944
0.421245
0.423029
0.424628
0.425865
0.426995
0.427989
0.371464
0.377151
0.382802
0.387711
0.391193
0.393924
0.396685
0.39945
0.401172
0.401402
0.402706
0.404812
0.407535
0.410589
0.414197
0.418537
0.423713
0.429807
0.436281
0.442518
0.448005
0.452709
0.456363
0.369389
0.374653
0.380266
0.385114
0.388447
0.388827
0.391319
0.39376
0.400254
0.401636
0.402906
0.405138
0.408189
0.412168
0.416901
0.42173
0.426835
0.432244
0.437979
0.444026
0.450193
0.45576
0.459229
0.364297
0.368979
0.371165
0.376976
0.382537
0.387765
0.393006
0.3964
0.405939
0.405576
0.405188
0.404881
0.405324
0.406879
0.409555
0.413196
0.41799
0.423327
0.429436
0.435224
0.440978
0.446539
0.451802
0.362815
0.367888
0.370628
0.378864
0.388377
0.397129
0.404211
0.407237
0.417464
0.417134
0.416979
0.416285
0.416852
0.418815
0.422198
0.427011
0.432935
0.439906
0.447868
0.456245
0.463741
0.470341
0.479329
0.366782
0.372753
0.376032
0.387488
0.405142
0.422075
0.43207
0.433008
0.456051
0.451277
0.448181
0.448278
0.45207
0.459535
0.470478
0.484458
0.495956
0.505678
0.514518
0.523276
0.532538
0.543571
0.557399
0.439628
0.464565
0.48756
0.487549
0.644312
0.627897
0.6154
0.60945
0.609515
0.614161
0.622797
0.634588
0.64852
0.664065
0.680909
0.699666
0.71702
0.736148
0.756905
0.497855
0.555373
0.717757
0.881369
0.892445
0.838591
0.779782
0.827451
0.872409
0.915304
0.948647
0.967327
0.978307
0.980039
0.97371
0.963319
0.95229
0.942771
0.935705
0.65136
1.00526
1.07435
1.18082
1.11686
1.03784
0.966874
1.17578
1.1893
1.17702
1.14413
1.10378
1.06298
1.0257
0.993761
0.967484
0.941438
0.906533
0.924992
0.938168
1.00339
1.22996
1.13207
1.46384
1.29368
1.30357
1.21086
1.09406
1.03844
1.01297
0.983895
0.948953
0.91193
0.875675
0.841522
0.809574
0.817824
1.43884
1.70147
1.18662
1.04346
0.952216
0.887003
0.837933
0.799584
0.768726
0.74343
0.722546
0.705334
0.697217
0.83257
0.860139
0.749074
0.71383
0.683605
0.658225
0.637392
0.620367
0.606398
0.594952
0.58568
0.578418
0.92151
0.801176
0.66769
0.633313
0.606121
0.583217
0.564034
0.548124
0.534994
0.524233
0.515536
0.508702
0.503625
0.363972
0.366768
0.370449
0.374758
0.379256
0.383448
0.386925
0.38954
0.391427
0.392801
0.393846
0.394752
0.395792
0.396963
0.398063
0.367981
0.372554
0.378724
0.385794
0.393134
0.399879
0.405316
0.40898
0.411138
0.412307
0.41295
0.413734
0.415044
0.416728
0.418428
0.37277
0.380104
0.390025
0.401674
0.414879
0.426477
0.435885
0.440365
0.440829
0.439121
0.436945
0.437083
0.43873
0.44107
0.443429
0.445774
0.447563
0.448987
0.450172
0.451208
0.45216
0.453077
0.453999
0.378393
0.389563
0.405431
0.413099
0.438997
0.464125
0.501788
0.496507
0.487631
0.477232
0.466362
0.456471
0.453652
0.453909
0.456354
0.465493
0.469332
0.473496
0.477328
0.479976
0.481995
0.483703
0.485284
0.384406
0.400085
0.41036
0.455965
0.519443
0.559134
0.575894
0.575269
0.558812
0.538036
0.517576
0.498778
0.487223
0.48272
0.484938
0.487901
0.52371
0.525706
0.525721
0.524411
0.522618
0.520847
0.519338
0.388859
0.397529
0.436109
0.533117
0.686071
0.838398
1.03731
1.0233
0.99811
0.973375
0.941881
0.904269
0.97515
0.895635
0.69174
0.683694
0.646631
0.638325
0.618498
0.601638
0.587255
0.575197
0.565192
0.556959
0.390983
0.402905
0.455958
0.581511
0.852141
0.7619
0.69542
0.665414
0.642534
0.623105
0.606648