/*--------------------------------*- C++ -*----------------------------------*\
  =========                 |
  \\      /  F ield         | OpenFOAM: The Open Source CFD Toolbox
   \\    /   O peration     | Website:  https://openfoam.org
    \\  /    A nd           | Version:  13
     \\/     M anipulation  |
\*---------------------------------------------------------------------------*/
FoamFile
{
    format      ascii;
    class       volScalarField;
    location    "100";
    object      nut;
}
// * * * * * * * * * * * * * * * * * * * * * * * * * * * * * * * * * * * * * //

dimensions      [0 2 -1 0 0 0 0];

internalField   nonuniform List<scalar> 
169916
(
0.0121331
0.0108714
0.00990448
0.00925452
0.00896027
0.00905681
0.00959147
0.0105969
0.0120568
0.0139746
0.0164505
0.0181834
0.0181759
0.0181671
0.010182
0.00890477
0.00791605
0.00723955
0.00699329
0.00729693
0.00786288
0.00877217
0.0100782
0.0118321
0.0140616
0.0164899
0.016486
0.0164786
0.0085281
0.00724929
0.00625282
0.00559369
0.0054523
0.00511552
0.00568108
0.00653543
0.00776937
0.00938937
0.0113009
0.0134843
0.0136162
0.013369
0.0128588
0.0125248
0.0122451
0.0119704
0.0116857
0.0113949
0.0110905
0.0106825
0.00875731
0.0071589
0.00588798
0.00493502
0.00445374
0.0040091
0.00499636
0.00407621
0.0043132
0.00521164
0.0067162
0.00850814
0.00795651
0.00794843
0.00742849
0.00701728
0.00707529
0.00680541
0.00642316
0.00605723
0.00571963
0.0054139
0.00514116
0.00773688
0.0060823
0.00478542
0.00401018
0.00355967
0.00365343
0.00258828
0.00260068
0.00304924
0.00396327
0.00552627
0.0053349
0.00523877
0.00514407
0.00344196
0.00331748
0.00320443
0.00309832
0.00300394
0.0029237
0.00285854
0.00280854
0.00277322
0.00713271
0.00534024
0.0039505
0.00307486
0.0030125
0.00228705
0.00221723
0.00191954
0.00190217
0.00228923
0.00264802
0.00219939
0.00217613
0.00220595
0.00209523
0.00210182
0.00211648
0.00214573
0.00219076
0.00224647
0.00231245
0.00238788
0.00247192
0.00256371
0.00704718
0.00507366
0.00364076
0.00293756
0.00195658
0.00166089
0.00201662
0.00135867
0.00173803
0.00146804
0.00150138
0.00136629
0.00198349
0.00195617
0.00204574
0.00226278
0.00234727
0.00244569
0.00255531
0.00267355
0.0027998
0.00293334
0.00307379
0.00322
0.00336553
0.0075967
0.00533638
0.00362776
0.00288414
0.00164356
0.00112919
0.000871747
0.000766469
0.000374117
0.000368088
0.0010268
0.00159174
0.00211826
0.00239207
0.00264289
0.00283168
0.00301641
0.00320232
0.00339197
0.00358652
0.00378516
0.00398638
0.00418823
0.00438846
0.00895593
0.00630089
0.00423827
0.00448708
0.0020068
0.0014273
0.002051
0.000791602
0.00154174
0.00194332
0.00220793
0.00161269
0.00305927
0.00360263
0.00403403
0.00385467
0.00408568
0.00431743
0.00454932
0.0047801
0.00500776
0.00523062
0.00544725
0.00565644
0.00585732
0.00604936
0.0113186
0.00820469
0.00568552
0.00430039
0.00428242
0.00294099
0.00287041
0.00278067
0.00255066
0.00205834
0.00204358
0.00239113
0.00271205
0.00311599
0.00413933
0.00481869
0.00521367
0.00550501
0.0057095
0.00586387
0.00601212
0.00615282
0.00628186
0.00640328
0.00651696
0.00661647
0.0147209
0.0109624
0.00813576
0.00632724
0.00505827
0.00518962
0.00584546
0.00376928
0.00319056
0.00287727
0.00284255
0.00301214
0.0041383
0.00498232
0.00586929
0.00680085
0.0074433
0.00778647
0.0079226
0.00792452
0.00785442
0.00776054
0.00766859
0.00758504
0.00750494
0.00741801
0.0187868
0.0139823
0.010559
0.00837764
0.0069857
0.00616341
0.00538988
0.00495674
0.00479366
0.00506025
0.00551536
0.00613541
0.00664263
0.00787029
0.00944179
0.0108041
0.0116478
0.0119723
0.0118955
0.0115628
0.0111175
0.0106516
0.0102008
0.00977458
0.00937751
0.00901045
0.0192317
0.0165279
0.0124195
0.00983022
0.00818404
0.00708158
0.00632156
0.00595262
0.00596749
0.00648695
0.00746224
0.00878185
0.0103996
0.0123161
0.0140485
0.0151854
0.0156875
0.0156665
0.0152374
0.0145573
0.0137831
0.0130188
0.0123063
0.0116599
0.0110878
0.0105919
0.0191929
0.0181644
0.0136296
0.0108448
0.00911049
0.00799735
0.00731888
0.00703277
0.00722481
0.00798138
0.00946278
0.0116285
0.0139788
0.016082
0.0176521
0.0184928
0.0185332
0.0183633
0.017472
0.0164041
0.0153553
0.0144177
0.0136149
0.0129465
0.0123992
0.0119652
0.0191815
0.0185372
0.0141061
0.0114084
0.00975962
0.00877434
0.00828831
0.00825152
0.00870146
0.0096951
0.0114874
0.0142637
0.0175814
0.0188686
0.0188952
0.0189207
0.0189485
0.0189807
0.0189325
0.0175774
0.0164359
0.0155196
0.0148102
0.0142827
0.0139143
0.0191927
0.017698
0.013848
0.0114991
0.0101182
0.0093972
0.00918887
0.00944318
0.0101265
0.0112412
0.0130729
0.0159724
0.0190876
0.019111
0.0191315
0.0191537
0.01918
0.0192114
0.018854
0.0178258
0.0170275
0.0164436
0.0160633
0.0158882
0.0159219
0.0192217
0.0161571
0.0130446
0.0111768
0.0101702
0.00979455
0.00993114
0.0105124
0.0114533
0.0127041
0.0144968
0.0171977
0.0192185
0.0192381
0.0192558
0.0192752
0.0192977
0.0193234
0.0193515
0.0193804
0.0191774
0.019029
0.0190696
0.0193452
0.0194894
0.0144797
0.011995
0.0105819
0.00996442
0.00996019
0.0104534
0.0113296
0.0124476
0.0137343
0.015363
0.0176127
0.0192566
0.0192742
0.0192882
0.0193015
0.0193151
0.0193285
0.0193409
0.0193516
0.0193604
0.0193674
0.0193727
0.0193766
0.0193799
0.0110045
0.009908
0.00960382
0.00993357
0.0107455
0.0118614
0.0130892
0.0143711
0.0158263
0.0176921
0.0192207
0.019233
0.0192386
0.0192404
0.0192394
0.0192359
0.0192299
0.0192213
0.0192109
0.0191997
0.0191889
0.0191794
0.0191721
0.0102867
0.00937661
0.00924352
0.00979969
0.0108472
0.012147
0.0134606
0.0147289
0.016063
0.0177187
0.0191501
0.019155
0.0191506
0.0191404
0.0191263
0.0191093
0.0190897
0.0190681
0.0190454
0.019023
0.0190023
0.0189842
0.0189695
0.00909274
0.0090373
0.00970149
0.0108722
0.0122764
0.013651
0.014915
0.0161728
0.0177004
0.0190931
0.0190924
0.0190811
0.0190632
0.0190412
0.019016
0.0189885
0.0189593
0.0189294
0.0189003
0.0188733
0.0188493
0.0188292
0.00909641
0.00904389
0.00971094
0.0108835
0.0122881
0.0136642
0.0149324
0.0161978
0.0177357
0.019095
0.0190942
0.0190828
0.0190648
0.0190427
0.0190175
0.0189899
0.0189607
0.0189308
0.0189016
0.0188745
0.0188504
0.0188303
0.00938436
0.00925865
0.00982327
0.0108786
0.0121855
0.0135107
0.0148002
0.0161671
0.0178695
0.0191534
0.0191574
0.0191522
0.0191413
0.0191267
0.0191091
0.0190891
0.0190671
0.0190442
0.0190216
0.0190009
0.0189826
0.018968
0.018958
0.00991512
0.00961847
0.00995716
0.0107789
0.0119061
0.0131519
0.0144637
0.0159633
0.0179023
0.0192236
0.0192346
0.0192389
0.0192395
0.0192374
0.0192329
0.0192259
0.0192166
0.0192057
0.0191942
0.0191832
0.0191736
0.0191662
0.0191622
0.0105843
0.00997386
0.00997792
0.010483
0.0113772
0.0125233
0.0138482
0.0155142
0.0178292
0.0192598
0.0192761
0.0192887
0.0193008
0.0193129
0.019325
0.0193363
0.019346
0.0193539
0.0193604
0.0193653
0.019369
0.0193722
0.0193757
0.0111738
0.0101745
0.009807
0.00995653
0.0105603
0.0115361
0.0128335
0.0146818
0.0174562
0.0192235
0.019242
0.0192587
0.0192771
0.0192987
0.0193236
0.0193509
0.0193794
0.0192072
0.0190371
0.0190574
0.0193137
0.0194881
0.0194982
0.0101161
0.00940226
0.00920528
0.00947808
0.0101905
0.0113458
0.0132234
0.0161748
0.0190936
0.0191162
0.0191361
0.0191578
0.0191837
0.0192146
0.0189299
0.0178845
0.0170763
0.0164866
0.016104
0.0159223
0.0159457
0.0161999
0.0167375
0.00975649
0.00877906
0.00830279
0.00827457
0.00873454
0.00974258
0.0115352
0.0142793
0.017515
0.0188751
0.0189023
0.0189284
0.0189566
0.0189892
0.0188157
0.0174904
0.0163688
0.0154678
0.0147697
0.014251
0.0138839
0.0136931
0.0137108
0.00911065
0.00800814
0.0073404
0.00703998
0.00723718
0.00798363
0.0094047
0.0114418
0.0136149
0.0155375
0.0169835
0.0178607
0.0181124
0.0177665
0.0169976
0.0160472
0.0150923
0.0142225
0.0134665
0.0128267
0.012296
0.0118681
0.0115551
0.00818551
0.0070993
0.00636817
0.00586287
0.00589898
0.00641956
0.00733277
0.00851804
0.00994164
0.01162
0.0131589
0.0142077
0.0147147
0.0147549
0.0144211
0.0138513
0.0131866
0.0125153
0.011875
0.01128
0.0107408
0.0102644
0.00983584
0.00478055
0.00503326
0.00544228
0.00597862
0.00639621
0.00746772
0.0088106
0.00996007
0.0106936
0.011005
0.010971
0.0107031
0.0103238
0.00991512
0.00951185
0.00912578
0.00876354
0.00842772
0.00811657
0.00388201
0.00372328
0.00379351
0.00399103
0.00413894
0.00495292
0.00574353
0.00655924
0.00711807
0.00742359
0.00755348
0.00756729
0.0075167
0.00744231
0.00736728
0.00729895
0.00723459
0.00716635
0.00708235
0.002462
0.00235922
0.00253326
0.00312388
0.00368236
0.00428545
0.00497641
0.00537579
0.00565153
0.00590067
0.00612437
0.00629926
0.00642202
0.00650046
0.00660673
0.00671519
0.00680811
0.00687331
0.00209843
0.00230336
0.00309544
0.00347897
0.00398247
0.00390279
0.00415634
0.00440655
0.00465279
0.00489415
0.005129
0.00535587
0.00557363
0.00578144
0.00597871
0.00616525
0.00634122
0.00129406
0.0021313
0.00251165
0.00289153
0.00261486
0.00281672
0.00301708
0.00321554
0.00341582
0.00361927
0.00382535
0.00403246
0.00423872
0.00444223
0.00464114
0.00483412
0.00138558
0.00205487
0.00220605
0.00227915
0.00235674
0.00245263
0.0025622
0.00268274
0.00281165
0.00294787
0.00309065
0.00323945
0.00339346
0.00354519
0.00369591
0.00207017
0.00207905
0.00209378
0.00212335
0.00216916
0.00222712
0.00229563
0.00237375
0.00246049
0.00255495
0.00265633
0.00276288
0.00287357
0.0119436
0.0106849
0.00974135
0.00916209
0.00901428
0.0092925
0.0100077
0.0111377
0.0125797
0.0142122
0.015986
0.0179255
0.018065
0.0180704
0.00989132
0.00860658
0.00763575
0.00712692
0.0072388
0.00763055
0.00830662
0.00931764
0.0106223
0.0120665
0.0134632
0.0146606
0.0156949
0.0160625
0.00811817
0.00681776
0.00587419
0.00561648
0.00514935
0.005435
0.00612666
0.00717492
0.00847727
0.00972695
0.0106617
0.0110356
0.0107529
0.0107611
0.0108851
0.0111134
0.0113595
0.0115602
0.0117255
0.0118403
0.0118906
0.0118694
0.00824129
0.00660713
0.0052962
0.00457953
0.00408367
0.00513731
0.00371194
0.00393396
0.00470879
0.00606868
0.00781875
0.00785203
0.00790468
0.00636672
0.00647063
0.00661766
0.00669779
0.00671984
0.00665359
0.00653611
0.00638744
0.00622354
0.00605599
0.00708126
0.00536302
0.00413579
0.00337562
0.00356119
0.00242043
0.0025506
0.00292309
0.00361533
0.00331565
0.0032387
0.00327361
0.00337562
0.00353194
0.00295154
0.00305362
0.0031138
0.00313692
0.00314299
0.00313496
0.00312494
0.00311738
0.00311493
0.00633908
0.00445299
0.00320845
0.00303391
0.00195003
0.00170517
0.00169549
0.00156284
0.00147636
0.00150797
0.00152604
0.00158717
0.00173
0.00188017
0.00199334
0.00209346
0.00214516
0.00220348
0.00227037
0.00234517
0.00242854
0.00252288
0.00262841
0.00274415
0.00605687
0.00431596
0.00355712
0.00201247
0.00144046
0.00144265
0.000357149
0.00094953
0.0018684
0.00210438
0.00218969
0.00223051
0.00238455
0.00255654
0.00274647
0.00295075
0.00316611
0.00338861
0.0036141
0.00383779
0.00635808
0.00441666
0.00362457
0.00185415
0.00145182
0.000778695
0.00153258
0.00170973
0.00191742
0.00251704
0.00281985
0.00313644
0.0034594
0.00378705
0.00411135
0.00442583
0.00471132
0.00488418
0.00757352
0.0048996
0.00338357
0.00282787
0.00157026
0.00113363
0.000447737
0.000927193
0.00166878
0.00202689
0.00275405
0.00313482
0.00353206
0.00392505
0.0042599
0.00449054
0.00473218
0.00497619
0.00521307
0.00543223
0.00562381
0.00978468
0.00674995
0.00476671
0.00388574
0.00259536
0.00232909
0.00300286
0.0023752
0.00185285
0.00180244
0.00180328
0.00141251
0.00173117
0.00233445
0.00293957
0.00355384
0.00351853
0.00365066
0.00384976
0.00407902
0.00431287
0.00454069
0.00475929
0.0049658
0.00515643
0.0053246
0.0131448
0.00955478
0.0069296
0.00555641
0.00538825
0.00469493
0.00426642
0.00396843
0.00328113
0.00304623
0.00297519
0.0029194
0.0032267
0.00392265
0.00579282
0.00650351
0.00630316
0.00580641
0.00546793
0.00523747
0.00525313
0.00528678
0.00533461
0.0053897
0.00544349
0.00548673
0.0174682
0.0129073
0.0097389
0.00786406
0.00666251
0.00607007
0.00543606
0.00454105
0.00417286
0.00443149
0.0050872
0.00615671
0.00730188
0.00900423
0.0106679
0.0117897
0.011702
0.0113173
0.0104704
0.00973379
0.00906579
0.00843447
0.00785601
0.00741249
0.0070293
0.00669909
0.0192486
0.0159443
0.01201
0.00958139
0.00809324
0.00700462
0.00621418
0.00546314
0.00547071
0.00616955
0.00745749
0.00968113
0.0117045
0.0144016
0.0166626
0.0165931
0.0165083
0.016398
0.0161696
0.0148708
0.0136442
0.0125292
0.0115228
0.010623
0.00983614
0.00915221
0.0192086
0.0178491
0.0134201
0.0106939
0.00898416
0.00780922
0.00706996
0.00680386
0.00713882
0.00812281
0.0100774
0.0127774
0.0159104
0.0181331
0.0181198
0.0180961
0.0180604
0.0180089
0.0179366
0.017218
0.0157871
0.0145618
0.01352
0.0126307
0.0118629
0.0112179
0.0192017
0.0181217
0.0138526
0.0112269
0.00959122
0.00856236
0.00810206
0.00808992
0.00854718
0.0095361
0.0116189
0.0150967
0.0187357
0.0187425
0.018741
0.0187343
0.0187225
0.0187037
0.0186739
0.0178318
0.0164855
0.0154222
0.0145862
0.0139271
0.0133498
0.0192216
0.01699
0.0134024
0.011195
0.00988921
0.00920365
0.00901539
0.00933472
0.0100228
0.011178
0.0132219
0.0167745
0.0190289
0.0190347
0.0190357
0.0190343
0.01903
0.01902
0.0183775
0.017292
0.0163867
0.0157097
0.0152512
0.0149975
0.014874
0.0192607
0.0152098
0.0123957
0.0107209
0.00985129
0.00959003
0.0098361
0.0105779
0.0116276
0.012806
0.0145097
0.0175483
0.0191377
0.0191372
0.019133
0.0191274
0.01912
0.019109
0.0189816
0.0184203
0.0180185
0.0177927
0.017798
0.0180475
0.0183752
0.0134064
0.0112037
0.0099939
0.00955641
0.00974136
0.0104372
0.0115432
0.0128064
0.014025
0.0154894
0.017776
0.0190708
0.0190559
0.0190355
0.019012
0.018985
0.0189534
0.018916
0.0188725
0.0188236
0.0187698
0.0187117
0.0186523
0.0185945
0.0101385
0.00922954
0.00912265
0.00970701
0.0108186
0.0122365
0.0136045
0.0148218
0.0160623
0.0177773
0.0188195
0.0187762
0.0187257
0.0186707
0.0186121
0.01855
0.0184853
0.0184192
0.0183533
0.0182888
0.018228
0.0181735
0.0181277
0.00937855
0.00862925
0.00870705
0.0095423
0.0109588
0.0126434
0.0141331
0.0153425
0.0164381
0.017856
0.018508
0.018436
0.0183585
0.0182788
0.0181977
0.0181159
0.0180344
0.017955
0.0178793
0.0178085
0.017744
0.017688
0.0176429
0.00832596
0.00847252
0.00941417
0.0109795
0.0128166
0.0144438
0.015661
0.0166347
0.0178324
0.0182545
0.0181558
0.0180549
0.0179545
0.0178548
0.0177565
0.0176606
0.0175689
0.0174833
0.0174039
0.0173317
0.0172694
0.0172195
0.00833038
0.00848059
0.00942602
0.0109925
0.0128267
0.0144528
0.0156743
0.0166558
0.0178628
0.0182602
0.0181618
0.0180611
0.0179609
0.0178613
0.0177632
0.0176674
0.0175758
0.01749
0.0174103
0.0173378
0.0172751
0.0172249
0.00863786
0.00872565
0.00957275
0.010998
0.0126864
0.0141876
0.0154223
0.0165581
0.0180314
0.0185127
0.0184399
0.0183618
0.0182816
0.0182
0.0181179
0.0180363
0.0179569
0.0178813
0.0178106
0.0177462
0.0176902
0.0176451
0.0176127
0.00923644
0.00913882
0.00973342
0.0108543
0.012279
0.0136642
0.014917
0.0162173
0.0180273
0.0188216
0.0187767
0.0187249
0.0186687
0.0186089
0.018546
0.0184807
0.0184142
0.0183483
0.0182839
0.0182233
0.018169
0.0181234
0.0180885
0.00999505
0.00956435
0.00975629
0.0104636
0.0115883
0.0128902
0.0141573
0.0156611
0.0180284
0.0190704
0.0190532
0.0190305
0.0190045
0.0189752
0.0189415
0.0189026
0.0188582
0.018809
0.0187556
0.0186985
0.0186403
0.0185839
0.0185318
0.0107164
0.00985396
0.00959795
0.0098562
0.0106252
0.0117246
0.0129696
0.0147438
0.0178847
0.0191436
0.019142
0.0191367
0.01913
0.0191216
0.0191096
0.0190705
0.0184733
0.0180361
0.0177793
0.0177599
0.017985
0.0182995
0.0186287
0.00988213
0.00920121
0.00902361
0.00936584
0.0100949
0.0112967
0.013402
0.0170619
0.0190353
0.0190406
0.0190416
0.0190409
0.0190378
0.0190301
0.0185568
0.0174501
0.0165183
0.0158198
0.0153454
0.0150754
0.0149315
0.0149822
0.0153051
0.00958371
0.00856327
0.00811389
0.00810443
0.00858351
0.00959838
0.0116836
0.0151266
0.0187415
0.0187491
0.0187484
0.0187424
0.0187317
0.0187145
0.0186873
0.0179319
0.0165744
0.0155045
0.0146626
0.0140008
0.0134085
0.0129741
0.0127246
0.00898299
0.00782501
0.00708708
0.00674041
0.00708362
0.008084
0.00998086
0.0125174
0.0154045
0.0181178
0.0181064
0.0180833
0.0180475
0.0179956
0.017923
0.0170433
0.0156878
0.0145055
0.0134805
0.0125913
0.0118116
0.0111488
0.010587
0.00809029
0.007033
0.00616753
0.00566925
0.00534665
0.00606289
0.00729751
0.00942216
0.011202
0.0135265
0.0159441
0.0165153
0.0164189
0.016131
0.015027
0.0138893
0.0128118
0.0118146
0.0108963
0.0100592
0.00931573
0.00866165
0.00808818
0.00417655
0.00438894
0.00498011
0.00586749
0.00681049
0.00829071
0.00939198
0.0101087
0.0100295
0.00971929
0.00906455
0.00847151
0.00795503
0.00749151
0.0070793
0.00671737
0.00640598
0.00613879
0.00590444
0.00365993
0.0035763
0.00378117
0.00383476
0.00409752
0.00493174
0.00555035
0.0062643
0.00599982
0.00560762
0.0053257
0.00511031
0.00504779
0.00507602
0.00511931
0.00517184
0.00522603
0.00527353
0.00530533
0.0027826
0.00268259
0.00259158
0.00244309
0.00294225
0.00384838
0.00387128
0.0036758
0.00380762
0.00399973
0.00421233
0.00442198
0.00462138
0.00481046
0.00498824
0.00515195
0.00529659
0.00541302
0.00174698
0.00183629
0.00187913
0.001575
0.00224683
0.00256153
0.00284246
0.00322171
0.00361139
0.00399215
0.00434997
0.00459534
0.00481215
0.00502851
0.00523772
0.00543047
0.00559764
0.0057285
0.000703843
0.00146562
0.0017291
0.00209311
0.00259146
0.00288875
0.00319555
0.00350578
0.00382024
0.00413065
0.00443104
0.00471738
0.00496815
0.00511344
0.00523342
0.00144645
0.00191311
0.00199619
0.00229171
0.00244628
0.00261271
0.00279881
0.00300084
0.00321435
0.00343443
0.00365752
0.00388027
0.00409917
0.00431204
0.00185948
0.00206621
0.002125
0.00219079
0.00226278
0.00233928
0.00242568
0.00252393
0.00263373
0.00275376
0.00288227
0.0030175
0.00315811
0.0132247
0.0116585
0.0104211
0.00956181
0.00919921
0.00930038
0.00984975
0.0108412
0.0121538
0.0135107
0.0146461
0.0154739
0.016046
0.0166458
0.0174118
0.0110542
0.00944953
0.00817607
0.00737759
0.00732598
0.00760421
0.00816625
0.00907309
0.0103489
0.0116923
0.0126335
0.0128383
0.0126124
0.0125593
0.0128276
0.00913684
0.00750379
0.00624611
0.00578699
0.00520608
0.0053325
0.00598639
0.00705512
0.00853342
0.0100586
0.0108198
0.0105104
0.00979477
0.00911128
0.00868729
0.00910569
0.00956646
0.0099861
0.0103687
0.0107198
0.0110323
0.0112932
0.0114962
0.00749029
0.00582963
0.00479342
0.00411575
0.00476062
0.00360262
0.00385201
0.00472661
0.0063321
0.00710981
0.00691795
0.00693043
0.0070639
0.00659992
0.00527931
0.00576848
0.00622609
0.00667674
0.00681251
0.00690715
0.00697486
0.00701877
0.00704204
0.00618568
0.00452116
0.00349571
0.00349175
0.00225008
0.00241217
0.00279439
0.00320006
0.00282575
0.00269487
0.00269421
0.00275283
0.00289745
0.00313789
0.00339442
0.00318878
0.00334782
0.0034769
0.00357815
0.00365679
0.00371879
0.00376916
0.0038119
0.00530898
0.00377305
0.00331348
0.00186681
0.00140209
0.00132157
0.001429
0.000691767
0.00154403
0.00153864
0.00168018
0.00194266
0.00191074
0.00197656
0.0021713
0.00229916
0.00231208
0.00240068
0.0024819
0.00255804
0.0026348
0.00271319
0.00279428
0.00287859
0.00483739
0.00338576
0.00255092
0.00146741
0.00107855
0.00038545
0.00163276
0.00196505
0.00219586
0.00237196
0.00253972
0.00270262
0.0028638
0.00302403
0.00318231
0.00333706
0.00348462
0.0049541
0.00349071
0.00242287
0.00139801
0.000735408
0.00133205
0.0025368
0.00419281
0.00429944
0.00451444
0.00474958
0.00496705
0.00516111
0.00533358
0.00548537
0.00561723
0.00596528
0.00409344
0.00308722
0.00153576
0.000991378
0.000559873
0.00232064
0.0033258
0.00447548
0.0049171
0.00527373
0.00556024
0.00579654
0.00599474
0.00616406
0.00631245
0.0064487
0.00657834
0.00813062
0.00509122
0.0036741
0.00276852
0.00214336
0.00198606
0.00161817
0.000975991
0.000858707
0.00180821
0.0012161
0.00163119
0.00162213
0.00165564
0.00271493
0.00334894
0.00381529
0.00429968
0.00474789
0.00513698
0.00546786
0.00574638
0.00598345
0.00619022
0.00637933
0.00655721
0.011288
0.00801593
0.00567598
0.00480252
0.00437508
0.00511823
0.0058605
0.00377237
0.00268843
0.00324611
0.00352519
0.00324514
0.00313024
0.00351812
0.0037608
0.00397689
0.00422639
0.00449389
0.00476612
0.00503302
0.00528624
0.00542575
0.00556551
0.00570049
0.00582703
0.00593888
0.0156561
0.011479
0.00867553
0.00729905
0.00659075
0.00624743
0.00552722
0.00468424
0.00308363
0.00331163
0.00426153
0.00688968
0.00704125
0.00681034
0.00668888
0.00660567
0.00651441
0.00641947
0.00611631
0.00544677
0.00497186
0.00463329
0.00452665
0.00456306
0.00461735
0.00468227
0.0192829
0.0149219
0.011306
0.00913173
0.00794187
0.00686135
0.00604908
0.00549939
0.00417072
0.00441383
0.00601844
0.00940429
0.0131378
0.0127509
0.0124568
0.0121789
0.0118627
0.0114837
0.011059
0.0106019
0.00993677
0.0088194
0.00784341
0.00700254
0.0063015
0.0192431
0.0170461
0.0128902
0.0103141
0.00865837
0.00746828
0.00637954
0.00574322
0.00592076
0.0066974
0.00869264
0.0126088
0.0167383
0.0164351
0.0161264
0.0157924
0.0154166
0.0149844
0.0144965
0.0139597
0.0126129
0.0114396
0.0104267
0.00952309
0.00875877
0.0192471
0.0170516
0.0131674
0.0107274
0.00913639
0.00820136
0.00736261
0.00737134
0.00797207
0.00875918
0.0106408
0.0150233
0.0181834
0.0180205
0.0178277
0.0175969
0.0173155
0.0169714
0.0165584
0.0155543
0.0142305
0.0131839
0.012314
0.0116581
0.0109843
0.0192839
0.0154634
0.0123757
0.0104502
0.00929941
0.00874449
0.0086463
0.00935097
0.0102418
0.0106228
0.0123949
0.016883
0.0187176
0.0186062
0.0184549
0.018255
0.0179944
0.0172135
0.0157889
0.0149623
0.0142062
0.0136361
0.0132255
0.0129306
0.0125773
0.0169066
0.0133747
0.0110627
0.00971593
0.00910001
0.00914356
0.00971119
0.0109161
0.0121338
0.0130499
0.0145335
0.0182309
0.0187126
0.0186174
0.0184891
0.0183289
0.0181339
0.017506
0.0167679
0.0163875
0.0159765
0.0157001
0.015628
0.0156661
0.0153111
0.0114902
0.00969318
0.00880628
0.00866253
0.00930415
0.0105413
0.0122777
0.0138126
0.0148158
0.0158284
0.018276
0.0182488
0.0181174
0.0179727
0.0178116
0.0176293
0.0174225
0.017193
0.0169498
0.0167
0.0164418
0.0161786
0.0159285
0.0156935
0.00855771
0.00791681
0.00811243
0.00912171
0.0108717
0.0131281
0.0150363
0.0160792
0.0167299
0.017415
0.0172223
0.0170249
0.0168285
0.0166324
0.0164358
0.0162386
0.0160433
0.0158577
0.0156837
0.0155188
0.0153648
0.0152302
0.0151189
0.00780644
0.00727891
0.0076449
0.00892159
0.0111129
0.0138493
0.016021
0.016953
0.0166974
0.0164346
0.0161755
0.015933
0.0157153
0.0155137
0.0153232
0.0151422
0.014972
0.0148195
0.0146854
0.0145629
0.0144532
0.0143625
0.0142942
0.00696993
0.00737567
0.00874737
0.0111404
0.014108
0.0163945
0.0163107
0.0159575
0.0155951
0.0152536
0.0149544
0.0147038
0.014482
0.0142795
0.0140923
0.0139209
0.0137721
0.0136444
0.0135291
0.013427
0.0133453
0.013287
0.00697527
0.00738624
0.00876316
0.011154
0.0141055
0.0163794
0.0163234
0.0159711
0.0156094
0.0152683
0.0149693
0.0147187
0.0144968
0.0142942
0.0141067
0.013935
0.013785
0.0136562
0.0135397
0.0134365
0.0133536
0.0132943
0.00728853
0.00767145
0.00896711
0.0111759
0.0139062
0.0160839
0.0169542
0.0166965
0.0164317
0.016171
0.0159273
0.015709
0.0155071
0.0153164
0.0151352
0.0149654
0.0148139
0.0146807
0.0145592
0.0144502
0.0143605
0.0142929
0.0142444
0.00792331
0.00813293
0.00915642
0.0109182
0.0131627
0.0150846
0.0161604
0.0169344
0.0174077
0.0172127
0.0170136
0.0168161
0.0166191
0.0164221
0.0162251
0.0160306
0.0158468
0.0156748
0.0155123
0.0153606
0.0152284
0.0151193
0.0150301
0.00880454
0.00866699
0.00931502
0.010564
0.0123146
0.0139092
0.0147966
0.0159305
0.0183397
0.0182167
0.0180787
0.0179285
0.0177632
0.0175791
0.0173737
0.0171489
0.0169137
0.0166742
0.0164284
0.0161791
0.0159404
0.0157133
0.0155017
0.00971013
0.0091006
0.00914433
0.00972302
0.0109591
0.0122548
0.0132676
0.0148164
0.0186411
0.0187255
0.0186295
0.0184996
0.0183371
0.0181403
0.017611
0.0168123
0.0164129
0.0159717
0.015673
0.0155858
0.0156233
0.0152859
0.0149082
0.00928532
0.00872971
0.00864087
0.0093711
0.0103285
0.0108011
0.0126497
0.0172874
0.018736
0.0186355
0.0184978
0.0183142
0.0180736
0.0175303
0.0160115
0.0151829
0.0144067
0.0138329
0.0134221
0.0131289
0.0127731
0.0126336
0.0127787
0.0091236
0.00819826
0.00736935
0.00733602
0.00797532
0.00883863
0.0107637
0.0151169
0.018202
0.0180497
0.017868
0.0176497
0.0173832
0.0170563
0.0166611
0.0160059
0.0145993
0.0135009
0.0125982
0.0119225
0.0112133
0.0107096
0.0103388
0.00865429
0.00749843
0.00633092
0.00584802
0.0058374
0.00665037
0.00865271
0.0124572
0.016716
0.0164111
0.0161002
0.0157646
0.015389
0.0149604
0.0144781
0.01395
0.0124876
0.0113291
0.0103307
0.00945568
0.00870709
0.00807466
0.00755089
0.00791072
0.00689726
0.00552257
0.00473057
0.00641463
0.00647402
0.00770435
0.00889126
0.0131114
0.0126732
0.0123293
0.0120104
0.0116615
0.0112684
0.0108416
0.0100268
0.00889437
0.00794836
0.00712173
0.00639205
0.00577265
0.00540257
0.00515056
0.00360641
0.00389271
0.00534264
0.00636403
0.00665016
0.0063571
0.00619936
0.00609478
0.00602166
0.0056036
0.00496216
0.00456223
0.00428689
0.00430817
0.00435259
0.00441528
0.00449062
0.00457272
0.00465016
0.00281375
0.00316344
0.00358084
0.00404841
0.00454577
0.00469793
0.00362282
0.00380319
0.00402271
0.00426644
0.00452146
0.00477682
0.00502604
0.00526358
0.00547551
0.00560186
0.00572222
0.00583096
0.00592031
0.00302657
0.00277303
0.0027764
0.00249899
0.00292984
0.00314694
0.00359944
0.00398476
0.00438496
0.00475924
0.00508979
0.00537556
0.00562334
0.00584096
0.00603572
0.00621592
0.0063885
0.00655891
0.000558325
0.00117026
0.00151864
0.00136136
0.00269113
0.00333968
0.00469731
0.00507288
0.0053809
0.00562966
0.00583904
0.0060195
0.0061777
0.00632121
0.00645435
0.00658162
0.00670807
0.00223307
0.00441069
0.0047771
0.00479307
0.00493891
0.00511324
0.00527396
0.00541929
0.00555151
0.0056716
0.00577998
0.00587718
0.00596376
0.00136759
0.0020025
0.00234327
0.00253562
0.00272186
0.00290202
0.00307905
0.00325367
0.00342458
0.00358693
0.00373915
0.00388177
0.00401623
0.00165138
0.00188819
0.00225079
0.00234446
0.0024302
0.00250992
0.0025896
0.00267054
0.00275396
0.00284044
0.00293027
0.00302355
0.00312043
0.0129429
0.0113686
0.0101824
0.00953697
0.00939942
0.0097648
0.0106135
0.0119555
0.0134615
0.0146376
0.0151864
0.0150811
0.0145951
0.0142948
0.0144724
0.0106232
0.00899015
0.00783278
0.00748348
0.00757675
0.00800676
0.00875365
0.0101567
0.0119285
0.0132873
0.0137299
0.013015
0.011797
0.0110381
0.0109798
0.00856441
0.00690111
0.00609597
0.00529957
0.00514313
0.00560834
0.0065872
0.00892424
0.0112435
0.0109078
0.0108991
0.0102647
0.00855367
0.00777639
0.00761244
0.00780034
0.00839031
0.00893464
0.0094099
0.00982824
0.0101907
0.0104936
0.0107365
0.00680901
0.00528292
0.00437002
0.00476319
0.00344491
0.00355566
0.00446672
0.00580874
0.00554886
0.00545074
0.00543557
0.00550354
0.00574178
0.00559297
0.005253
0.00506724
0.00605291
0.006572
0.00702937
0.00734021
0.00750272
0.00764713
0.0077762
0.0054451
0.00412029
0.00389515
0.00231502
0.00217862
0.00238257
0.00304392
0.00296931
0.00281691
0.00275669
0.00277043
0.0028569
0.00301918
0.00321852
0.00335943
0.00399952
0.00393527
0.00413455
0.00430657
0.00445675
0.00459064
0.00471235
0.00482472
0.00442525
0.00308043
0.0024414
0.00150143
0.00109764
0.00151859
0.00185072
0.00207347
0.00141295
0.00139008
0.00122969
0.00167779
0.00193039
0.00213256
0.0019938
0.00252298
0.00255483
0.00270776
0.00284548
0.00297065
0.0030888
0.00320373
0.00331759
0.00343175
0.00445435
0.0033514
0.00169437
0.00119868
0.000193154
0.000985581
0.00167213
0.00204966
0.00234339
0.00251222
0.00266221
0.00280148
0.00293522
0.00306578
0.00319476
0.00332311
0.00464899
0.00330052
0.00163013
0.00102596
0.000273205
0.0025312
0.00328616
0.00360432
0.00360751
0.00364629
0.00370329
0.00377226
0.00384994
0.00393474
0.00402617
0.00547884
0.00390199
0.00198473
0.00116451
0.000498072
0.00187576
0.00427431
0.00535084
0.00539979
0.00528488
0.0053052
0.00536107
0.00537496
0.00536214
0.00533251
0.00530215
0.00527544
0.00652445
0.00455396
0.00324233
0.00206072
0.00173994
0.001709
0.00066935
0.00138096
0.00121281
0.00124589
0.00103921
0.0013539
0.00174483
0.00178627
0.00284182
0.00331777
0.00438935
0.0048706
0.0051894
0.00538101
0.00551463
0.00562397
0.0057256
0.00582849
0.00593541
0.00604495
0.00975646
0.00663923
0.0051028
0.00401504
0.00389624
0.00656581
0.00543672
0.00259676
0.00168647
0.00243108
0.00197356
0.00230643
0.00257414
0.00283135
0.00306351
0.00340176
0.00374521
0.00409404
0.00442609
0.004729
0.00499409
0.0052301
0.00543432
0.00560606
0.00576039
0.00591094
0.0139641
0.0101489
0.00778742
0.00677963
0.00677411
0.00699459
0.00553276
0.00276892
0.00174123
0.00200862
0.00265283
0.00257166
0.00255471
0.00266955
0.00281129
0.00297892
0.00315751
0.00333737
0.00351543
0.00369217
0.00386876
0.00404721
0.00422909
0.00441978
0.00461521
0.00481656
0.0186114
0.0136465
0.0104488
0.0087519
0.00787119
0.00727188
0.00572072
0.00327836
0.00264049
0.00334196
0.00791984
0.00709667
0.00496618
0.00487546
0.00484583
0.00484329
0.00484451
0.00484202
0.00483624
0.004831
0.00480772
0.00477119
0.00473033
0.00469222
0.0046629
0.0193054
0.0156546
0.0119865
0.00974238
0.00830382
0.0074698
0.00619505
0.00431139
0.00433786
0.00479419
0.00634045
0.0123782
0.0096721
0.00900194
0.00849981
0.00808609
0.00771867
0.00737796
0.00706065
0.00676661
0.00649751
0.00625783
0.00597103
0.00585469
0.00567977
0.0193275
0.0152456
0.0119695
0.00988153
0.00850411
0.00793102
0.00774398
0.00574204
0.00630266
0.00643805
0.00693725
0.0115144
0.014216
0.0133597
0.0125835
0.0118453
0.0111234
0.0104198
0.00974824
0.00912687
0.0085595
0.00805991
0.00754803
0.006933
0.00629543
0.0168751
0.0132845
0.0108264
0.00929387
0.0085187
0.00772968
0.00742267
0.00842541
0.0109318
0.0111735
0.0090583
0.0122842
0.0165619
0.0156051
0.0146339
0.0136631
0.0126959
0.0117621
0.0108853
0.00986233
0.00898456
0.00844352
0.00807767
0.00770556
0.00734834
0.0138159
0.0110915
0.0092919
0.00833818
0.00824337
0.008008
0.00887874
0.0112335
0.0141841
0.0131498
0.0128008
0.0166653
0.0170788
0.0163717
0.0155738
0.0143536
0.0130187
0.012361
0.0119995
0.0116977
0.0112783
0.0106115
0.00999859
0.00947541
0.00903844
0.00925268
0.00784406
0.00741744
0.00778895
0.00807354
0.00994392
0.0133196
0.0169058
0.0160562
0.0152103
0.0162132
0.0158649
0.0154858
0.0150615
0.0145768
0.0140198
0.0134033
0.0127674
0.0121698
0.0116305
0.0111347
0.0106811
0.0103088
0.00671249
0.00650202
0.00722324
0.00877077
0.0118114
0.0156175
0.0151848