/*--------------------------------*- C++ -*----------------------------------*\
  =========                 |
  \\      /  F ield         | OpenFOAM: The Open Source CFD Toolbox
   \\    /   O peration     | Website:  https://openfoam.org
    \\  /    A nd           | Version:  13
     \\/     M anipulation  |
\*---------------------------------------------------------------------------*/
FoamFile
{
    format      ascii;
    class       volScalarField;
    location    "700";
    object      nut;
}
// * * * * * * * * * * * * * * * * * * * * * * * * * * * * * * * * * * * * * //

dimensions      [0 2 -1 0 0 0 0];

internalField   nonuniform List<scalar> 
173327
(
0.0184113
0.0183989
0.0183867
0.0183747
0.0183631
0.0183517
0.0183407
0.0183299
0.0183193
0.0183091
0.0182991
0.0182893
0.0182797
0.0182703
0.018261
0.0182519
0.0182428
0.0182339
0.018225
0.0182162
0.0182073
0.0181985
0.0181897
0.0181809
0.018172
0.0181631
0.0181541
0.0181451
0.0181361
0.0181269
0.0181177
0.0181085
0.0180992
0.0180898
0.0180804
0.0180709
0.0180614
0.0180518
0.0180423
0.0180327
0.0180231
0.0180135
0.0180039
0.0179943
0.0179847
0.0179752
0.0179657
0.0179562
0.0179468
0.0179375
0.0179282
0.017919
0.0179098
0.0179007
0.0178917
0.0178827
0.0178738
0.017865
0.0178562
0.0178475
0.0178388
0.0178302
0.0178216
0.0178131
0.0178046
0.0177961
0.0177877
0.0177792
0.0177708
0.0177623
0.0177539
0.0177454
0.017737
0.0177285
0.0177201
0.0177117
0.0177038
0.0184135
0.0184011
0.018389
0.0183772
0.0183656
0.0183543
0.0183433
0.0183326
0.0183222
0.018312
0.0183021
0.0182924
0.0182828
0.0182735
0.0182643
0.0182553
0.0182463
0.0182374
0.0182286
0.0182199
0.0182111
0.0182024
0.0181937
0.0181849
0.0181761
0.0181673
0.0181584
0.0181494
0.0181404
0.0181313
0.0181222
0.018113
0.0181037
0.0180944
0.018085
0.0180756
0.0180661
0.0180566
0.0180471
0.0180375
0.0180279
0.0180183
0.0180088
0.0179992
0.0179896
0.0179801
0.0179706
0.0179612
0.0179517
0.0179424
0.0179331
0.0179238
0.0179146
0.0179055
0.0178965
0.0178875
0.0178785
0.0178697
0.0178609
0.0178521
0.0178434
0.0178347
0.0178261
0.0178175
0.017809
0.0178005
0.017792
0.0177835
0.017775
0.0177665
0.0177581
0.0177496
0.0177412
0.0177327
0.0177242
0.0177158
0.0177078
0.0184179
0.0184056
0.0183937
0.018382
0.0183705
0.0183594
0.0183486
0.018338
0.0183277
0.0183177
0.0183079
0.0182983
0.0182889
0.0182797
0.0182707
0.0182618
0.0182529
0.0182442
0.0182355
0.0182269
0.0182182
0.0182096
0.018201
0.0181923
0.0181836
0.0181749
0.0181661
0.0181572
0.0181483
0.0181393
0.0181302
0.0181211
0.0181119
0.0181026
0.0180933
0.0180839
0.0180744
0.018065
0.0180555
0.0180459
0.0180364
0.0180268
0.0180172
0.0180077
0.0179981
0.0179886
0.0179791
0.0179696
0.0179602
0.0179508
0.0179415
0.0179322
0.017923
0.0179139
0.0179048
0.0178958
0.0178868
0.0178779
0.0178691
0.0178603
0.0178515
0.0178428
0.0178342
0.0178256
0.017817
0.0178085
0.0178
0.0177915
0.017783
0.0177745
0.017766
0.0177576
0.0177491
0.0177406
0.0177321
0.0177237
0.0177157
0.0184247
0.0184127
0.018401
0.0183895
0.0183783
0.0183673
0.0183567
0.0183464
0.0183363
0.0183264
0.0183168
0.0183075
0.0182983
0.0182893
0.0182804
0.0182716
0.018263
0.0182544
0.0182458
0.0182373
0.0182288
0.0182204
0.0182118
0.0182033
0.0181947
0.0181861
0.0181774
0.0181686
0.0181598
0.0181508
0.0181419
0.0181328
0.0181237
0.0181145
0.0181052
0.0180959
0.0180865
0.0180771
0.0180676
0.0180581
0.0180486
0.0180391
0.0180295
0.01802
0.0180105
0.018001
0.0179915
0.0179821
0.0179727
0.0179633
0.017954
0.0179448
0.0179356
0.0179265
0.0179174
0.0179084
0.0178995
0.0178906
0.0178818
0.017873
0.0178643
0.0178556
0.017847
0.0178384
0.0178299
0.0178213
0.0178128
0.0178043
0.0177959
0.0177874
0.0177789
0.0177704
0.017762
0.0177535
0.017745
0.0177366
0.0177287
0.0184346
0.0184229
0.0184114
0.0184002
0.0183893
0.0183787
0.0183683
0.0183583
0.0183485
0.0183389
0.0183296
0.0183204
0.0183115
0.0183027
0.018294
0.0182855
0.018277
0.0182686
0.0182603
0.018252
0.0182436
0.0182353
0.0182269
0.0182185
0.0182101
0.0182016
0.018193
0.0181843
0.0181756
0.0181668
0.0181579
0.0181489
0.0181399
0.0181308
0.0181216
0.0181123
0.018103
0.0180936
0.0180842
0.0180748
0.0180653
0.0180559
0.0180464
0.0180369
0.0180274
0.018018
0.0180086
0.0179992
0.0179898
0.0179805
0.0179713
0.0179621
0.0179529
0.0179438
0.0179348
0.0179259
0.017917
0.0179081
0.0178994
0.0178906
0.017882
0.0178734
0.0178648
0.0178563
0.0178478
0.0178393
0.0178308
0.0178224
0.0178139
0.0178055
0.0177971
0.0177886
0.0177802
0.0177718
0.0177633
0.0177549
0.0177471
0.0184482
0.0184368
0.0184258
0.0184149
0.0184044
0.0183941
0.0183842
0.0183745
0.018365
0.0183558
0.0183468
0.0183379
0.0183293
0.0183208
0.0183124
0.0183041
0.0182959
0.0182877
0.0182796
0.0182715
0.0182634
0.0182552
0.018247
0.0182388
0.0182305
0.0182221
0.0182137
0.0182051
0.0181965
0.0181878
0.018179
0.0181702
0.0181612
0.0181522
0.0181431
0.0181339
0.0181247
0.0181154
0.0181061
0.0180967
0.0180873
0.0180779
0.0180685
0.0180591
0.0180496
0.0180403
0.0180309
0.0180216
0.0180123
0.018003
0.0179938
0.0179847
0.0179756
0.0179666
0.0179576
0.0179487
0.0179399
0.0179311
0.0179224
0.0179138
0.0179052
0.0178966
0.0178881
0.0178796
0.0178712
0.0178628
0.0178544
0.017846
0.0178376
0.0178292
0.0178208
0.0178124
0.0178041
0.0177957
0.0177873
0.017779
0.0177711
0.0184665
0.0184556
0.018445
0.0184347
0.0184246
0.0184148
0.0184053
0.018396
0.0183869
0.0183781
0.0183695
0.018361
0.0183527
0.0183446
0.0183365
0.0183285
0.0183206
0.0183127
0.0183048
0.0182969
0.018289
0.0182811
0.0182731
0.018265
0.0182569
0.0182487
0.0182404
0.018232
0.0182235
0.0182149
0.0182062
0.0181975
0.0181886
0.0181797
0.0181707
0.0181616
0.0181524
0.0181432
0.018134
0.0181247
0.0181154
0.018106
0.0180967
0.0180873
0.018078
0.0180687
0.0180594
0.0180501
0.0180409
0.0180317
0.0180226
0.0180135
0.0180045
0.0179955
0.0179866
0.0179778
0.017969
0.0179603
0.0179517
0.0179431
0.0179346
0.0179261
0.0179176
0.0179092
0.0179009
0.0178925
0.0178842
0.0178758
0.0178675
0.0178592
0.0178509
0.0178426
0.0178342
0.0178259
0.0178176
0.0178093
0.0178015
0.018491
0.0184808
0.0184707
0.018461
0.0184514
0.0184422
0.0184332
0.0184244
0.0184158
0.0184075
0.0183993
0.0183912
0.0183833
0.0183755
0.0183678
0.0183602
0.0183525
0.0183449
0.0183373
0.0183297
0.018322
0.0183143
0.0183065
0.0182986
0.0182906
0.0182826
0.0182744
0.0182662
0.0182578
0.0182493
0.0182408
0.0182321
0.0182234
0.0182145
0.0182056
0.0181966
0.0181875
0.0181784
0.0181692
0.01816
0.0181507
0.0181414
0.0181321
0.0181229
0.0181136
0.0181043
0.0180951
0.0180859
0.0180767
0.0180676
0.0180585
0.0180495
0.0180406
0.0180317
0.0180229
0.0180141
0.0180054
0.0179968
0.0179882
0.0179797
0.0179712
0.0179628
0.0179544
0.0179461
0.0179378
0.0179295
0.0179212
0.0179129
0.0179046
0.0178964
0.0178881
0.0178799
0.0178716
0.0178634
0.0178551
0.0178468
0.0178391
0.0185242
0.0185146
0.0185052
0.0184961
0.0184872
0.0184786
0.0184701
0.0184619
0.0184539
0.018446
0.0184383
0.0184307
0.0184232
0.0184158
0.0184084
0.0184011
0.0183938
0.0183865
0.0183791
0.0183717
0.0183642
0.0183567
0.0183491
0.0183414
0.0183336
0.0183257
0.0183176
0.0183095
0.0183012
0.0182929
0.0182844
0.0182758
0.0182671
0.0182584
0.0182495
0.0182405
0.0182315
0.0182224
0.0182133
0.0182041
0.0181949
0.0181857
0.0181764
0.0181672
0.018158
0.0181487
0.0181395
0.0181304
0.0181213
0.0181122
0.0181032
0.0180942
0.0180853
0.0180765
0.0180677
0.018059
0.0180504
0.0180418
0.0180333
0.0180249
0.0180165
0.0180081
0.0179998
0.0179915
0.0179832
0.017975
0.0179667
0.0179585
0.0179503
0.0179421
0.0179339
0.0179257
0.0179174
0.0179092
0.017901
0.0178928
0.0178851
0.0185692
0.0185604
0.0185518
0.0185434
0.0185352
0.0185272
0.0185194
0.0185117
0.0185042
0.0184968
0.0184896
0.0184824
0.0184753
0.0184682
0.0184612
0.0184542
0.0184471
0.01844
0.0184329
0.0184257
0.0184184
0.018411
0.0184035
0.0183959
0.0183882
0.0183804
0.0183724
0.0183643
0.0183561
0.0183478
0.0183394
0.0183308
0.0183222
0.0183134
0.0183045
0.0182956
0.0182866
0.0182775
0.0182684
0.0182592
0.01825
0.0182408
0.0182315
0.0182223
0.0182131
0.0182039
0.0181947
0.0181856
0.0181765
0.0181674
0.0181584
0.0181495
0.0181406
0.0181318
0.0181231
0.0181144
0.0181058
0.0180973
0.0180888
0.0180804
0.018072
0.0180637
0.0180554
0.0180472
0.0180389
0.0180307
0.0180225
0.0180143
0.0180061
0.0179979
0.0179897
0.0179815
0.0179733
0.0179651
0.0179569
0.0179486
0.017941
0.0186307
0.0186228
0.018615
0.0186073
0.0185998
0.0185924
0.0185851
0.018578
0.0185709
0.018564
0.0185571
0.0185502
0.0185434
0.0185366
0.0185298
0.0185229
0.018516
0.0185091
0.018502
0.0184949
0.0184876
0.0184803
0.0184728
0.0184652
0.0184575
0.0184496
0.0184417
0.0184335
0.0184253
0.0184169
0.0184084
0.0183998
0.0183911
0.0183823
0.0183733
0.0183643
0.0183553
0.0183461
0.0183369
0.0183277
0.0183184
0.0183091
0.0182998
0.0182906
0.0182813
0.018272
0.0182628
0.0182536
0.0182445
0.0182354
0.0182264
0.0182175
0.0182086
0.0181998
0.018191
0.0181824
0.0181738
0.0181652
0.0181567
0.0181483
0.0181399
0.0181316
0.0181233
0.0181151
0.0181068
0.0180986
0.0180904
0.0180821
0.0180739
0.0180657
0.0180575
0.0180492
0.018041
0.0180328
0.0180245
0.0180163
0.0180086
0.0187144
0.0187074
0.0187003
0.0186933
0.0186863
0.0186794
0.0186725
0.0186657
0.0186589
0.0186522
0.0186455
0.0186387
0.018632
0.0186252
0.0186184
0.0186115
0.0186045
0.0185975
0.0185903
0.0185831
0.0185757
0.0185682
0.0185605
0.0185527
0.0185448
0.0185368
0.0185286
0.0185203
0.0185118
0.0185032
0.0184945
0.0184857
0.0184768
0.0184678
0.0184586
0.0184495
0.0184402
0.0184309
0.0184215
0.0184121
0.0184027
0.0183932
0.0183838
0.0183744
0.018365
0.0183556
0.0183463
0.018337
0.0183278
0.0183186
0.0183095
0.0183005
0.0182915
0.0182826
0.0182738
0.0182651
0.0182564
0.0182478
0.0182392
0.0182307
0.0182223
0.0182139
0.0182056
0.0181972
0.0181889
0.0181806
0.0181723
0.018164
0.0181557
0.0181474
0.0181391
0.0181308
0.0181225
0.0181142
0.0181058
0.0180975
0.0180897
0.0188264
0.01882
0.0188134
0.0188068
0.0188001
0.0187933
0.0187865
0.0187797
0.0187728
0.0187659
0.018759
0.018752
0.018745
0.0187379
0.0187307
0.0187234
0.0187161
0.0187086
0.018701
0.0186933
0.0186855
0.0186775
0.0186694
0.0186612
0.0186529
0.0186444
0.0186358
0.018627
0.0186181
0.0186091
0.0186
0.0185908
0.0185815
0.0185721
0.0185626
0.0185531
0.0185435
0.0185338
0.0185242
0.0185145
0.0185047
0.018495
0.0184853
0.0184757
0.018466
0.0184564
0.0184469
0.0184374
0.018428
0.0184186
0.0184093
0.0184001
0.018391
0.018382
0.018373
0.0183641
0.0183553
0.0183465
0.0183378
0.0183292
0.0183207
0.0183121
0.0183036
0.0182952
0.0182867
0.0182783
0.0182699
0.0182614
0.018253
0.0182445
0.018236
0.0182276
0.0182191
0.0182106
0.0182021
0.0181936
0.0181856
0.0189688
0.0189628
0.0189565
0.0189498
0.0189429
0.0189359
0.0189286
0.0189212
0.0189138
0.0189062
0.0188986
0.0188908
0.018883
0.0188751
0.0188671
0.018859
0.0188508
0.0188425
0.0188341
0.0188256
0.018817
0.0188083
0.0187994
0.0187904
0.0187814
0.0187722
0.0187628
0.0187534
0.0187439
0.0187342
0.0187245
0.0187147
0.0187048
0.0186949
0.0186849
0.0186748
0.0186647
0.0186546
0.0186444
0.0186343
0.0186242
0.0186141
0.018604
0.0185939
0.0185839
0.018574
0.0185641
0.0185543
0.0185446
0.018535
0.0185254
0.018516
0.0185066
0.0184973
0.0184881
0.018479
0.0184699
0.018461
0.0184521
0.0184432
0.0184344
0.0184257
0.018417
0.0184083
0.0183997
0.018391
0.0183824
0.0183737
0.0183651
0.0183564
0.0183477
0.018339
0.0183303
0.0183216
0.0183129
0.0183041
0.018296
0.019132
0.0191261
0.0191196
0.0191125
0.0191049
0.0190969
0.0190887
0.0190802
0.0190716
0.0190628
0.0190539
0.0190449
0.0190358
0.0190267
0.0190174
0.0190081
0.0189988
0.0189893
0.0189798
0.0189702
0.0189606
0.0189508
0.018941
0.0189311
0.0189211
0.0189111
0.0189009
0.0188907
0.0188804
0.0188701
0.0188596
0.0188491
0.0188386
0.018828
0.0188174
0.0188068
0.0187962
0.0187855
0.0187749
0.0187643
0.0187537
0.0187431
0.0187326
0.0187222
0.0187118
0.0187015
0.0186912
0.0186811
0.018671
0.018661
0.0186512
0.0186414
0.0186317
0.0186222
0.0186127
0.0186033
0.018594
0.0185848
0.0185756
0.0185665
0.0185575
0.0185486
0.0185396
0.0185308
0.0185219
0.018513
0.0185042
0.0184953
0.0184864
0.0184775
0.0184686
0.0184597
0.0184508
0.0184419
0.0184329
0.018424
0.0184157
0.0192701
0.0192643
0.0192574
0.0192496
0.019241
0.0192319
0.0192222
0.0192123
0.0192023
0.0191921
0.0191818
0.0191715
0.0191612
0.0191509
0.0191405
0.0191302
0.0191199
0.0191096
0.0190993
0.019089
0.0190787
0.0190684
0.019058
0.0190476
0.0190372
0.0190268
0.0190163
0.0190058
0.0189952
0.0189846
0.018974
0.0189633
0.0189527
0.0189419
0.0189312
0.0189205
0.0189097
0.018899
0.0188883
0.0188775
0.0188669
0.0188562
0.0188456
0.0188351
0.0188247
0.0188143
0.018804
0.0187937
0.0187836
0.0187736
0.0187636
0.0187538
0.0187441
0.0187344
0.0187249
0.0187155
0.0187061
0.0186969
0.0186877
0.0186786
0.0186696
0.0186607
0.0186517
0.0186429
0.018634
0.0186252
0.0186164
0.0186076
0.0185988
0.01859
0.0185812
0.0185723
0.0185634
0.0185546
0.0185457
0.0185368
0.0185286
0.0192162
0.0192097
0.0192019
0.0191934
0.0191843
0.0191749
0.0191655
0.0191561
0.0191468
0.0191377
0.0191289
0.0191201
0.0191114
0.019103
0.0190947
0.0190867
0.0190788
0.019071
0.0190634
0.0190558
0.0190483
0.0190408
0.0190333
0.0190258
0.0190183
0.0190107
0.0190031
0.0189953
0.0189875
0.0189796
0.0189717
0.0189636
0.0189554
0.0189471
0.0189388
0.0189303
0.0189218
0.0189131
0.0189045
0.0188957
0.0188869
0.0188781
0.0188693
0.0188605
0.0188516
0.0188428
0.018834
0.0188252
0.0188165
0.0188078
0.0187992
0.0187907
0.0187822
0.0187738
0.0187655
0.0187573
0.0187492
0.0187411
0.0187331
0.0187252
0.0187174
0.0187096
0.0187019
0.0186942
0.0186866
0.018679
0.0186714
0.0186639
0.0186563
0.0186487
0.0186411
0.0186335
0.0186259
0.0186182
0.0186105
0.0186028
0.0185957
0.0183879
0.018386
0.0183853
0.0183859
0.0183879
0.0183913
0.018396
0.018402
0.0184091
0.0184172
0.0184261
0.0184357
0.0184458
0.0184562
0.0184669
0.0184776
0.0184884
0.018499
0.0185095
0.0185197
0.0185296
0.0185391
0.0185481
0.0185566
0.0185647
0.0185723
0.0185795
0.0185861
0.0185921
0.0185977
0.0186026
0.0186071
0.0186109
0.0186142
0.018617
0.0186193
0.0186211
0.0186224
0.0186232
0.0186237
0.0186237
0.0186233
0.0186226
0.0186215
0.0186202
0.0186186
0.0186168
0.0186148
0.0186127
0.0186104
0.018608
0.0186054
0.0186029
0.0186002
0.0185976
0.0185949
0.0185922
0.0185895
0.0185868
0.0185841
0.0185814
0.0185787
0.018576
0.0185733
0.0185706
0.0185679
0.0185652
0.0185624
0.0185596
0.0185568
0.0185538
0.0185508
0.0185477
0.0185445
0.0185413
0.0185379
0.018535
0.01556
0.015607
0.0156607
0.0157203
0.0157848
0.0158532
0.0159247
0.0159983
0.0160733
0.0161491
0.0162251
0.0163008
0.0163758
0.0164498
0.0165225
0.0165937
0.0166633
0.016731
0.0167969
0.0168608
0.0169228
0.0169827
0.0170406
0.0170963
0.0171498
0.0172012
0.0172504
0.0172976
0.0173426
0.0173856
0.0174265
0.0174655
0.0175025
0.0175377
0.0175711
0.0176027
0.0176327
0.017661
0.0176878
0.0177131
0.0177372
0.01776
0.0177817
0.0178023
0.0178219
0.0178405
0.0178584
0.0178755
0.0178919
0.0179077
0.017923
0.0179377
0.017952
0.0179659
0.0179795
0.0179927
0.0180057
0.0180184
0.0180308
0.018043
0.018055
0.0180667
0.0180783
0.0180896
0.0181007
0.0181115
0.0181221
0.0181324
0.0181424
0.0181522
0.0181616
0.0181707
0.0181795
0.0181879
0.0181959
0.0182041
0.0106389
0.0107462
0.0108676
0.0110013
0.0111454
0.0112979
0.0114568
0.0116204
0.0117872
0.011956
0.0121256
0.0122952
0.012464
0.0126312
0.0127963
0.0129589
0.0131187
0.0132752
0.0134283
0.0135777
0.0137233
0.013865
0.0140027
0.0141364
0.0142659
0.0143912
0.0145125
0.0146295
0.0147425
0.0148514
0.0149563
0.0150573
0.0151544
0.0152479
0.0153378
0.0154242
0.0155073
0.0155871
0.0156639
0.0157378
0.0158088
0.0158773
0.0159433
0.016007
0.0160685
0.0161281
0.0161857
0.0162417
0.0162961
0.0163491
0.0164008
0.0164512
0.0165006
0.016549
0.0165964
0.0166429
0.0166886
0.0167335
0.0167777
0.0168212
0.0168641
0.0169063
0.0169478
0.0169887
0.0170289
0.0170683
0.0171071
0.0171451
0.0171822
0.0172186
0.0172541
0.0172888
0.0173225
0.0173553
0.0173872
0.0174182
0.00638318
0.00647639
0.00658689
0.00671292
0.00685263
0.00700419
0.00716587
0.00733607
0.00751327
0.0076961
0.00788336
0.00807399
0.00826706
0.00846175
0.00865731
0.00885312
0.0090486
0.00924327
0.00943669
0.00962845
0.00981823
0.0100057
0.0101906
0.0103726
0.0105515
0.0107272
0.0108994
0.0110681
0.011233
0.0113942
0.0115515
0.011705
0.0118546
0.0120003
0.0121422
0.0122803
0.0124145
0.0125451
0.012672
0.0127956
0.012916
0.0130335
0.0131481
0.01326
0.0133695
0.0134765
0.0135814
0.0136842
0.0137852
0.0138845
0.0139822
0.0140784
0.0141734
0.0142673
0.0143601
0.014452
0.0145431
0.0146333
0.0147228
0.0148115
0.0148993
0.0149863
0.0150724
0.0151574
0.0152414
0.0153241
0.0154056
0.0154859
0.0155647
0.0156422
0.0157181
0.0157925
0.0158653
0.0159364
0.0160059
0.0160735
0.00420938
0.00425543
0.00432058
0.00440078
0.00449459
0.00460053
0.00471738
0.00484396
0.00497912
0.00512173
0.00524639
0.00532813
0.00542496
0.00553544
0.00565838
0.00579277
0.00593752
0.00609154
0.0062539
0.00642381
0.00660048
0.00678325
0.00697161
0.00716497
0.00736272
0.00756474
0.00777106
0.00798109
0.008194
0.00840921
0.00859796
0.00875737
0.00891433
0.00906883
0.00922087
0.00937049
0.00951772
0.00966263
0.00980532
0.00994589
0.0100844
0.0102211
0.0103561
0.0104894
0.0106213
0.010752
0.0108815
0.01101
0.0111378
0.0112649
0.0113915
0.0115177
0.0116436
0.0117693
0.0118949
0.0120203
0.0121456
0.0122708
0.0123957
0.0125205
0.012645
0.012769
0.0128927
0.0130158
0.0131382
0.01326
0.0133808
0.0135008
0.0136198
0.0137377
0.0138545
0.01397
0.014084
0.0141966
0.0143075
0.0144161
0.00366606
0.00361042
0.00344907
0.00328668
0.00318412
0.00312975
0.00313051
0.00314746
0.00317581
0.00322285
0.00329548
0.00338003
0.00347453
0.00357744
0.0036878
0.00380493
0.00392819
0.00405702
0.00418922
0.00432467
0.00446342
0.00460547
0.00475084
0.00489931
0.00505049
0.00520438
0.00536117
0.00552029
0.00568111
0.00584332
0.00600678
0.0061712
0.00633627
0.00650164
0.00666684
0.00683143
0.006995
0.00715722
0.0073178
0.00747646
0.00763287
0.00778664
0.00793745
0.00808498
0.00822896
0.00836914
0.00850529
0.00863721
0.00876475
0.0088878
0.00900632
0.0091203
0.00922978
0.00933488
0.00943574
0.00953261
0.00962572
0.00971541
0.00980201
0.00988596
0.00996772
0.0100478
0.0101268
0.0102052
0.0102835
0.0103631
0.0104441
0.0105263
0.0106096
0.0106963
0.0107867
0.0108801
0.0109759
0.0110722
0.0111594
0.0113081
0.0032008
0.00333226
0.00355801
0.00380172
0.00405432
0.00429152
0.0045169
0.00471891
0.00490764
0.00508007
0.00524255
0.00539665
0.0055443
0.00568762
0.00582857
0.00596884
0.00611051
0.00625678
0.00640429
0.00655208
0.00669974
0.00684757
0.00699599
0.00714588
0.0072893
0.00742732
0.00756275
0.00769764
0.00783218
0.00796657
0.00810089
0.00823334
0.00836404
0.0084933
0.00862132
0.00874808
0.00887352
0.00899753
0.00911987
0.00924014
0.00935802
0.00947316
0.00958532
0.00969422
0.00979951
0.00990084
0.00999793
0.0100905
0.0101784
0.0102615
0.0103396
0.0104127
0.0104808
0.0105439
0.0106021
0.0106557
0.0107047
0.0107496
0.0107906
0.0108281
0.0108627
0.0108946
0.0109244
0.0109526
0.0109797
0.0110064
0.0110331
0.0110603
0.0110885
0.0111178
0.0111481
0.0111784
0.0112062
0.0112203
0.0112896
0.0084871
0.0110377
0.0116841
0.0126817
0.0131976
0.0131709
0.0130576
0.0130037
0.0128199
0.0124185
0.0119736
0.0114956
0.0110237
0.0105767
0.010166
0.00979745
0.00947731
0.00937197
0.00966958
0.00987672
0.01003
0.0101512
0.0102576
0.0103591
0.0104581
0.0105488
0.0106363
0.0107229
0.010811
0.0109025
0.010999
0.0111019
0.01121
0.0113221
0.0114373
0.0115546
0.0116724
0.0117884
0.0119028
0.0120155
0.0121265
0.0122358
0.0123434
0.0124494
0.0125535
0.0126555
0.012755
0.0128518
0.0129455
0.0130358
0.0131224
0.0132049
0.013283
0.0133567
0.0134255
0.0134895
0.0135486
0.0136031
0.013653
0.0136988
0.0137411
0.0137801
0.0138162
0.0138497
0.0138813
0.0139113
0.0139399
0.0139676
0.0139945
0.0140205
0.014045
0.0140669
0.0140823
0.0140755
0.014133
0.0123561
0.0128733
0.012665
0.0126231
0.0127859
0.0129983
0.0132621
0.013498
0.0137198
0.0138899
0.0140836
0.0142824
0.0144865
0.0146874
0.0148783
0.0150579
0.0152287
0.0153914
0.0155404
0.0156773
0.0158053
0.0159374
0.0161151
0.0163277
0.016545
0.0167394
0.0164833
0.0154518
0.0146311
0.013974
0.0134597
0.0136923
0.0138861
0.0140538
0.0142027
0.0143384
0.0144602
0.0145739
0.0146836
0.0147926
0.0149025
0.0150144
0.0151287
0.0152463
0.015368
0.0154935
0.0156225
0.0157544
0.0158882
0.0160229
0.0161576
0.0162914
0.0164232
0.0165524
0.0166785
0.0168014
0.0169211
0.017038
0.0171522
0.0172641
0.0173743
0.0174838
0.0175923
0.0176989
0.0178029
0.0179036
0.0180002
0.0180926
0.0181786
0.0182574
0.0183284
0.0183908
0.0184414
0.0184563
0.0185496
0.00978968
0.0100315
0.010261
0.0105385
0.0108502
0.0111139
0.0113912
0.0116383
0.0118943
0.0121519
0.0124156
0.0126911
0.0129873
0.0132948
0.0135892
0.0138675
0.0141454
0.0144138
0.0146799
0.014951
0.0152223
0.0154918
0.0157585
0.0160217
0.0162854
0.0165503
0.0168109
0.0170605
0.017297
0.0175192
0.0177257
0.0179165
0.0180924
0.0182551
0.018407
0.01855
0.0186774
0.0187905
0.0188924
0.0189861
0.019076
0.0191728
0.0192746
0.0193812
0.0194913
0.0196039
0.0197181
0.0198328
0.019947
0.0200596
0.0201697
0.0202768
0.0203803
0.02048
0.0205761
0.0206687
0.0207581
0.0208446
0.0209269
0.0210005
0.0210685
0.0211299
0.0211821
0.0212229
0.0212511
0.0212667
0.0212702
0.021263
0.0212467
0.021223
0.0211938
0.0211608
0.0211254
0.02109
0.0210558
0.00830923
0.00875437
0.00913063
0.00949764
0.00987916
0.0101764
0.0104535
0.0107262
0.0109952
0.0112592
0.0115187
0.0117749
0.012029
0.0122812
0.012526
0.0127618
0.0129906
0.0132161
0.0134435
0.0136766
0.0139166
0.0141632
0.0144156
0.0146782
0.0149473
0.0152207
0.0154964
0.0157716
0.0160437
0.0163059
0.0165467
0.0167726
0.0169877
0.0171946
0.0174067
0.0176162
0.0178196
0.0180169
0.0182077
0.0183924
0.0185713
0.0187451
0.0189143
0.0190793
0.0192406
0.0193983
0.0195526
0.0197035
0.019851
0.019995
0.0201355
0.0202725
0.0204062
0.0205366
0.0206642
0.0207894
0.0209126
0.0210343
0.0211547
0.0212737
0.0213913
0.0215072
0.0216203
0.021729
0.0218319
0.0219276
0.022015
0.0220928
0.0221603
0.0222171
0.0222631
0.0222986
0.022324
0.0223405
0.0223543
0.00735325
0.00771505
0.0080711
0.00833543
0.00912896
0.00947384
0.00975249
0.0100229
0.0102898
0.0105495
0.0108027
0.0110513
0.0112965
0.0115391
0.0117788
0.0120139
0.0122402
0.0124638
0.0126874
0.0129123
0.0131392
0.0133676
0.0135962
0.013824
0.0140506
0.0142754
0.014498
0.014718
0.0149353
0.0151462
0.0153489
0.0155435
0.0157311
0.0159136
0.0160932
0.0162718
0.0164502
0.0166278
0.0168041
0.0169788
0.0171515
0.0173221
0.0174904
0.0176565
0.0178203
0.0179819
0.0181413
0.0182988
0.0184544
0.0186081
0.0187602
0.0189107
0.0190596
0.0192069
0.0193529
0.0194978
0.019642
0.0197857
0.019928
0.0200683
0.0202075
0.0203453
0.0204811
0.0206141
0.0207438
0.0208699
0.020992
0.0211104
0.0212251
0.0213392
0.0214535
0.0215674
0.0216801
0.0217915
0.0219012
0.00834218
0.00844772
0.00878966
0.00922817
0.00926444
0.00940255
0.00956434
0.00973663
0.00985973
0.0100898
0.0102456
0.010408
0.0105834
0.0107731
0.010976
0.0111892
0.0114093
0.0116333
0.0118596
0.0120865
0.0123128
0.0125371
0.0127577
0.0129736
0.0131843
0.0133899
0.0135902
0.0137839
0.0139719
0.0141556
0.0143355
0.0145118
0.0146846
0.0148541
0.0150206
0.0151844
0.0153457
0.0155051
0.0156628
0.0158191
0.0159742
0.0161283
0.0162814
0.0164336
0.0165849
0.0167352
0.0168846
0.0170329
0.0171802
0.0173263
0.017471
0.0176144
0.0177563
0.0178968
0.0180364
0.0181748
0.0183123
0.0184488
0.0185846
0.0187198
0.0188545
0.018989
0.0191232
0.019257
0.0193903
0.0195228
0.0196542
0.019784
0.0199115
0.0200363
0.0201583
0.0202776
0.0203946
0.02051
0.0206248
0.0207334
0.00329592
0.00376142
0.00428052
0.0048811
0.00542436
0.00599221
0.00655134
0.00708735
0.00759187
0.00808368
0.00855533
0.0089996
0.00941283
0.0097888
0.0101274
0.0104477
0.010753
0.0110466
0.0113216
0.0115768
0.0118137
0.0120337
0.0122381
0.0124285
0.0126067
0.0127744
0.0129336
0.0130865
0.0132351
0.0133805
0.0135234
0.0136647
0.0138051
0.0139454
0.0140862
0.0142274
0.0143692
0.0145125
0.0146574
0.0148042
0.0149529
0.0151032
0.0152548
0.0154076
0.015561
0.0157148
0.0158687
0.0160222
0.0161748
0.0163261
0.0164756
0.0166228
0.0167675
0.0169097
0.0170495
0.017187
0.0173223
0.0174556
0.0175871
0.017717
0.0178455
0.0179727
0.0180989
0.0182241
0.0183486
0.0184724
0.0185958
0.0187188
0.0188413
0.0189635
0.0190854
0.0192073
0.0193292
0.0194514
0.0195739
0.0196915
0.00471834
0.00444024
0.00439381
0.00440378
0.00448349
0.00461803
0.00479589
0.00501023
0.00525649
0.00552852
0.00581916
0.00612082
0.00642666
0.00672931
0.00702236
0.00730243
0.00756839
0.007819
0.00806721
0.00831693
0.00856478
0.00881104
0.00905534
0.00929716
0.00953619
0.00977274
0.0100063
0.0102364
0.0104607
0.0106805
0.0108973
0.0111118
0.0113242
0.0115357
0.0117472
0.0119569
0.0121656
0.0123741
0.0125831
0.0127934
0.0130058
0.0132212
0.0134398
0.0136618
0.0138871
0.0141158
0.0143478
0.0145872
0.0148347
0.015081
0.0153239
0.0155626
0.0157462
0.0159069
0.0160628
0.0162143
0.0163621
0.0165064
0.0166477
0.0167863
0.0169226
0.0170567
0.0171891
0.0173198
0.0174492
0.0175773
0.0177045
0.0178309
0.0179566
0.0180818
0.0182067
0.0183313
0.018456
0.018581
0.0187066
0.0188285
0.00924394
0.00901652
0.00886167
0.00818531
0.00764617
0.00726509
0.00699324
0.00679562
0.00666653
0.00658057
0.00663178
0.00670663
0.00680394
0.00692385
0.00706556
0.00722585
0.00739648
0.00757574
0.00774735
0.00790839
0.00805874
0.00819733
0.00832353
0.00843725
0.00853881
0.00863119
0.00871548
0.00880138
0.00889803
0.00900474
0.00912161
0.00924788
0.00938304
0.00952719
0.00967982
0.00983822
0.010001
0.0101684
0.0103405
0.0105172
0.0106987
0.0108834
0.0110714
0.0112627
0.0114569
0.0116541
0.0118542
0.0120576
0.0122644
0.0124743
0.0126874
0.0129034
0.0131225
0.0133443
0.0135688
0.0137956
0.0140248
0.014256
0.0144891
0.0147238
0.0149598
0.015197
0.0154351
0.0156822
0.0159361
0.0161887
0.0164397
0.0166888
0.0169354
0.0171787
0.0174067
0.0175474
0.0176853
0.0178214
0.0179563
0.0180869
0.0133142
0.0130751
0.0128667
0.0126834
0.0125179
0.0123655
0.0122222
0.0120872
0.01196
0.0118409
0.0117298
0.0116281
0.0115362
0.011455
0.0113852
0.0113276
0.0112825
0.0112443
0.0112247
0.0112219
0.0112251
0.0112392
0.0112633
0.0112967
0.0113388
0.0113888
0.0114277
0.0114371
0.0114301
0.0114073
0.0113702
0.0113213
0.011264
0.0112024
0.0111536
0.0111185
0.0110978
0.0110916
0.0110992
0.0111188
0.0111486
0.011188
0.0112372
0.011296
0.0113643
0.0114414
0.0115272
0.0116217
0.0117248
0.0118362
0.0119555
0.0120821
0.0122156
0.0123553
0.0125009
0.0126517
0.0128072
0.012967
0.0131306
0.0132976
0.0134682
0.0136421
0.0138191
0.0139986
0.0141803
0.0143635
0.0145479
0.0147331
0.0149182
0.0151023
0.0152845
0.0154633
0.0156369
0.0158051
0.0160704
0.0167138
0.0165539
0.0164014
0.0162541
0.0161101
0.0159679
0.0158263
0.0156848
0.0155431
0.0154014
0.0152603
0.0151205
0.0149829
0.0148487
0.0147189
0.0145947
0.014477
0.0143669
0.014265
0.0141721
0.0140886
0.0140147
0.0139508
0.0138968
0.0138525
0.0138178
0.0137922
0.0137754
0.013767
0.0137665
0.0137737
0.0137881
0.0138091
0.0138363
0.0138696
0.0139087
0.0139537
0.0140043
0.0140605
0.014122
0.0141865
0.0142535
0.0143232
0.0143956
0.0144705
0.0145491
0.0146312
0.0147168
0.0148015
0.0147214
0.0146475
0.0145809
0.0145221
0.0144713
0.0144289
0.0143949
0.0143697
0.0143531
0.0143453
0.0143463
0.0143556
0.0143732
0.0143989
0.0144326
0.0144737
0.0145218
0.014576
0.0146359
0.0147005
0.0147697
0.0148429
0.0149198
0.015002
0.0150996
0.0152633
0.0186013
0.0185225
0.0184427
0.0183617
0.0182791
0.0181948
0.0181084
0.0180199
0.0179291
0.017836
0.0177409
0.0176439
0.0175453
0.0174455
0.017345
0.0172444
0.0171442
0.017045
0.0169475
0.0168522
0.0167598
0.0166708
0.0165858
0.0165052
0.0164294
0.0163587
0.0162934
0.0162336
0.0161795
0.016131
0.0160882
0.0160511
0.0160197
0.0159938
0.0159734
0.0159582
0.0159483
0.0159434
0.0159435
0.0159482
0.015957
0.01597
0.015987
0.0160079
0.0160328
0.0160599
0.0160894
0.0161213
0.0161557
0.0161931
0.0162335
0.0162769
0.0163233
0.0163728
0.0164252
0.0164807
0.0165391
0.0166006
0.016665
0.0167323
0.0168025
0.0168756
0.0169516
0.0170304
0.0171119
0.0171962
0.0172831
0.0173726
0.0174646
0.0175591
0.0175656
0.0174823
0.0174156
0.0173903
0.0174234
0.0194095
0.019382
0.0193514
0.0193179
0.0192819
0.0192436
0.0192032
0.0191606
0.019116
0.0190695
0.019021
0.0189706
0.0189185
0.0188645
0.018809
0.0187519
0.0186934
0.0186337
0.0185731
0.0185117
0.0184499
0.0183877
0.0183256
0.0182639
0.0182028
0.0181426
0.0180837
0.0180264
0.0179708
0.0179172
0.0178659
0.0178169
0.0177706
0.017727
0.0176863
0.0176485
0.0176137
0.0175821
0.0175537
0.0175284
0.0175063
0.0174872
0.0174713
0.0174584
0.0174486
0.0174418
0.0174377
0.0174363
0.0174377
0.0174411
0.0174465
0.0174541
0.0174641
0.0174766
0.0174917
0.0175091
0.0175288
0.017551
0.0175755
0.0176025
0.0176319
0.0176639
0.0176985
0.0177356
0.0177754
0.0178178
0.0178628
0.0179106
0.017961
0.0180141
0.0180698
0.0181281
0.0181887
0.0182517
0.0183152
0.0195454
0.019548
0.0195471
0.0195432
0.0195367
0.019528
0.0195173
0.0195049
0.0194909
0.0194754
0.0194584
0.0194399
0.01942
0.0193985
0.0193755
0.0193509
0.0193247
0.0192969
0.0192675
0.0192365
0.019204
0.01917
0.0191347
0.019098
0.0190601
0.0190211
0.0189812
0.0189406
0.0188995
0.0188581
0.0188166
0.0187752
0.0187342
0.0186937
0.018654
0.0186151
0.0185774
0.0185409
0.0185058
0.0184722
0.0184403
0.0184101
0.0183819
0.0183555
0.0183312
0.018309
0.0182889
0.0182708
0.0182547
0.0182407
0.0182287
0.0182185
0.01821
0.0182029
0.0181975
0.0181936
0.0181914
0.0181907
0.0181916
0.018194
0.018198
0.0182036
0.0182108
0.0182197
0.0182302
0.0182423
0.0182563
0.018272
0.0182895
0.018309
0.0183304
0.0183538
0.0183792
0.0184065
0.0184349
0.0193394
0.0193553
0.019368
0.0193781
0.019386
0.019392
0.0193965
0.0193996
0.0194015
0.0194024
0.0194021
0.0194008
0.0193984
0.0193948
0.0193899
0.0193837
0.0193761
0.0193669
0.0193561
0.0193436
0.0193294
0.0193134
0.0192957
0.0192761
0.0192548
0.0192317
0.019207
0.0191807
0.0191528
0.0191236
0.0190932
0.0190618
0.0190295
0.0189965
0.0189631
0.0189294
0.0188957
0.0188621
0.0188288
0.018796
0.0187639
0.0187325