/*--------------------------------*- C++ -*----------------------------------*\
  =========                 |
  \\      /  F ield         | OpenFOAM: The Open Source CFD Toolbox
   \\    /   O peration     | Website:  https://openfoam.org
    \\  /    A nd           | Version:  13
     \\/     M anipulation  |
\*---------------------------------------------------------------------------*/
FoamFile
{
    format      ascii;
    class       volScalarField;
    location    "700";
    object      omega;
}
// * * * * * * * * * * * * * * * * * * * * * * * * * * * * * * * * * * * * * //

dimensions      [0 0 -1 0 0 0 0];

internalField   nonuniform List<scalar> 
173327
(
14.9456
14.891
14.837
14.7837
14.7309
14.6787
14.6272
14.5762
14.5257
14.4758
14.4264
14.3775
14.329
14.281
14.2334
14.1861
14.1392
14.0927
14.0464
14.0003
13.9546
13.9091
13.8637
13.8186
13.7737
13.729
13.6844
13.64
13.5958
13.5517
13.5077
13.4639
13.4203
13.3768
13.3335
13.2903
13.2473
13.2045
13.1619
13.1194
13.0771
13.0351
12.9932
12.9516
12.9102
12.869
12.828
12.7873
12.7468
12.7065
12.6666
12.6269
12.5874
12.5482
12.5093
12.4706
12.4322
12.3941
12.3562
12.3186
12.2812
12.2441
12.2072
12.1706
12.1342
12.098
12.062
12.0262
11.9906
11.9552
11.92
11.885
11.8502
11.8156
11.7811
11.7468
11.7131
14.9475
14.893
14.8391
14.7858
14.7331
14.681
14.6295
14.5786
14.5282
14.4784
14.4291
14.3802
14.3319
14.2839
14.2364
14.1892
14.1424
14.0958
14.0496
14.0037
13.958
13.9125
13.8673
13.8222
13.7774
13.7327
13.6882
13.6438
13.5996
13.5556
13.5117
13.4679
13.4243
13.3809
13.3376
13.2944
13.2514
13.2086
13.166
13.1235
13.0812
13.0391
12.9972
12.9555
12.914
12.8728
12.8318
12.791
12.7504
12.7101
12.67
12.6302
12.5907
12.5514
12.5124
12.4736
12.4351
12.3969
12.3589
12.3212
12.2837
12.2465
12.2096
12.1728
12.1363
12.1001
12.0641
12.0282
11.9926
11.9572
11.922
11.887
11.8522
11.8175
11.7831
11.7488
11.715
14.9511
14.8968
14.843
14.7898
14.7372
14.6853
14.6339
14.5831
14.5329
14.4831
14.4339
14.3852
14.3369
14.2891
14.2416
14.1946
14.1478
14.1014
14.0553
14.0094
13.9638
13.9184
13.8732
13.8282
13.7834
13.7388
13.6943
13.65
13.6059
13.5619
13.518
13.4743
13.4307
13.3872
13.3439
13.3008
13.2578
13.215
13.1723
13.1298
13.0875
13.0454
13.0034
12.9617
12.9202
12.8789
12.8378
12.7969
12.7563
12.7159
12.6758
12.6359
12.5963
12.557
12.5179
12.4791
12.4405
12.4022
12.3641
12.3263
12.2888
12.2515
12.2145
12.1777
12.1411
12.1048
12.0687
12.0329
11.9972
11.9617
11.9265
11.8914
11.8566
11.8219
11.7874
11.7531
11.7193
14.9568
14.9026
14.849
14.7961
14.7437
14.6919
14.6407
14.5901
14.54
14.4904
14.4414
14.3928
14.3446
14.2969
14.2496
14.2026
14.156
14.1096
14.0636
14.0178
13.9722
13.9269
13.8818
13.8369
13.7921
13.7475
13.7031
13.6588
13.6147
13.5707
13.5268
13.4831
13.4395
13.3961
13.3528
13.3096
13.2666
13.2238
13.1811
13.1386
13.0962
13.0541
13.0121
12.9704
12.9288
12.8875
12.8464
12.8055
12.7648
12.7244
12.6842
12.6443
12.6047
12.5653
12.5261
12.4873
12.4486
12.4103
12.3722
12.3344
12.2968
12.2595
12.2224
12.1856
12.149
12.1127
12.0765
12.0406
12.0049
11.9694
11.9341
11.899
11.8641
11.8293
11.7948
11.7604
11.7267
14.965
14.9111
14.8578
14.805
14.7529
14.7014
14.6504
14.6
14.5501
14.5008
14.4519
14.4035
14.3555
14.3079
14.2607
14.2139
14.1674
14.1211
14.0752
14.0295
13.984
13.9387
13.8937
13.8488
13.8041
13.7595
13.7151
13.6709
13.6268
13.5828
13.5389
13.4952
13.4516
13.4082
13.3649
13.3217
13.2787
13.2358
13.1931
13.1505
13.1082
13.066
13.024
12.9822
12.9406
12.8992
12.858
12.8171
12.7764
12.736
12.6957
12.6558
12.6161
12.5767
12.5375
12.4986
12.4599
12.4215
12.3834
12.3455
12.3079
12.2706
12.2335
12.1966
12.16
12.1236
12.0875
12.0515
12.0158
11.9802
11.9449
11.9098
11.8748
11.8401
11.8055
11.7711
11.7373
14.9763
14.9227
14.8697
14.8173
14.7655
14.7143
14.6636
14.6135
14.5639
14.5147
14.4661
14.4179
14.3701
14.3227
14.2757
14.229
14.1826
14.1365
14.0907
14.0451
13.9997
13.9545
13.9095
13.8646
13.82
13.7754
13.731
13.6868
13.6427
13.5987
13.5548
13.5111
13.4675
13.424
13.3807
13.3374
13.2944
13.2515
13.2087
13.1661
13.1237
13.0814
13.0394
12.9975
12.9559
12.9145
12.8732
12.8323
12.7915
12.751
12.7107
12.6707
12.631
12.5915
12.5523
12.5133
12.4746
12.4362
12.398
12.3601
12.3224
12.2851
12.2479
12.211
12.1744
12.1379
12.1017
12.0657
12.0299
11.9944
11.959
11.9238
11.8888
11.854
11.8194
11.785
11.7512
14.9916
14.9385
14.8859
14.8339
14.7824
14.7315
14.6812
14.6314
14.5821
14.5333
14.4849
14.437
14.3894
14.3422
14.2954
14.2488
14.2026
14.1566
14.1109
14.0653
14.02
13.9749
13.9299
13.8851
13.8405
13.796
13.7516
13.7073
13.6632
13.6192
13.5753
13.5315
13.4878
13.4443
13.4009
13.3576
13.3145
13.2715
13.2287
13.186
13.1435
13.1012
13.0591
13.0172
12.9754
12.9339
12.8926
12.8516
12.8107
12.7701
12.7298
12.6897
12.6499
12.6103
12.571
12.532
12.4933
12.4548
12.4165
12.3786
12.3409
12.3034
12.2662
12.2293
12.1925
12.156
12.1198
12.0837
12.0479
12.0122
11.9768
11.9416
11.9066
11.8717
11.837
11.8026
11.7687
15.0123
14.9596
14.9075
14.8559
14.8049
14.7544
14.7045
14.655
14.6061
14.5576
14.5095
14.4618
14.4145
14.3675
14.3208
14.2744
14.2283
14.1825
14.1368
14.0914
14.0461
14.001
13.9561
13.9113
13.8666
13.8221
13.7777
13.7334
13.6892
13.6451
13.6011
13.5573
13.5136
13.4699
13.4265
13.3831
13.3399
13.2968
13.2538
13.2111
13.1685
13.126
13.0838
13.0417
12.9999
12.9583
12.9169
12.8757
12.8348
12.7941
12.7536
12.7135
12.6735
12.6339
12.5945
12.5554
12.5165
12.4779
12.4396
12.4016
12.3638
12.3262
12.289
12.2519
12.2151
12.1785
12.1422
12.1061
12.0701
12.0344
11.9989
11.9636
11.9285
11.8936
11.8588
11.8243
11.7903
15.04
14.9879
14.9363
14.8853
14.8347
14.7847
14.7352
14.6861
14.6375
14.5893
14.5415
14.494
14.4469
14.4001
14.3536
14.3073
14.2613
14.2155
14.1699
14.1245
14.0792
14.0341
13.9892
13.9443
13.8996
13.855
13.8105
13.7661
13.7218
13.6777
13.6336
13.5896
13.5457
13.502
13.4584
13.4148
13.3715
13.3282
13.2851
13.2422
13.1995
13.1569
13.1145
13.0723
13.0303
12.9885
12.9469
12.9056
12.8645
12.8237
12.7831
12.7428
12.7027
12.6629
12.6234
12.5842
12.5452
12.5065
12.468
12.4299
12.392
12.3543
12.3169
12.2798
12.2428
12.2061
12.1697
12.1334
12.0974
12.0616
12.026
11.9906
11.9553
11.9203
11.8855
11.8508
11.8167
15.0776
15.0261
14.975
14.9245
14.8744
14.8248
14.7757
14.7269
14.6786
14.6307
14.5831
14.5358
14.4889
14.4422
14.3957
14.3495
14.3035
14.2577
14.2121
14.1666
14.1212
14.076
14.031
13.986
13.9411
13.8964
13.8517
13.8072
13.7627
13.7183
13.674
13.6298
13.5858
13.5418
13.4979
13.4542
13.4106
13.3672
13.3238
13.2807
13.2377
13.1949
13.1523
13.1099
13.0677
13.0257
12.9839
12.9424
12.9011
12.86
12.8193
12.7787
12.7385
12.6985
12.6588
12.6194
12.5802
12.5413
12.5027
12.4644
12.4263
12.3885
12.351
12.3137
12.2766
12.2397
12.2031
12.1667
12.1305
12.0946
12.0588
12.0232
11.9879
11.9527
11.9177
11.8829
11.8486
15.1288
15.0779
15.0274
14.9773
14.9276
14.8784
14.8295
14.781
14.7328
14.685
14.6375
14.5902
14.5433
14.4965
14.45
14.4037
14.3575
14.3116
14.2657
14.22
14.1745
14.129
14.0837
14.0384
13.9933
13.9482
13.9033
13.8584
13.8136
13.7689
13.7243
13.6798
13.6354
13.5911
13.5469
13.5028
13.4589
13.4151
13.3715
13.328
13.2847
13.2416
13.1987
13.1559
13.1134
13.0711
13.0291
12.9873
12.9457
12.9044
12.8633
12.8225
12.782
12.7418
12.7018
12.6622
12.6228
12.5837
12.5448
12.5063
12.468
12.4299
12.3922
12.3546
12.3174
12.2803
12.2435
12.2069
12.1705
12.1343
12.0983
12.0625
12.027
11.9916
11.9564
11.9213
11.8869
15.1996
15.1492
15.099
15.0492
14.9997
14.9505
14.9017
14.8531
14.8048
14.7569
14.7091
14.6616
14.6144
14.5673
14.5204
14.4737
14.4271
14.3807
14.3344
14.2882
14.2422
14.1962
14.1504
14.1046
14.059
14.0134
13.9679
13.9225
13.8772
13.832
13.7868
13.7418
13.6969
13.6521
13.6074
13.5629
13.5185
13.4742
13.4301
13.3861
13.3424
13.2988
13.2555
13.2123
13.1694
13.1267
13.0842
13.042
13
12.9583
12.9169
12.8758
12.8349
12.7943
12.754
12.714
12.6743
12.6349
12.5957
12.5568
12.5182
12.4799
12.4419
12.404
12.3665
12.3291
12.292
12.2551
12.2184
12.182
12.1457
12.1096
12.0738
12.0381
12.0026
11.9673
11.9326
15.2993
15.249
15.1988
15.1488
15.099
15.0495
15.0001
14.951
14.9021
14.8534
14.8049
14.7567
14.7086
14.6606
14.6129
14.5653
14.5178
14.4705
14.4233
14.3762
14.3292
14.2824
14.2356
14.189
14.1424
14.096
14.0496
14.0034
13.9572
13.9112
13.8652
13.8194
13.7737
13.7281
13.6827
13.6374
13.5923
13.5473
13.5025
13.4579
13.4135
13.3693
13.3253
13.2815
13.238
13.1947
13.1517
13.1089
13.0664
13.0242
12.9823
12.9406
12.8993
12.8582
12.8174
12.777
12.7368
12.6969
12.6573
12.618
12.579
12.5403
12.5018
12.4636
12.4256
12.3878
12.3503
12.313
12.276
12.2391
12.2024
12.166
12.1297
12.0937
12.0578
12.0221
11.987
15.4439
15.3932
15.3423
15.2914
15.2405
15.1896
15.1388
15.0882
15.0377
14.9873
14.9371
14.8871
14.8372
14.7875
14.738
14.6886
14.6394
14.5904
14.5415
14.4928
14.4442
14.3957
14.3474
14.2992
14.2512
14.2032
14.1555
14.1078
14.0603
14.0129
13.9657
13.9186
13.8717
13.8249
13.7783
13.7319
13.6857
13.6396
13.5938
13.5482
13.5028
13.4576
13.4127
13.368
13.3236
13.2795
13.2356
13.192
13.1488
13.1058
13.0631
13.0207
12.9787
12.9369
12.8955
12.8544
12.8136
12.773
12.7328
12.6929
12.6533
12.614
12.5749
12.5361
12.4976
12.4593
12.4212
12.3833
12.3457
12.3083
12.2711
12.2341
12.1973
12.1607
12.1243
12.0881
12.0524
15.6667
15.6144
15.5615
15.5081
15.4543
15.4004
15.3464
15.2923
15.2383
15.1844
15.1307
15.0771
15.0237
14.9705
14.9176
14.8648
14.8124
14.7601
14.7081
14.6563
14.6047
14.5534
14.5023
14.4514
14.4007
14.3503
14.3001
14.25
14.2002
14.1507
14.1013
14.0521
14.0032
13.9545
13.906
13.8578
13.8098
13.7621
13.7146
13.6674
13.6204
13.5738
13.5274
13.4813
13.4355
13.3901
13.3449
13.3001
13.2556
13.2114
13.1676
13.1241
13.0809
13.0381
12.9956
12.9535
12.9116
12.8701
12.829
12.7881
12.7476
12.7073
12.6673
12.6277
12.5882
12.5491
12.5102
12.4715
12.433
12.3948
12.3567
12.3189
12.2813
12.2439
12.2067
12.1697
12.1333
16.0443
15.9886
15.9313
15.8726
15.813
15.7526
15.6916
15.6304
15.5691
15.5079
15.4468
15.386
15.3254
15.2652
15.2054
15.1459
15.0869
15.0283
14.9702
14.9124
14.8551
14.7982
14.7418
14.6857
14.6301
14.5748
14.52
14.4655
14.4114
14.3577
14.3044
14.2514
14.1988
14.1466
14.0947
14.0432
13.9921
13.9413
13.8909
13.8408
13.7912
13.7419
13.6929
13.6444
13.5962
13.5484
13.501
13.454
13.4074
13.3611
13.3153
13.2698
13.2247
13.18
13.1356
13.0917
13.0481
13.0048
12.9619
12.9194
12.8772
12.8353
12.7938
12.7525
12.7116
12.6709
12.6305
12.5904
12.5505
12.5108
12.4714
12.4321
12.3932
12.3544
12.3159
12.2776
12.2399
16.7981
16.7337
16.6654
16.5938
16.5199
16.4442
16.3673
16.2896
16.2116
16.1335
16.0557
15.9782
15.9011
15.8248
15.7492
15.6745
15.6006
15.5277
15.4557
15.3846
15.3145
15.2453
15.1769
15.1095
15.0429
14.9772
14.9122
14.8481
14.7848
14.7222
14.6603
14.5992
14.5388
14.4791
14.42
14.3616
14.3038
14.2466
14.1901
14.1341
14.0788
14.024
13.9698
13.9161
13.863
13.8104
13.7583
13.7068
13.6558
13.6052
13.5552
13.5057
13.4566
13.408
13.3599
13.3122
13.2649
13.2181
13.1717
13.1257
13.0801
13.0349
12.99
12.9456
12.9015
12.8577
12.8143
12.7712
12.7284
12.6859
12.6437
12.6018
12.5602
12.5188
12.4777
12.4368
12.3967
18.6392
18.5447
18.4403
18.3282
18.2102
18.0881
17.9633
17.837
17.7103
17.5838
17.4583
17.3341
17.2116
17.091
16.9726
16.8565
16.7428
16.6315
16.5226
16.4162
16.3122
16.2104
16.1109
16.0136
15.9186
15.8257
15.7348
15.646
15.5591
15.4741
15.3909
15.3094
15.2295
15.1513
15.0745
14.9991
14.9252
14.8526
14.7812
14.7111
14.6421
14.5742
14.5074
14.4417
14.3768
14.313
14.25
14.1879
14.1266
14.0661
14.0063
13.9473
13.889
13.8314
13.7745
13.7182
13.6625
13.6074
13.5529
13.499
13.4456
13.3928
13.3405
13.2887
13.2375
13.1867
13.1364
13.0866
13.0373
12.9884
12.94
12.892
12.8445
12.7974
12.7508
12.7045
12.6593
23.6087
23.3564
23.086
22.8031
22.5127
22.2189
21.9249
21.6333
21.3462
21.0649
20.7906
20.5239
20.2652
20.0149
19.7731
19.5396
19.3145
19.0975
18.8883
18.6868
18.4927
18.3057
18.1256
17.952
17.7848
17.6235
17.468
17.318
17.1732
17.0333
16.898
16.7673
16.6407
16.518
16.3992
16.2838
16.1717
16.0627
15.9566
15.8533
15.7526
15.6543
15.5583
15.4645
15.3728
15.283
15.1949
15.1086
15.0238
14.9405
14.8587
14.7782
14.6989
14.6209
14.5441
14.4683
14.3936
14.32
14.2473
14.1756
14.1049
14.0351
13.9662
13.8982
13.8311
13.7648
13.6995
13.635
13.5714
13.5086
13.4467
13.3856
13.3254
13.266
13.2074
13.1504
37.0368
36.3174
35.5542
34.7651
33.9651
33.1654
32.3739
31.5976
30.8416
30.1096
29.4039
28.7259
28.0762
27.455
26.8621
26.2968
25.7585
25.2461
24.7586
24.2951
23.8543
23.4353
23.0369
22.6581
22.2978
21.955
21.6287
21.318
21.022
20.7397
20.4704
20.2132
19.9673
19.7321
19.5068
19.2908
19.0834
18.884
18.6922
18.5073
18.3289
18.1566
17.9899
17.8284
17.6717
17.5194
17.3713
17.2271
17.0864
16.9491
16.8148
16.6834
16.5547
16.4286
16.3048
16.1833
16.0639
15.9465
15.831
15.7175
15.6059
15.4961
15.3881
15.2819
15.1775
15.0748
14.9739
14.8748
14.7775
14.6819
14.5881
14.4961
14.4058
14.3174
14.2307
14.1468
62.3063
60.8809
59.346
57.7421
56.1028
54.454
52.8162
51.205
49.6318
48.1049
46.6296
45.2092
43.8458
42.5403
41.293
40.1032
38.97
37.8921
36.8676
35.8949
34.972
34.0967
33.267
32.4809
31.7361
31.0307
30.3624
29.7292
29.1293
28.5605
28.021
27.5088
27.0224
26.5599
26.1199
25.7008
25.3009
24.9188
24.5533
24.2032
23.8678
23.5458
23.2363
22.9382
22.6505
22.3723
22.1029
21.8414
21.5873
21.3398
21.0984
20.8627
20.6321
20.4061
20.1845
19.967
19.7533
19.5434
19.3371
19.1343
18.9348
18.7385
18.5454
18.3555
18.1686
17.9848
17.8041
17.6266
17.4525
17.2817
17.1144
16.9506
16.7904
16.6339
16.4812
16.3342
93.8559
92.1242
90.092
87.9697
85.7973
83.6031
81.4108
79.2384
77.0987
75.0001
72.9479
70.9455
68.9953
67.0992
65.2589
63.4755
61.7498
60.0827
58.4746
56.9258
55.4365
54.0065
52.6354
51.3224
50.0666
48.8667
47.7213
46.6287
45.587
44.5944
43.6486
42.7474
41.8887
41.0702
40.2898
39.5451
38.8339
38.1539
37.503
36.8789
36.2796
35.703
35.1472
34.6103
34.0904
33.5859
33.0952
32.6167
32.149
31.6909
31.2413
30.799
30.3632
29.933
29.5078
29.087
28.6702
28.2571
27.8475
27.4412
27.0383
26.6389
26.243
25.851
25.4632
25.0798
24.7014
24.3282
23.9607
23.5992
23.2443
22.8964
22.5561
22.2237
21.8998
21.5885
150.608
151.453
151.065
149.723
148.553
147.433
146.18
144.77
143.194
141.399
139.329
137
134.442
131.69
128.783
125.759
122.656
119.509
116.353
113.217
110.124
107.093
104.138
101.27
98.4982
95.8287
93.2648
90.8084
88.4602
86.2197
84.0856
82.0552
80.125
78.2909
76.5484
74.8926
73.3185
71.821
70.3946
69.0339
67.7337
66.4885
65.2933
64.143
63.0327
61.9577
60.9137
59.8963
58.9018
57.9264
56.9667
56.0199
55.083
54.1539
53.2305
52.3112
51.3945
50.4796
49.5657
48.6526
47.74
46.8284
45.918
45.0095
44.1039
43.2022
42.3057
41.4157
40.5339
39.6618
38.8009
37.953
37.1198
36.3032
35.5056
34.7344
300.057
312.565
322.813
328.238
328.802
325.509
319.364
311.519
302.662
293.371
283.951
274.595
265.416
256.474
247.795
239.388
231.246
223.334
215.642
208.183
200.97
194.019
187.341
180.945
174.861
169.096
163.648
158.506
153.658
149.092
144.794
140.752
136.954
133.384
130.028
126.87
123.897
121.094
118.448
115.944
113.572
111.318
109.171
107.12
105.154
103.264
101.441
99.6754
97.9593
96.2853
94.6463
93.0358
91.4483
89.8784
88.3216
86.774
85.2323
83.6936
82.1557
80.6171
79.0765
77.5332
75.9873
74.4388
72.8887
71.3379
69.7881
68.241
66.699
65.1644
63.6404
62.1302
60.6384
59.172
57.7427
328.089
199.611
153.39
137.563
132.028
129.851
129.561
129.435
130.16
131.935
134.783
138.686
143.585
149.406
156.082
163.538
171.608
178.536
182.201
183.979
184.607
184.488
183.861
182.879
181.392
179.325
176.908
174.291
171.544
168.722
165.862
162.968
160.065
157.176
154.318
151.507
148.754
146.069
143.458
140.924
138.468
136.088
133.782
131.547
129.379
127.273
125.225
123.228
121.28
119.373
117.505
115.67
113.865
112.084
110.325
108.585
106.86
105.147
103.445
101.752
100.065
98.3837
96.7059
95.031
93.3585
91.688
90.0194
88.3531
86.6897
85.0302
83.3764
81.7308
80.0974
78.4853
76.907
128.46
116.029
113.066
110.948
109.28
107.209
104.98
102.337
99.775
97.2526
95.2546
93.5384
92.1075
90.912
89.8829
89.0229
88.3727
87.9106
87.5209
87.1743
86.8704
86.6667
86.9171
87.5851
89.0864
91.5632
94.5865
97.9018
101.408
105.01
108.601
111.378
113.491
115.052
116.154
116.869
117.187
117.169
116.883
116.383
115.711
114.905
113.994
113.001
111.945
110.842
109.705
108.544
107.368
106.184
104.997
103.814
102.636
101.468
100.311
99.1664
98.0363
96.921
95.8208
94.7356
93.6652
92.6088
91.5654
90.5335
89.5112
88.4966
87.4876
86.4822
85.4787
84.4757
83.472
82.467
81.4607
80.4582
79.4637
119.061
119.547
119.457
118.524
116.136
113.014
109.188
105.783
102.601
99.5731
96.6882
93.985
91.5183
89.2712
87.0515
84.8753
82.963
81.2028
79.6246
78.2435
77.0298
75.9609
75.0092
74.1473
73.4052
72.801
72.3169
71.9274
71.6213
71.3849
71.2
71.0514
70.919
70.7883
70.655
70.5158
70.4516
70.4438
70.4554
70.4605
70.4511
70.4675
70.4877
70.5026
70.5033
70.4841
70.4421
70.376
70.2859
70.1733
70.0411
69.8934
69.7349
69.5714
69.4092
69.2551
69.1162
68.9993
68.9019
68.8053
68.7273
68.6724
68.6354
68.6111
68.5943
68.5808
68.5651
68.54
68.5013
68.4456
68.3712
68.2766
68.1607
68.026
67.8616
145.952
145.473
142.995
139.822
135.355
130.946
126.648
122.647
118.851
115.219
111.74
108.419
105.257
102.253
99.3828
96.633
94.0007
91.4957
89.1325
86.9187
84.8525
82.9283
81.1404
79.5051
78.0093
76.647
75.4106
74.2858
73.2587
72.2887
71.2989
70.321
69.375
68.4737
67.6951
66.9915
66.3377
65.7264
65.1505
64.604
64.0817
63.5801
63.0955
62.6255
62.168
61.721
61.2828
60.8521
60.428
60.0099
59.5975
59.1908
58.7902
58.3964
58.0103
57.6336
57.2678
56.9146
56.5756
56.2515
55.9439
55.6538
55.3811
55.1246
54.8831
54.6555
54.4428
54.2491
54.0769
53.9282
53.8039
53.7046
53.6307
53.5836
53.5818
169.618
167.92
165.002
162.255
156.989
151.635
146.631
142
137.61
133.383
129.326
125.455
121.78
118.304
115.023
111.915
108.906
106.052
103.369
100.858
98.521
96.349
94.3242
92.432
90.6602
88.9976
87.4311
85.9492
84.5431
83.1971
81.9004
80.648
79.438
78.2707
77.1486
76.0736
75.0437
74.0548
73.1032
72.1851
71.2972
70.4369
69.6014
68.7886
67.9967
67.224
66.4691
65.7311
65.009
64.3023
63.6102
62.9323
62.2683
61.616
60.9762
60.3494
59.7361
59.1366
58.5461
57.9612
57.3859
56.8196
56.2613
55.71
55.1645
54.6245
54.09
53.5616
53.0409
52.5389
52.0598
51.6036
51.1695
50.7572
50.3812
140.084
159.191
173.695
182.045
178.76
176.184
173.397
170.75
168.072
164.42
159.967
155.311
150.687
146.208
141.934
137.881
134.047
130.415
126.99
123.781
120.783
117.989
115.386
112.959
110.693
108.572
106.579
104.68
102.863
101.129
99.4693
97.8765
96.3426
94.8609
93.4251
92.0301
90.6714
89.3458
88.0506
86.784
85.5445
84.3309
83.1423
81.9781
80.8376
79.7201
78.6256
77.5539
76.5045
75.4771
74.4716
73.4875
72.5246
71.5825
70.6608
69.7592
68.8776
68.0157
67.1732
66.3498
65.545
64.7585
63.9898
63.2384
62.5036
61.7845
61.0802
60.3896
59.7108
59.0426
58.3837
57.7336
57.0917
56.4579
55.8337
55.2136
319.106
327.412
330.059
325.956
317.659
306.388
293.204
278.859
264.512
250.741
237.897
226.132
215.466
205.85
197.138
189.221
181.999
175.397
169.365
163.846
158.776
154.094
149.75
145.701
141.909
138.343
134.974
131.783
128.751
125.864
123.11
120.479
117.962
115.55
113.236
111.006
108.856
106.784
104.787
102.861
101.003
99.2081
97.4728
95.7938
94.1679
92.592
91.0637
89.5811
88.1423
86.7458
85.3903
84.0747
82.798
81.5594
80.3578
79.1923
78.0619
76.9656
75.9024
74.8712
73.8711
72.9008
71.9594
71.0457
70.1586
69.2972
68.4604
67.6469
66.8554
66.0848
65.3334
64.5995
63.8817
63.179
62.4908
61.8133
146.243
155.549
163.732
171.158
177.88
183.817
188.852
192.883
195.849
197.732
198.572
198.463
197.531
195.854
193.553
190.784
187.691
184.396
180.959
177.423
173.837
170.241
166.666
163.136
159.67
156.282
152.979
149.717
146.453
143.211
140.007
136.855
133.766
130.752
127.818
124.972
122.215
119.551
116.979
114.499
112.109
109.807
107.59
105.456
103.402
101.425
99.523
97.6914
95.926
94.2255
92.5887
91.0136
89.4982
88.04
86.6367
85.2859
83.9854
82.7329
81.5262
80.3633
79.2422
78.1612
77.1185
76.1123
75.1409
74.2026
73.2957
72.4189
71.5709
70.7503
69.9563
69.1876
68.4433
67.7225
67.0249
66.3467
61.6804
64.7012
67.4079
69.9388
72.4239
74.9406
77.5216
80.1735
82.8755
85.5975
88.2342
90.7478
93.0998
95.2524
97.173
98.8372
100.232
101.357
102.221
102.835
103.218
103.393
103.386
103.224
102.93
102.528
102.036
101.506
100.989
100.482
99.9803
99.4828
98.9873
98.4918
97.9894
97.4272
96.8008
96.1172
95.3831
94.6047
93.7874
92.9371
92.059
91.1584
90.2399
89.308
88.3669
87.4203
86.4714
85.5231
84.5779
83.6381
82.706
81.7834
80.8719
79.9729
79.0876
78.217
77.3617
76.5225
75.6998
74.8938
74.1049
73.3317
72.5736
71.831
71.1043
70.3939
69.6997
69.0225
68.3629
67.7214
67.0983
66.4944
65.9116
65.3484
34.5449
35.3781
36.1425
36.8884
37.644
38.4299
39.2548
40.1298
41.0574
42.0361
43.0539
44.1013
45.1642
46.2277
47.2764
48.2958
49.2722
50.1935
51.0492
51.8311
52.5333
53.1526
53.6871
54.137
54.505
54.7955
55.0156
55.1736
55.2768
55.3326
55.3484
55.3309
55.2862
55.2233
55.1921
55.2006
55.2464
55.3269
55.4396
55.5813
55.73
55.883
56.0399
56.1997
56.3614
56.5229
56.6823
56.8373
56.9868
57.1289
57.2615
57.3824
57.4896
57.5817
57.6571
57.7148
57.7539
57.7739
57.7744
57.7555
57.7173
57.6601
57.5847
57.4917
57.382
57.2567
57.117
56.9642
56.7998
56.6254
56.4429
56.2547
56.0633
55.8712
55.6736
24.6216
24.8904
25.1421
25.3854
25.6279
25.8757
26.1335
26.4049
26.6923
26.9973
27.3201
27.6601
28.0153
28.3834
28.7612
29.1453
29.532
29.9174
30.2974
30.6682
31.0261
31.3677
31.6901
31.9908
32.2681
32.5205
32.7471
32.9475
33.1221
33.2715
33.3968
33.4997
33.5837
33.6519
33.7078
33.7548
33.7957
33.8334
33.8702
33.9095
33.971
34.0565
34.1653
34.2962
34.448
34.6129
34.7904
34.9802
35.1805
35.3899
35.6074
35.8321
36.0626
36.2977
36.5359
36.7759
37.0162
37.2553
37.4919
37.7245
37.952
38.173
38.3866
38.5918
38.788
38.9746
39.1514
39.3181
39.4751
39.6227
39.7619
39.8936
40.0185
40.1367
40.2456
21.0685
21.1535
21.2316
21.3052
21.3769
21.4486
21.522
21.5984
21.6789
21.7642
21.8546
21.9504
22.0515
22.1575
22.2681
22.3825
22.5
22.6197
22.7406
22.8615
22.9815
23.0994
23.2142
23.3249
23.4309
23.5314
23.6259
23.7139
23.7953
23.8699
23.9377
23.9991
24.0544
24.104
24.1484
24.1884
24.2247
24.2579
24.2886
24.318
24.3483
24.3804
24.415
24.4528
24.4948
24.5482
24.6127
24.6877
24.7725
24.864
24.9619
25.0662
25.1764
25.2922
25.4133
25.5391
25.6692
25.8029
25.9396
26.0789
26.22
26.3625
26.5058
26.6495
26.793
26.9362
27.0786
27.2201
27.3608
27.5005
27.6387
27.7756
27.9113
28.0457
28.1768
19.7647
19.7852
19.8011
19.8135
19.8234
19.8317
19.8393
19.8468
19.8547
19.8632
19.8727
19.8833
19.8951
19.9079
19.9218
19.9366
19.9521
19.9681
19.9844
20.0007
20.0167
20.032
20.0464
20.0597
20.0716
20.082
20.0908
20.0978
20.1029
20.1063
20.1078
20.1076
20.1059
20.1027
20.0983
20.0929
20.0869
20.0805
20.0741
20.068
20.0623
20.0574
20.0535
20.0509
20.0498
20.0509
20.0553
20.0632
20.0745
20.0916
20.1146
20.143
20.1762
20.2136
20.2548
20.299
20.3459
20.3953
20.4469
20.5005
20.5558
20.6127
20.6709
20.7303
20.7907
20.8521
20.9144
20.9775
21.0416
21.1067
21.1728
21.2398
21.3079
21.3767
21.4449
19.4073
19.405
19.3985
19.3884
19.3754
19.3602
19.3432
19.3248
19.3054
19.2852
19.2644
19.2431
19.2214
19.1993
19.1767
19.1536
19.13
19.1059
19.081
19.0553
19.0288
19.0014
18.973
18.9435
18.9127
18.8808
18.8476
18.8133
18.7779
18.7414
18.704
18.6658
18.627
18.5876
18.5478
18.5078
18.4679
18.4281
18.3886
18.3497
18.3115
18.2741
18.2378
18.2027
18.169
18.1368
18.1061
18.0769
18.0493
18.0235
17.9996
17.9781
17.9596
17.9442
17.9317
17.9218
17.9145
17.9096
17.907
17.9064
17.9078
17.911
17.9159
17.9223
17.9301
17.9392
17.9496
17.9612
17.974
17.988
18.0032
18.0196
18.0371
18.0553
18.0737
19.4696
19.4611
19.4482
19.4313
19.4112
19.3882
19.3629
19.3354
19.3062
19.2755
19.2434
19.21
19.1754
19.1396
19.1028
19.0647
19.0256
18.9852
18.9436
18.9008
18.8566
18.8111
18.7643
18.7162
18.6667
18.6158
18.5637
18.5103
18.4555
18.3996
18.3426
18.2847
18.226
18.1667
18.107
18.0469
17.9867
17.9266
17.8667
17.8071
17.7481
17.6899
17.6324
17.5759
17.5204
17.4661
17.413
17.3613
17.3109
17.2619
17.2145
17.1685
17.1239
17.0808
17.0394
16.9998
16.962
16.9259
16.8914
16.8584
16.8269
16.7967
16.7678
16.74
16.7134
16.6877
16.6631
16.6394
16.6165
16.5946
16.5736
16.5533
16.5338
16.5149
16.4963
19.6494
19.6393
19.6245
19.6056
19.583
19.5572
19.5287
19.4977
19.4646
19.4295
19.3927
19.3543
19.3143
19.2728
19.2298
19.1854
19.1395
19.0922
19.0433
18.993
18.941
18.8876
18.8326
18.776
18.718
18.6584
18.5974
18.535
18.4713
18.4062
18.34
18.2727
18.2045
18.1356
18.0661
17.9962
17.9261
17.856
17.786
17.7163
17.6471
17.5784
17.5105
17.4434
17.3772
17.312
17.2479
17.1849
17.123
17.0623
17.0028
16.9446
16.8876
16.832
16.7776
16.7246
16.673
16.6227
16.5737
16.5258
16.479
16.4333
16.3885
16.3446
16.3015
16.2591
16.2175
16.1766
16.1364
16.0969
16.058
16.0198
15.9821
15.9454
15.9076
19.6222
19.6108
19.5946
19.5743
19.5504
19.5233
19.4934
19.4611
19.4265
19.39
19.3517
19.3118
19.2702
19.2271
19.1826
19.1365
19.089
19.04
18.9894
18.9374
18.8839
18.8288
18.7723
18.7142
18.6548
18.5938
18.5316
18.468
18.4031
18.3371
18.27
18.2021
18.1334
18.0641
17.9945
17.9247
17.8548
17.7851
17.7157
17.6469
17.5786
17.5111
17.4445
17.3789
17.3143
17.2508
17.1886
17.1275
17.0676
17.009
16.9517
16.8958
16.8411
16.7876
16.7356
16.6849
16.6356
16.5876
16.5408
16.4952
16.4505
16.4068
16.364
16.3221
16.2809
16.2404
16.2007
16.1617
16.1235
16.0859
16.049
16.0129
15.9774
15.9429
15.9075
19.3681
19.3561
19.34
19.3202
19.2972
19.2715
19.2434
19.2132
19.1811
19.1474
19.1121
19.0755
19.0375
18.9983
18.9578
18.916
18.873
18.8287
18.7832
18.7363
18.6883
18.6389
18.5884
18.5366
18.4836
18.4294
18.3742
18.3178
18.2606
18.2026
18.1439
18.0847
18.0253
17.9657
17.9061
17.8467
17.7878
17.7294
17.6718
17.615
17.5592
17.5046
17.4511
17.3991
17.3484
17.2993
17.2518
17.2058
17.1613
17.1183
17.0768
17.037
16.9993
16.9634
16.9293
16.897
16.8662
16.8371
16.8093
16.783
16.7578
16.7338
16.7108
16.6889
16.6679
16.6478
16.6286
16.6103
16.5928
16.5762
16.5604
16.5455
16.5313
16.518
16.505
19.2218
19.2129
19.2005
19.1852
19.1673
19.1473
19.1256
19.1024
19.078
19.0526
19.0263
18.9992
18.9713
18.9426
18.9131
18.8829
18.8518
18.8199
18.7871
18.7535
18.7189
18.6834
18.6469
18.6095
18.5712
18.5321
18.4922
18.4519
18.4111
18.37
18.3289
18.2878
18.2471
18.2068
18.1671
18.1283
18.0904
18.0536
18.0182
17.9842
17.9521
17.9216
17.8929
17.866
17.8412
17.8185
17.7982
17.781
17.7669
17.7561
17.7484
17.7437
17.7418
17.7424
17.7453
17.7503
17.7571
17.7656
17.7754
17.7865
17.7987
17.8116
17.8253
17.8396
17.8544
17.8696
17.8853
17.9011
17.9168
17.9326
17.9487
17.9653
17.9824
18.0002
18.0181
19.4593
19.4669
19.4712
19.4728
19.4724
19.4706
19.4677
19.4643
19.4604
19.4563
19.4521
19.4478
19.4433
19.4386
19.4337
19.4285
19.4228
19.4166
19.4096
19.4018
19.3932
19.3838
19.3736
19.3627
19.3511
19.3389
19.3262
19.3133
19.3002
19.2873
19.2747
19.2627
19.2515
19.2416
19.2329
19.2256
19.22
19.2162
19.2145
19.2152
19.2187
19.2261
19.2377
19.2534
19.2744
19.3009
19.3327
19.3696
19.4112
19.4569
19.5063
19.5586
19.6131
19.6687
19.7253
19.7828
19.8408
19.8991
19.9574
20.0155
20.0732
20.1303
20.1867
20.2422
20.2968
20.3506
20.4037
20.4561
20.5081
20.5599
20.612
20.6645
20.7177
20.7714
20.8253
20.5097
20.5599
20.6055
20.6478
20.6881
20.7275
20.7667
20.8062
20.8463
20.8872
20.9288
20.971
21.0136
21.0564
21.099
21.1412
21.1827
21.223
21.262
21.2995
21.3354
21.3696
21.4021
21.4328
21.4619
21.4899
21.5165
21.542
21.5668
21.5911
21.6153
21.6398
21.6649
21.6916
21.7212
21.7548
21.793
21.836
21.8844
21.9394
22.0035
22.0763
22.1571
22.245
22.3385
22.4375
22.5419
22.6514
22.766
22.8851
23.0084
23.1353
23.2653
23.3977
23.532
23.6676
23.8042
23.9409
24.0765
24.21
24.3407
24.468
24.5916
24.7112
24.8267
24.938
25.0451
25.1484
25.2482
25.3449
25.4391
25.5314
25.6224
25.7121
25.8002
23.2674
23.416
23.554
23.6854
23.8134
23.9405
24.0684
24.1978
24.3292
24.4623
24.5967
24.7317
24.8664
25
25.1313
25.2595
25.3835
25.5025
25.6159
25.723
25.8235
25.9171
26.0038
26.0837
26.1573
26.2261
26.2916
26.3546
26.4158
26.4768
26.5388
26.6022
26.668
26.7371
26.8124
26.9025
27.0076
27.1277
27.2627
27.4118
27.5722
27.7436
27.926
28.1191
28.3226
28.5361
28.7589
28.9902
29.2292
29.4754
29.7275
29.9836
30.2415
30.4994
30.7555
31.0079
31.2549
31.4949
31.726
31.9461
32.1548
32.3515
32.5363
32.7089
32.8695
33.0182
33.1554
33.2817
33.3977
33.5043
33.6028
33.6942
33.7798
33.8606
33.9371
30.1191
30.5263
30.8972
31.2453
31.5818
31.9143
32.2465
32.5795
32.9137
33.248
33.5797
33.9062
34.2241
34.5295
34.8189
35.0891
35.3396
35.5686
35.7746
35.9572
36.1164
36.2539
36.3722
36.4737
36.5607
36.6358
36.7013
36.7593
36.8139
36.8933
36.9993
37.1314
37.2893
37.4728
37.6797
37.9021
38.1405
38.3954
38.6672
38.9557
39.2602
39.579
39.9101
40.2515
40.601
40.9564
41.315
41.6743
42.0315
42.3839
42.7289
43.064
43.3868
43.6948
43.9861
44.2588
44.5114
44.7428
44.9522
45.1392
45.3034
45.4442
45.5619
45.6565
45.7288
45.7796
45.81
45.8214
45.8153
45.7938
45.7589
45.7128
45.658
45.5967
45.5282
49.2329
50.4353
51.4856
52.4428
53.3525
54.2382
55.1098
55.969
56.81
57.6208
58.3894
59.1035
59.7457
60.3114
60.7973
61.2022
61.5268
61.7736
61.9469
62.0509
62.0907
62.1205
62.1791
62.2657
62.3791
62.5181
62.6816
62.8689
63.0768
63.276
63.4657
63.6468
63.8198
63.9852
64.1422
64.2903
64.4286
64.5559
64.6712
64.7733
64.8611
64.9343
64.9916
65.0315
65.0528
65.0541
65.0347
64.9937
64.9307
64.8452
64.7371
64.6064
64.4533
64.2782
64.0816
63.8643
63.627
63.3704
63.0952
62.8025
62.4935
62.1696
61.8323
61.4832
61.1234
60.7528
60.3736
59.9881
59.5985
59.2069
58.8156
58.4266
58.0423
57.6651
57.2968
110.829
114.901
118.456
121.68
124.684
127.499
130.13
132.393
134.231
135.658
136.657
137.248
137.546
137.587
137.389
136.976
136.375
135.61
134.704
133.682
132.562
131.309
129.902
128.365
126.721
124.994
123.203
121.362
119.489
117.597
115.697
113.8
111.913
110.046
108.205
106.395
104.622
102.887
101.195
99.5464
97.9431
96.3853
94.8733
93.4065
91.9841
90.6054
89.2692
87.9743
86.7196
85.5027
84.3207
83.1727
82.0576
80.9744
79.9218
78.8986
77.9039
76.9366
75.9962
75.0816
74.192
73.3269
72.4856
71.668
70.8736
70.1019
69.3521
68.6238
67.9167
67.2303
66.5644
65.9189
65.2941
64.6902
64.1053
274.939
282.474