/*--------------------------------*- C++ -*----------------------------------*\
  =========                 |
  \\      /  F ield         | OpenFOAM: The Open Source CFD Toolbox
   \\    /   O peration     | Website:  https://openfoam.org
    \\  /    A nd           | Version:  13
     \\/     M anipulation  |
\*---------------------------------------------------------------------------*/
FoamFile
{
    format      ascii;
    class       volScalarField;
    location    "700";
    object      p;
}
// * * * * * * * * * * * * * * * * * * * * * * * * * * * * * * * * * * * * * //

dimensions      [0 2 -2 0 0 0 0];

internalField   nonuniform List<scalar> 
173327
(
-12.1811
-12.2363
-12.258
-12.2477
-12.2075
-12.1394
-12.0457
-11.9284
-11.7895
-11.631
-11.4548
-11.2629
-11.0574
-10.8403
-10.6131
-10.3775
-10.1348
-9.88655
-9.63392
-9.37814
-9.1202
-8.86096
-8.60114
-8.34143
-8.08245
-7.82471
-7.56872
-7.31493
-7.06384
-6.8159
-6.57143
-6.33067
-6.09379
-5.861
-5.63248
-5.40829
-5.18853
-4.97323
-4.7626
-4.55687
-4.35615
-4.16043
-3.96954
-3.78343
-3.60211
-3.42571
-3.2544
-3.08824
-2.92725
-2.7712
-2.62002
-2.47344
-2.33154
-2.19416
-2.06144
-1.93318
-1.80932
-1.68962
-1.57409
-1.46281
-1.35578
-1.25293
-1.15383
-1.05822
-0.965675
-0.876122
-0.789311
-0.70533
-0.623961
-0.545233
-0.468814
-0.394573
-0.32207
-0.251057
-0.181149
-0.112177
-0.0452331
-12.2224
-12.2764
-12.2964
-12.2842
-12.2418
-12.1713
-12.0752
-11.9554
-11.8141
-11.6532
-11.4747
-11.2806
-11.073
-10.8537
-10.6246
-10.3871
-10.1428
-9.89298
-9.63891
-9.38179
-9.12263
-8.86226
-8.60142
-8.34081
-8.08101
-7.82257
-7.56592
-7.31154
-7.05989
-6.81141
-6.56644
-6.32521
-6.08793
-5.8548
-5.62597
-5.40156
-5.18159
-4.96615
-4.75538
-4.54949
-4.34863
-4.15276
-3.9618
-3.77566
-3.59436
-3.41799
-3.24668
-3.08052
-2.9195
-2.7635
-2.61235
-2.46593
-2.32414
-2.18697
-2.05437
-1.92632
-1.80264
-1.68319
-1.56792
-1.45688
-1.35008
-1.24737
-1.1485
-1.05308
-0.960835
-0.871532
-0.78508
-0.701377
-0.62037
-0.541918
-0.465859
-0.391918
-0.319813
-0.249202
-0.179838
-0.111548
-0.0451736
-12.3056
-12.3569
-12.3736
-12.3576
-12.311
-12.236
-12.1351
-12.0106
-11.8644
-11.6988
-11.5158
-11.3173
-11.1055
-10.8822
-10.6493
-10.4083
-10.1606
-9.90778
-9.65092
-9.39123
-9.12968
-8.86712
-8.60429
-8.34187
-8.08044
-7.82051
-7.56255
-7.30697
-7.05423
-6.80473
-6.55879
-6.31668
-6.0786
-5.84474
-5.61528
-5.39032
-5.1699
-4.95409
-4.74302
-4.53684
-4.33567
-4.13953
-3.94835
-3.76209
-3.58075
-3.40438
-3.23307
-3.06689
-2.90585
-2.74986
-2.59879
-2.45251
-2.31093
-2.17399
-2.04167
-1.91391
-1.79058
-1.67156
-1.55675
-1.44617
-1.33978
-1.23744
-1.13891
-1.04389
-0.952108
-0.863356
-0.777491
-0.694423
-0.614053
-0.536254
-0.460832
-0.387545
-0.316105
-0.246252
-0.177681
-0.1102
-0.0445249
-12.4316
-12.4788
-12.4904
-12.4686
-12.4155
-12.3336
-12.2255
-12.0936
-11.9402
-11.7675
-11.5775
-11.3723
-11.1541
-10.9247
-10.6861
-10.4397
-10.1871
-9.92973
-9.6687
-9.40515
-9.14006
-8.87425
-8.60845
-8.34333
-8.07945
-7.81731
-7.55736
-7.3
-7.04564
-6.79463
-6.54731
-6.30391
-6.06467
-5.82977
-5.59937
-5.37358
-5.15247
-4.9361
-4.72454
-4.51792
-4.31634
-4.11982
-3.92834
-3.74188
-3.56044
-3.38404
-3.21273
-3.04656
-2.88553
-2.72959
-2.57864
-2.43257
-2.29127
-2.15467
-2.02274
-1.89541
-1.77259
-1.65414
-1.53997
-1.43002
-1.32423
-1.22245
-1.12448
-1.03007
-0.938989
-0.85103
-0.766043
-0.683907
-0.604505
-0.527686
-0.453253
-0.380962
-0.310562
-0.241798
-0.174407
-0.1081
-0.043642
-12.6017
-12.6432
-12.6478
-12.6178
-12.5558
-12.4646
-12.3467
-12.2049
-12.0416
-11.8591
-11.6597
-11.4455
-11.2187
-10.9812
-10.7349
-10.4815
-10.2223
-9.95889
-9.69231
-9.42367
-9.1539
-8.88381
-8.61412
-8.34544
-8.07833
-7.81327
-7.55067
-7.29094
-7.03441
-6.78144
-6.53231
-6.28726
-6.04651
-5.81025
-5.57863
-5.35177
-5.12973
-4.91256
-4.70033
-4.49312
-4.291
-4.09401
-3.90215
-3.71542
-3.53382
-3.35734
-3.18602
-3.01988
-2.85891
-2.70308
-2.55231
-2.4065
-2.26556
-2.1294
-1.99797
-1.8712
-1.749
-1.63126
-1.51785
-1.4087
-1.30368
-1.20267
-1.10549
-1.01193
-0.921783
-0.834852
-0.750983
-0.670039
-0.59188
-0.51634
-0.443216
-0.372271
-0.303266
-0.235963
-0.170082
-0.105332
-0.0424652
-12.8181
-12.8519
-12.8473
-12.8067
-12.7332
-12.6296
-12.4991
-12.3445
-12.1685
-11.9736
-11.7623
-11.5366
-11.299
-11.0512
-10.7954
-10.533
-10.2656
-9.99464
-9.72113
-9.44615
-9.17058
-8.89519
-8.62066
-8.34759
-8.07648
-7.80779
-7.54192
-7.27922
-7.02002
-6.76461
-6.51325
-6.26619
-6.02362
-5.78571
-5.5526
-5.32442
-5.10121
-4.88304
-4.66995
-4.46199
-4.25922
-4.06168
-3.86937
-3.68231
-3.50049
-3.32391
-3.15257
-2.98647
-2.82561
-2.66995
-2.51944
-2.37398
-2.23348
-2.09786
-1.96704
-1.84095
-1.71951
-1.6026
-1.4901
-1.38189
-1.27785
-1.17784
-1.08171
-0.989258
-0.900301
-0.814656
-0.732165
-0.652679
-0.576041
-0.502078
-0.430584
-0.36133
-0.294082
-0.228597
-0.164589
-0.101772
-0.0409025
-13.0832
-13.1073
-13.0908
-13.0368
-12.9486
-12.8296
-12.6833
-12.5128
-12.3211
-12.111
-11.8849
-11.6453
-11.3944
-11.1343
-10.8668
-10.5937
-10.3165
-10.0365
-9.75468
-9.47213
-9.18966
-8.90799
-8.62773
-8.34945
-8.07361
-7.80063
-7.53087
-7.26466
-7.00228
-6.74399
-6.49003
-6.24061
-5.9959
-5.75606
-5.52122
-5.29148
-5.0669
-4.84753
-4.6334
-4.42456
-4.22103
-4.02285
-3.83003
-3.64258
-3.4605
-3.28378
-3.11242
-2.94639
-2.78568
-2.63027
-2.48009
-2.33506
-2.19509
-2.0601
-1.93
-1.80472
-1.68417
-1.56823
-1.45677
-1.34967
-1.2468
-1.14803
-1.05319
-0.962113
-0.87461
-0.790513
-0.709667
-0.631911
-0.55708
-0.484995
-0.415452
-0.34823
-0.283095
-0.219793
-0.158029
-0.097529
-0.0390517
-13.4003
-13.4122
-13.3808
-13.31
-13.2036
-13.0657
-12.9
-12.7102
-12.4995
-12.271
-12.0273
-11.771
-11.5044
-11.2297
-10.9487
-10.6631
-10.3743
-10.0837
-9.7923
-9.50098
-9.21053
-8.92159
-8.63475
-8.35048
-8.0692
-7.79129
-7.51707
-7.24682
-6.98079
-6.71921
-6.46227
-6.21015
-5.96301
-5.72097
-5.48416
-5.25265
-5.0265
-4.80576
-4.59044
-4.38057
-4.17618
-3.97728
-3.78389
-3.59601
-3.41364
-3.23676
-3.06536
-2.89943
-2.73892
-2.58381
-2.43404
-2.28953
-2.1502
-2.01594
-1.88669
-1.76234
-1.64281
-1.52799
-1.41774
-1.31193
-1.21044
-1.11312
-1.01982
-0.93036
-0.844572
-0.76229
-0.683357
-0.607608
-0.534873
-0.464971
-0.397703
-0.332854
-0.270189
-0.209441
-0.150312
-0.092537
-0.036869
-13.7736
-13.77
-13.7203
-13.6288
-13.5002
-13.3391
-13.1501
-12.9371
-12.7039
-12.4535
-12.1891
-11.9133
-11.6285
-11.3368
-11.0401
-10.7401
-10.4382
-10.1356
-9.83323
-9.53196
-9.23249
-8.93537
-8.64111
-8.35011
-8.06274
-7.77931
-7.50009
-7.22532
-6.95521
-6.68993
-6.42966
-6.17454
-5.92468
-5.6802
-5.44119
-5.20772
-4.97983
-4.75755
-4.5409
-4.32989
-4.12454
-3.92485
-3.73083
-3.54248
-3.35979
-3.18275
-3.01133
-2.8455
-2.68525
-2.53051
-2.38123
-2.23733
-2.09872
-1.96531
-1.83702
-1.71375
-1.59539
-1.48184
-1.37296
-1.26863
-1.16872
-1.07307
-0.981537
-0.893946
-0.81013
-0.729927
-0.653178
-0.579718
-0.509375
-0.441967
-0.3773
-0.315166
-0.255328
-0.197516
-0.141427
-0.086795
-0.0343593
-14.2079
-14.1853
-14.1128
-13.9959
-13.8403
-13.6515
-13.4346
-13.1941
-12.9342
-12.6585
-12.37
-12.0716
-11.7658
-11.4548
-11.1403
-10.824
-10.5073
-10.1912
-9.87662
-9.56429
-9.2548
-8.94862
-8.64616
-8.34774
-8.05366
-7.76415
-7.47944
-7.1997
-6.9251
-6.65578
-6.39185
-6.13343
-5.8806
-5.63345
-5.39204
-5.15642
-4.92662
-4.70267
-4.48456
-4.27231
-4.06591
-3.86537
-3.67067
-3.48181
-3.29879
-3.12157
-2.95015
-2.78447
-2.62451
-2.4702
-2.32149
-2.17829
-2.04052
-1.90809
-1.78088
-1.65882
-1.54179
-1.42967
-1.32235
-1.21968
-1.12154
-1.02778
-0.938236
-0.852757
-0.771169
-0.693311
-0.619022
-0.548137
-0.480487
-0.41589
-0.354157
-0.295083
-0.238439
-0.183955
-0.13132
-0.080263
-0.0315017
-14.7095
-14.6631
-14.5626
-14.4148
-14.2266
-14.0046
-13.7545
-13.4817
-13.1907
-12.8854
-12.5692
-12.2451
-11.9155
-11.5826
-11.2481
-10.9137
-10.5805
-10.2495
-9.92151
-9.59704
-9.27659
-8.96054
-8.64916
-8.34269
-8.04133
-7.74525
-7.4546
-7.16949
-6.89004
-6.61634
-6.34847
-6.08649
-5.83046
-5.58042
-5.33643
-5.0985
-4.86665
-4.64089
-4.42122
-4.20763
-4.00012
-3.79866
-3.60324
-3.41386
-3.23049
-3.05311
-2.88169
-2.7162
-2.55658
-2.40278
-2.25473
-2.11233
-1.97551
-1.84416
-1.71818
-1.59747
-1.48192
-1.37142
-1.26582
-1.16501
-1.06884
-0.977172
-0.889854
-0.806727
-0.727624
-0.652377
-0.580825
-0.512805
-0.448148
-0.386678
-0.32821
-0.272549
-0.219475
-0.168717
-0.119958
-0.0729202
-0.0282882
-15.2859
-15.2099
-15.075
-14.8896
-14.6622
-14.4005
-14.1112
-13.8005
-13.4734
-13.1341
-12.7863
-12.4329
-12.0765
-11.7191
-11.3625
-11.0081
-10.6568
-10.3096
-9.9669
-9.62929
-9.29703
-8.97034
-8.64939
-8.33429
-8.02515
-7.72205
-7.42505
-7.13422
-6.84961
-6.57124
-6.29915
-6.03338
-5.77393
-5.52082
-5.27407
-5.03368
-4.79966
-4.57199
-4.35067
-4.13566
-3.92696
-3.72454
-3.52838
-3.33845
-3.15474
-2.97721
-2.80583
-2.64057
-2.48135
-2.32813
-2.18082
-2.03933
-1.90357
-1.77343
-1.64881
-1.52961
-1.4157
-1.30698
-1.2033
-1.10454
-1.01056
-0.921214
-0.836349
-0.755813
-0.679444
-0.607071
-0.538529
-0.473659
-0.412296
-0.354267
-0.299397
-0.247505
-0.198379
-0.151748
-0.107294
-0.0647335
-0.0247045
-15.9462
-15.8334
-15.6561
-15.425
-15.1503
-14.8413
-14.506
-14.1511
-13.7822
-13.4039
-13.0201
-12.6338
-12.2474
-11.863
-11.482
-11.1057
-10.7348
-10.37
-10.0116
-9.65993
-9.31508
-8.97709
-8.646
-8.32178
-8.00442
-7.69392
-7.39024
-7.09338
-6.80332
-6.52004
-6.24352
-5.97375
-5.7107
-5.45436
-5.20471
-4.96174
-4.72544
-4.49576
-4.2727
-4.05622
-3.84628
-3.64286
-3.44593
-3.25546
-3.07141
-2.89376
-2.72246
-2.55746
-2.39872
-2.24615
-2.09967
-1.9592
-1.82462
-1.69582
-1.57271
-1.45516
-1.34307
-1.23631
-1.13474
-1.03824
-0.946667
-0.859863
-0.777683
-0.699976
-0.626583
-0.557341
-0.492083
-0.430647
-0.372874
-0.318599
-0.267662
-0.219894
-0.175093
-0.132993
-0.093278
-0.0556679
-0.0207353
-16.702
-16.5433
-16.3137
-16.0269
-15.6955
-15.3304
-14.9407
-14.5343
-14.1173
-13.6945
-13.27
-12.8468
-12.4272
-12.0129
-11.6053
-11.2053
-10.8133
-10.4297
-10.0546
-9.68807
-9.32994
-8.98008
-8.63834
-8.30457
-7.97862
-7.66038
-7.34972
-7.04656
-6.75081
-6.4624
-6.18125
-5.9073
-5.64048
-5.38077
-5.1281
-4.88244
-4.64375
-4.41199
-4.18712
-3.96911
-3.7579
-3.55346
-3.35575
-3.16474
-2.98037
-2.80262
-2.63145
-2.46679
-2.30859
-2.15676
-2.01122
-1.87187
-1.7386
-1.61129
-1.48982
-1.3741
-1.26398
-1.15936
-1.0601
-0.96607
-0.877112
-0.793081
-0.713824
-0.639186
-0.569015
-0.503156
-0.441447
-0.383726
-0.329838
-0.279628
-0.232953
-0.189658
-0.149554
-0.112389
-0.0778543
-0.0456817
-0.0163548
-17.5666
-17.3503
-17.0561
-16.7015
-16.3018
-15.8701
-15.4168
-14.9506
-14.4782
-14.0049
-13.5346
-13.0702
-12.6139
-12.167
-11.7305
-11.3049
-10.8905
-10.487
-10.0944
-9.71226
-9.34031
-8.97814
-8.6254
-8.28177
-7.94697
-7.62076
-7.30292
-6.99328
-6.69167
-6.39796
-6.11203
-5.83377
-5.56308
-5.29987
-5.04408
-4.79563
-4.55449
-4.32058
-4.09386
-3.87427
-3.66176
-3.45628
-3.25779
-3.06624
-2.88158
-2.70377
-2.53277
-2.36851
-2.21093
-2.05994
-1.91544
-1.77733
-1.64549
-1.51981
-1.40016
-1.28641
-1.17846
-1.07617
-0.979401
-0.888027
-0.801898
-0.720863
-0.644763
-0.573441
-0.506742
-0.444518
-0.38662
-0.332896
-0.283191
-0.237358
-0.195267
-0.156784
-0.121739
-0.0899053
-0.0609903
-0.0347586
-0.0115527
-18.5587
-18.2697
-17.8954
-17.4581
-16.9762
-16.4652
-15.9372
-15.4016
-14.8657
-14.3349
-13.8132
-13.3032
-12.8066
-12.3243
-11.8568
-11.404
-10.9657
-10.5413
-10.1304
-9.73207
-9.3458
-8.97092
-8.60684
-8.25304
-7.90911
-7.57468
-7.24943
-6.9331
-6.62545
-6.32629
-6.03544
-5.75273
-5.47804
-5.21125
-4.95225
-4.70096
-4.45729
-4.22119
-3.99258
-3.7714
-3.55759
-3.35109
-3.15183
-2.95978
-2.77488
-2.59707
-2.42632
-2.26254
-2.10568
-1.95562
-1.81229
-1.67555
-1.54529
-1.42139
-1.30372
-1.19214
-1.08654
-0.986772
-0.892709
-0.804205
-0.721115
-0.643285
-0.570561
-0.502784
-0.439799
-0.381456
-0.327615
-0.278138
-0.232888
-0.191735
-0.154563
-0.121247
-0.091634
-0.0655279
-0.0426562
-0.0228387
-0.00627302
-19.6987
-19.3175
-18.8438
-18.3053
-17.7244
-17.1189
-16.5027
-15.8863
-15.2774
-14.6815
-14.1021
-13.5417
-13.0012
-12.4809
-11.9803
-11.4988
-11.0357
-10.5898
-10.1601
-9.74538
-9.34466
-8.95701
-8.58161
-8.21773
-7.86471
-7.52205
-7.18933
-6.86622
-6.55243
-6.24771
-5.95182
-5.66457
-5.38578
-5.1153
-4.853
-4.59877
-4.35251
-4.11414
-3.88357
-3.66074
-3.44557
-3.23801
-3.03798
-2.84543
-2.66031
-2.48255
-2.3121
-2.14888
-1.99282
-1.84381
-1.70176
-1.56653
-1.438
-1.31604
-1.20051
-1.09129
-0.988231
-0.891203
-0.800063
-0.714665
-0.634855
-0.560475
-0.491368
-0.427376
-0.368346
-0.314131
-0.264595
-0.219607
-0.17905
-0.142818
-0.110819
-0.0829612
-0.0591224
-0.0391272
-0.0227302
-0.00974519
-0.000349362
-21.0218
-20.5235
-19.9256
-19.2628
-18.5619
-17.8433
-17.1229
-16.4123
-15.7194
-15.0494
-14.4054
-13.7889
-13.2
-12.6381
-12.1021
-11.5903
-11.1011
-10.6327
-10.1835
-9.75185
-9.33627
-8.93556
-8.54861
-8.17446
-7.81224
-7.46126
-7.121
-6.79104
-6.47106
-6.16074
-5.85979
-5.56797
-5.28505
-5.01086
-4.74525
-4.48807
-4.23923
-3.99862
-3.76616
-3.54177
-3.32534
-3.11679
-2.91606
-2.72308
-2.5378
-2.36017
-2.19011
-2.02755
-1.8724
-1.72457
-1.58393
-1.45036
-1.32372
-1.20387
-1.09066
-0.983966
-0.883636
-0.789531
-0.701508
-0.619417
-0.543102
-0.472401
-0.407152
-0.347193
-0.29237
-0.242537
-0.197561
-0.15732
-0.121708
-0.0906369
-0.0640362
-0.0418511
-0.0240157
-0.0104168
-0.000879715
0.00479257
0.00641898
-21.9028
-21.1518
-20.3377
-19.4918
-18.6381
-17.7945
-16.9739
-16.1841
-15.4299
-14.7137
-14.0358
-13.3952
-12.7899
-12.2175
-11.6751
-11.16
-10.6696
-10.2014
-9.75319
-9.32311
-8.90947
-8.51088
-8.12617
-7.7544
-7.39478
-7.04671
-6.70969
-6.38329
-6.06716
-5.76095
-5.46437
-5.17716
-4.89912
-4.63005
-4.3698
-4.11824
-3.87528
-3.64086
-3.41483
-3.19711
-2.98756
-2.78611
-2.59272
-2.40732
-2.22986
-2.06026
-1.89845
-1.74433
-1.5978
-1.45872
-1.32696
-1.20238
-1.08484
-0.974177
-0.870251
-0.772913
-0.682008
-0.597379
-0.518863
-0.446299
-0.379528
-0.318384
-0.262705
-0.212335
-0.167125
-0.126945
-0.0916788
-0.061232
-0.0355317
-0.0145337
0.00177982
0.0134235
0.0204402
0.0229106
0.0209129
0.0142848
-23.5077
-22.5647
-21.5647
-20.543
-19.5273
-18.5387
-17.5905
-16.6895
-15.8393
-15.0409
-14.2934
-13.5945
-12.9407
-12.328
-11.7523
-11.2096
-10.6961
-10.2085
-9.74382
-9.29946
-8.87326
-8.46345
-8.0686
-7.68759
-7.31953
-6.96372
-6.61963
-6.28678
-5.96477
-5.65323
-5.35183
-5.06028
-4.77834
-4.50578
-4.24243
-3.98815
-3.74282
-3.50631
-3.27853
-3.05937
-2.84878
-2.64664
-2.45291
-2.26749
-2.09033
-1.92135
-1.76044
-1.60752
-1.46246
-1.32513
-1.19539
-1.07309
-0.958066
-0.850172
-0.749251
-0.655152
-0.567717
-0.486767
-0.412122
-0.343611
-0.281071
-0.224335
-0.173237
-0.127615
-0.0873182
-0.0522152
-0.0221934
0.00283488
0.0229218
0.038082
0.0483015
0.0535554
0.0538206
0.0490673
0.039181
0.0239493
-25.3688
-24.1788
-22.9422
-21.6989
-20.481
-19.3157
-18.2175
-17.1914
-16.2381
-15.3558
-14.5402
-13.7858
-13.0866
-12.4364
-11.8294
-11.2603
-10.7245
-10.2178
-9.73657
-9.27775
-8.83873
-8.41739
-8.01207
-7.62144
-7.24451
-6.88051
-6.52887
-6.18911
-5.86079
-5.54348
-5.2368
-4.94043
-4.65408
-4.37753
-4.11059
-3.85312
-3.60501
-3.36613
-3.13637
-2.91562
-2.7038
-2.50084
-2.30665
-2.12116
-1.94428
-1.77592
-1.61598
-1.46434
-1.32089
-1.18548
-1.05796
-0.938148
-0.825882
-0.72098
-0.623275
-0.5326
-0.448782
-0.37165
-0.301029
-0.236747
-0.178626
-0.12649
-0.0801648
-0.039486
-0.004302
0.0255242
0.0501141
0.0695651
0.0839214
0.0931794
0.0973033
0.0962428
0.0899263
0.0782107
0.0607117
0.0370242
-27.5986
-26.1103
-24.5829
-23.0662
-21.6071
-20.2336
-18.9514
-17.7644
-16.6757
-15.6835
-14.7809
-13.9591
-13.2082
-12.5182
-11.8802
-11.2865
-10.7307
-10.2071
-9.71131
-9.2395
-8.78869
-8.35647
-7.941
-7.54088
-7.15506
-6.78279
-6.42361
-6.07709
-5.74275
-5.42007
-5.10855
-4.80779
-4.51743
-4.23723
-3.96704
-3.70673
-3.45617
-3.21526
-2.98387
-2.76186
-2.5491
-2.34555
-2.15114
-1.9658
-1.78943
-1.62194
-1.46321
-1.31312
-1.17152
-1.03826
-0.913174
-0.796093
-0.68684
-0.585236
-0.491095
-0.404225
-0.324426
-0.251506
-0.185283
-0.125574
-0.0721963
-0.0249652
0.0162962
0.0517544
0.0815646
0.105871
0.124798
0.13845
0.146909
0.150217
0.148382
0.141371
0.129106
0.111373
0.0876011
0.0570887
-30.1289
-28.233
-26.3261
-24.413
-22.6533
-21.0822
-19.6534
-18.3469
-17.1569
-16.0772
-15.0996
-14.2152
-13.4127
-12.6802
-12.0075
-11.3855
-10.8062
-10.2627
-9.74927
-9.26151
-8.79582
-8.34944
-7.92034
-7.50709
-7.10858
-6.72411
-6.35354
-5.99663
-5.65289
-5.32165
-5.00234
-4.6944
-4.3974
-4.1111
-3.83537
-3.57014
-3.31528
-3.07063
-2.83604
-2.61139
-2.39656
-2.19149
-1.99611
-1.81033
-1.63402
-1.46705
-1.30929
-1.16059
-1.02077
-0.889644
-0.767014
-0.652696
-0.546518
-0.448304
-0.357847
-0.274927
-0.199322
-0.13082
-0.0692123
-0.0142974
0.0341191
0.0762223
0.112193
0.14221
0.166455
0.185099
0.198273
0.20607
0.208608
0.206007
0.198393
0.185893
0.168639
0.146734
0.12011
0.0896922
-30.6235
-28.4123
-25.9988
-23.7646
-21.8213
-20.1214
-18.6387
-17.3424
-16.201
-15.1885
-14.2866
-13.4751
-12.7365
-12.0583
-11.4309
-10.8458
-10.2961
-9.77629
-9.28167
-8.80844
-8.35371
-7.91555
-7.49287
-7.08438
-6.68955
-6.30944
-5.94423
-5.59311
-5.25505
-4.92933
-4.61524
-4.31222
-4.02013
-3.73902
-3.46885
-3.20936
-2.96032
-2.72155
-2.49295
-2.27459
-2.06652
-1.86871
-1.68107
-1.50347
-1.33573
-1.17769
-1.0292
-0.890063
-0.760059
-0.638972
-0.526589
-0.422716
-0.327168
-0.239725
-0.160135
-0.0881506
-0.0235384
0.0339275
0.08447
0.128293
0.165576
0.196494
0.221249
0.240064
0.253147
0.260671
0.262791
0.259669
0.251504
0.238566
0.22129
0.200377
0.176974
0.153133
0.137321
-30.4545
-28.4714
-26.6679
-24.7427
-22.7921
-20.9648
-19.3207
-17.8752
-16.6089
-15.4994
-14.5323
-13.6765
-12.9078
-12.2091
-11.5674
-10.9737
-10.4193
-9.89374
-9.39016
-8.90574
-8.43802
-7.98577
-7.54864
-7.12327
-6.7104
-6.31446
-5.93626
-5.57378
-5.22504
-4.88941
-4.5661
-4.25464
-3.95502
-3.66752
-3.39216
-3.12846
-2.87599
-2.63418
-2.40267
-2.1815
-1.97077
-1.77057
-1.58099
-1.40196
-1.23334
-1.07498
-0.926662
-0.788126
-0.659107
-0.539351
-0.428589
-0.326635
-0.233333
-0.148406
-0.0715222
-0.00239776
0.0591995
0.113496
0.160714
0.201034
0.234602
0.261557
0.282129
0.296611
0.305236
0.308187
0.305648
0.297823
0.28499
0.267598
0.246464
0.223026
0.199867
0.182185
0.189221
-31.6449
-29.142
-27.076
-25.0384
-23.054
-21.205
-19.5345
-18.0531
-16.7451
-15.6017
-14.6119
-13.7355
-12.9477
-12.2305
-11.5715
-10.9602
-10.3874
-9.84549
-9.32917
-8.83587
-8.3643
-7.91402
-7.48439
-7.0772
-6.68722
-6.30428
-5.92701
-5.55965
-5.20571
-4.86542
-4.53906
-4.22618
-3.92553
-3.6362
-3.35766
-3.08989
-2.83284
-2.58681
-2.3522
-2.12887
-1.91635
-1.71411
-1.52192
-1.34011
-1.16896
-1.00854
-0.858715
-0.719121
-0.589429
-0.469279
-0.358276
-0.256375
-0.16361
-0.0796716
-0.00412032
0.0633851
0.12308
0.175212
0.220025
0.257686
0.288278
0.311853
0.328796
0.339657
0.344718
0.344123
0.338007
0.326556
0.31006
0.289069
0.264692
0.238865
0.215201
0.201229
0.224344
-32.0957
-29.5072
-27.1469
-24.9626
-22.9288
-21.0752
-19.423
-17.961
-16.6862
-15.5744
-14.6003
-13.7346
-12.9544
-12.2419
-11.5845
-10.9726
-10.3992
-9.85817
-9.3445
-8.85399
-8.38462
-7.93539
-7.50433
-7.08967
-6.68783
-6.29513
-5.91096
-5.53798
-5.17833
-4.8323
-4.50024
-4.18194
-3.87663
-3.58382
-3.30334
-3.03494
-2.77844
-2.53362
-2.30002
-2.07702
-1.86432
-1.66185
-1.4697
-1.28797
-1.11681
-0.956526
-0.807068
-0.66817
-0.539488
-0.420771
-0.311835
-0.212135
-0.121002
-0.0381472
0.036552
0.103249
0.162169
0.213536
0.257518
0.29439
0.324511
0.348153
0.365403
0.376241
0.380803
0.37929
0.371889
0.358799
0.340105
0.316313
0.288697
0.259274
0.231694
0.214104
0.233683
-31.5008
-28.5863
-25.9989
-23.7837
-21.8259
-20.0885
-18.586
-17.2737
-16.1276
-15.1216
-14.2304
-13.4303
-12.7022
-12.0318
-11.4093
-10.8275
-10.2794
-9.75948
-9.26265
-8.78413
-8.32271
-7.87827
-7.45035
-7.03717
-6.63625
-6.24594
-5.86608
-5.49767
-5.14136
-4.79765
-4.46702
-4.14936
-3.84426
-3.55141
-3.27067
-3.00174
-2.74441
-2.49841
-2.26342
-2.03905
-1.82514
-1.62182
-1.42919
-1.24716
-1.07564
-0.914818
-0.764644
-0.624937
-0.49534
-0.37549
-0.265137
-0.163823
-0.0710287
0.0134251
0.0895435
0.157441
0.217405
0.269696
0.314493
0.352033
0.38275
0.407113
0.425028
0.436101
0.440278
0.43767
0.428387
0.412452
0.390032
0.361759
0.328906
0.293276
0.257183
0.22641
0.221661
-31.6544
-28.2081
-25.0541
-22.3378
-20.1859
-18.4649
-17.0621
-15.8926
-14.9009
-14.0465
-13.2981
-12.6289
-12.0189
-11.4535
-10.9218
-10.4158
-9.9301
-9.46136
-9.00624
-8.56245
-8.12991
-7.7092
-7.3004
-6.90256
-6.51463
-6.1359
-5.76612
-5.40588
-5.05548
-4.71615
-4.38925
-4.07484
-3.77293
-3.48305
-3.20428
-2.93628
-2.67938
-2.43376
-2.1991
-1.97513
-1.76187
-1.55935
-1.36736
-1.18584
-1.01493
-0.854563
-0.704593
-0.56483
-0.434971
-0.314738
-0.203887
-0.102118
-0.00914956
0.075183
0.151009
0.218507
0.277889
0.329395
0.373243
0.409623
0.438827
0.461202
0.476901
0.485911
0.488293
0.484137
0.473489
0.456363
0.432744
0.402737
0.366974
0.326508
0.282252
0.236374
0.198434
-35.809
-33.2922
-29.7378
-26.0816
-22.8387
-20.3245
-18.3776
-16.8146
-15.519
-14.4315
-13.5109
-12.7243
-12.0423
-11.4377
-10.8895
-10.3823
-9.9058
-9.45374
-9.01897
-8.59414
-8.17773
-7.77094
-7.37503
-6.98975
-6.61434
-6.24822
-5.89068
-5.54102
-5.19964
-4.86746
-4.54533
-4.23375
-3.93269
-3.64201
-3.36142
-3.09019
-2.82818
-2.57584
-2.33366
-2.10193
-1.88069
-1.67001
-1.46993
-1.28039
-1.10129
-0.932631
-0.774252
-0.625941
-0.487499
-0.35875
-0.2395
-0.129564
-0.0287369
0.0632074
0.146482
0.221286
0.287825
0.346213
0.396562
0.439113
0.474094
0.501576
0.521674
0.53461
0.540598
0.53987
0.532621
0.519014
0.49891
0.472055
0.438471
0.398106
0.35104
0.297515
0.237959
0.173438
-35.6166
-32.7092
-29.3383
-25.9409
-23.0157
-20.7249
-18.8901
-17.3329
-15.976
-14.7952
-13.7666
-12.8666
-12.0762
-11.3766
-10.7506
-10.1853
-9.67138
-9.20619
-8.77295
-8.34956
-7.93366
-7.52783
-7.13269
-6.74765
-6.37241
-6.00715
-5.65212
-5.3069
-4.97076
-4.64397
-4.32729
-4.02136
-3.72596
-3.44077
-3.1655
-2.8997
-2.64326
-2.39662
-2.16033
-1.9347
-1.71976
-1.51555
-1.32204
-1.13902
-0.966261
-0.803636
-0.650967
-0.508019
-0.3745
-0.250163
-0.134916
-0.0287312
0.068532
0.157075
0.237108
0.308834
0.372403
0.427932
0.47556
0.515476
0.547856
0.572788
0.590312
0.600525
0.603558
0.599492
0.588346
0.570119
0.544802
0.512381
0.472772
0.425766
0.371043
0.307905
0.234799
0.149448
-32.673
-30.0756
-27.3356
-24.6365
-22.2117
-20.1523
-18.4123
-16.9258
-15.6535
-14.5634
-13.6223
-12.7995
-12.0722
-11.4193
-10.8204
-10.2619
-9.73417
-9.22104
-8.71723
-8.23198
-7.76729
-7.32196
-6.89453
-6.48418
-6.09077
-5.71555
-5.35961
-5.01917
-4.68949
-4.37026
-4.06241
-3.76565
-3.4791
-3.20215
-2.93449
-2.67609
-2.42703
-2.18755
-1.95796
-1.73854
-1.52942
-1.3306
-1.14203
-0.963569
-0.795066
-0.636407
-0.487533
-0.348365
-0.218721
-0.0984014
0.0126761
0.114503
0.207185
0.290932
0.365971
0.432539
0.490841
0.541049
0.583332
0.617871
0.644837
0.664365
0.676525
0.681447
0.679243
0.669893
0.653326
0.629503
0.598369
0.559755
0.513254
0.458308
0.394241
0.3198
0.232385
0.127473
-30.4308
-28.2659
-26.0386
-23.8363
-21.7771
-19.9397
-18.3355
-16.9375
-15.7137
-14.6357
-13.6791
-12.8228
-12.0502
-11.3467
-10.6991
-10.0971
-9.53275
-8.99922
-8.49481
-8.019
-7.56784
-7.13712
-6.72392
-6.32631
-5.94266
-5.57021
-5.20567
-4.85005
-4.50672
-4.17642
-3.8583
-3.55143
-3.25581
-2.97216
-2.7008
-2.44068
-2.19102
-1.95173
-1.72298
-1.50519
-1.2985
-1.10282
-0.918004
-0.743927
-0.58038
-0.427078
-0.283741
-0.150097
-0.0260395
0.0884292
0.193356
0.288898
0.375299
0.452842
0.521791
0.582364
0.634763
0.67916
0.715716
0.744612
0.766011
0.78005
0.786817
0.786373
0.7786
0.76329
0.740321
0.709563
0.670792
0.62363
0.567549
0.501861
0.42557
0.337046
0.23306
0.106689
-26.8392
-24.9307
-23.0489
-21.2651
-19.633
-18.1687
-16.861
-15.691
-14.6411
-13.6954
-12.839
-12.0582
-11.341
-10.6772
-10.0581
-9.47685
-8.92784
-8.40725
-7.91202
-7.43949
-6.98733
-6.55372
-6.13713
-5.73633
-5.35019
-4.97822
-4.6211
-4.27932
-3.95204
-3.63807
-3.33657
-3.04698
-2.768
-2.49875
-2.24008
-1.99273
-1.75675
-1.53188
-1.31779
-1.11455
-0.922039
-0.73997
-0.568332
-0.407065
-0.256011
-0.114962
0.0163624
0.138159
0.250494
0.353354
0.446815
0.531018
0.606158
0.672464
0.730133
0.779315
0.820143
0.852796
0.877527
0.89458
0.904085
0.906092
0.900546
0.88728
0.866122
0.836893
0.799315
0.752958
0.697254
0.631552
0.554985
0.466216
0.363176
0.242072
0.0928197
-25.8219
-24.1491
-22.5036
-20.93
-19.4619
-18.1129
-16.8812
-15.758
-14.7328
-13.795
-12.9337
-12.1386
-11.4006
-10.7122
-10.0671
-9.4597
-8.88575
-8.34185
-7.82549
-7.33458
-6.86712
-6.42114
-5.99487
-5.58684
-5.19575
-4.82047
-4.46025
-4.11445
-3.78238
-3.4634
-3.15707
-2.86299
-2.58075
-2.31022
-2.05171
-1.80534
-1.5709
-1.34788
-1.13568
-0.9338
-0.742357
-0.561774
-0.392158
-0.233504
-0.0857071
0.0515958
0.178797
0.296099
0.403644
0.501664
0.590405
0.670043
0.740732
0.802659
0.856018
0.900965
0.937677
0.966344
0.987125
1.00016
1.00554
1.00331
0.9934
0.975663
0.94984
0.915603
0.872519
0.820039
0.757464
0.683931
0.598292
0.498978
0.383803
0.249317
0.0877633
-25.034
-23.533
-22.0541
-20.628
-19.2778
-18.0156
-16.8443
-15.7607
-14.7587
-13.8312
-12.971
-12.1706
-11.4233
-10.7231
-10.0648
-9.44395
-8.85664
-8.29973
-7.77071
-7.26741
-6.78785
-6.33021
-5.89286
-5.47442
-5.07373
-4.68975
-4.3217
-3.96897
-3.63105
-3.30741
-2.99759
-2.70117
-2.4177
-2.14687
-1.88852
-1.64252
-1.40862
-1.18639
-0.975388
-0.77536
-0.586361
-0.408481
-0.241677
-0.0858037
0.0594767
0.194475
0.31933
0.434123
0.538981
0.634157
0.719884
0.796368
0.863815
0.92245
0.972501
1.01419
1.04769
1.07311
1.09054
1.10008
1.10181
1.09575
1.08181
1.05982
1.02945
0.990282
0.941769
0.883224
0.813793
0.732387
0.637681
0.528146
0.402096
0.257678
0.0927377
-24.4416
-23.0636
-21.7029
-20.3831
-19.1212
-17.9277
-16.8069
-15.7584
-14.779
-13.8642
-13.009
-12.2079
-11.4558
-10.7478
-10.0799
-9.44816
-8.84935
-8.28082
-7.74029
-7.22576
-6.73544
-6.26772
-5.82112
-5.39434
-4.98621
-4.59572
-4.22202
-3.86438
-3.52217
-3.19479
-2.88173
-2.58254
-2.29678
-2.0241
-1.76428
-1.51712
-1.28232
-1.05957
-0.848528
-0.648932
-0.460667
-0.283664
-0.117789
0.0371432
0.181344
0.315005
0.438281
0.551322
0.654345
0.747593
0.831265
0.905576
0.970704
1.02685
1.07425
1.11315
1.14375
1.16615
1.18047
1.18682
1.18528
1.17586
1.15843
1.13276
1.0985
1.05515
1.00206
0.938377
0.863087
0.774945
0.672571
0.554608
0.420007
0.26857
0.10266
-23.9858
-22.6939
-21.4159
-20.1709
-18.9729
-17.8308
-16.749
-15.7287
-14.7686
-13.8658
-13.0169
-12.2178
-11.4644
-10.753
-10.08
-9.44229
-8.837
-8.26175
-7.71444
-7.19323
-6.69641
-6.22248
-5.77001
-5.33776
-4.92456
-4.52938
-4.15133
-3.78971
-3.44387
-3.11324
-2.79732
-2.49565
-2.20782
-1.93346
-1.67229
-1.42401
-1.18833
-0.964941
-0.753551
-0.553915
-0.365859
-0.18927
-0.0240201
0.130119
0.273397
0.406047
0.528251
0.640165
0.74198
0.833923
0.916229
0.989128
1.05283
1.10749
1.15329
1.19045
1.21916
1.23959
1.25185
1.25604
1.25221
1.24032
1.22025
1.19176
1.15444
1.10777
1.051
0.983203
0.903244
0.809824
0.701577
0.577327
0.43656
0.280272
0.113106
-23.6772
-22.4389
-21.2129
-20.0158
-18.8596
-17.752
-16.6976
-15.6979
-14.7527
-13.86
-13.0174
-12.2215
-11.4692
-10.7571
-10.0823
-9.44182
-8.83329
-8.25442
-7.70327
-7.17807
-6.67724
-6.19933
-5.74298
-5.30701
-4.8903
-4.49185
-4.11082
-3.74646
-3.39813
-3.06523
-2.74724
-2.44372
-2.15425
-1.87845
-1.616
-1.36656
-1.12987
-0.905642
-0.693612
-0.493561
-0.305297
-0.128641
0.0365855
0.1906
0.333629
0.465894
0.587597
0.698904
0.799951
0.890988
0.972332
1.04422
1.10683
1.16039
1.2051
1.24114
1.2687
1.28795
1.29899
1.3019
1.29668
1.28332
1.26164
1.2314
1.19217
1.14338
1.08424
1.0138
0.930856
0.834045
0.722019
0.593759
0.449109
0.289802
0.121472
-23.4906
-22.2789
-21.0798
-19.9085
-18.7758
-17.6888
-16.6515
-15.6656
-14.7311
-13.8465
-13.0096
-12.2177
-11.4679
-10.7572
-10.0829
-9.44236
-8.83327
-8.2535
-7.70118
-7.1746
-6.67224
-6.19269
-5.73466
-5.29698
-4.87857
-4.47849
-4.09589
-3.73003
-3.38025
-3.04598
-2.72669
-2.42195
-2.13136
-1.85456
-1.59121
-1.341
-1.10366
-0.878896
-0.666434
-0.466037
-0.277529
-0.100711
0.0646378
0.218718
0.361753
0.493944
0.615503
0.726645
0.827549
0.91843
0.999558
1.07117
1.13339
1.18647
1.2307
1.26622
1.29318
1.3118
1.3222
1.32442
1.31847
1.30431
1.28177
1.25056
1.21028
1.16035
1.09999
1.02823
0.943875
0.845554
0.731924
0.601991
0.455717
0.294396
0.125145
-23.4522
-22.2395
-21.0417
-19.8738
-18.7461
-17.6649
-16.6336
-15.6537
-14.7247
-13.845
-13.0125
-12.2243
-11.4776
-10.7695
-10.0974
-9.45872
-8.85111
-8.27251
-7.72109
-7.19515
-6.69319
-6.21381
-5.75576
-5.3179
-4.89916
-4.49863
-4.11548
-3.74898
-3.39852
-3.06352
-2.74349
-2.43799
-2.14662
-1.86902
-1.60487
-1.35386
-1.11571
-0.890166
-0.676932
-0.475793
-0.286586
-0.109121
0.0568036
0.211386
0.35487
0.487474
0.609433
0.720969
0.822249
0.913436
0.994803
1.06662
1.12909
1.18239
1.22675
1.26235
1.28934
1.30791
1.31819
1.32027
1.31417
1.29985
1.27715
1.24582
1.20547
1.15552
1.09522
1.02361
0.939499
0.84155
0.728431
0.599151
0.453644
0.293164
0.124591
-23.5546
-22.3139
-21.093
-19.9075
-18.7673
-17.678
-16.6423
-15.6607
-14.7322
-13.8544
-13.0247
-12.24
-11.497
-10.7928
-10.1245
-9.48939
-8.88521
-8.30981
-7.76129
-7.23796
-6.73828
-6.26086
-5.80447
-5.36796
-4.95031
-4.55058
-4.16796
-3.80174
-3.45131
-3.11617
-2.79585
-2.48994
-2.19803
-1.91977
-1.65486
-1.40303
-1.164
-0.937529
-0.723363
-0.521294
-0.331122
-0.15266
0.01425
0.169793
0.314212
0.447753
0.570639
0.68305
0.785171
0.877213
0.959399
1.03194
1.09507
1.14899
1.1939
1.23001
1.2575
1.27653
1.28726
1.28977
1.28413
1.27032
1.24821
1.21758
1.17807
1.12912
1.07002
0.999817
0.917402
0.821506
0.710828
0.584355
0.441875
0.284977
0.119035
-23.7629
-22.4696
-21.2038
-19.982
-18.8139
-17.7046
-16.6558
-15.6667
-14.7349
-13.8573
-13.03
-12.2492
-11.5112
-10.8125
-10.15
-9.52084
-8.92243
-8.3526
-7.80939
-7.29101
-6.79587
-6.32256
-5.86985
-5.4366
-5.02176
-4.62442
-4.24379
-3.87916
-3.52996
-3.19571
-2.87601
-2.57048
-2.27876
-2.0005
-1.73541
-1.48325
-1.24374
-1.01665
-0.801765
-0.598882
-0.407785
-0.228287
-0.0602156
0.0966222
0.242429
0.3774