/*--------------------------------*- C++ -*----------------------------------*\
  =========                 |
  \\      /  F ield         | OpenFOAM: The Open Source CFD Toolbox
   \\    /   O peration     | Website:  https://openfoam.org
    \\  /    A nd           | Version:  13
     \\/     M anipulation  |
\*---------------------------------------------------------------------------*/
FoamFile
{
    format      ascii;
    class       volScalarField;
    location    "500";
    object      k;
}
// * * * * * * * * * * * * * * * * * * * * * * * * * * * * * * * * * * * * * //

dimensions      [0 2 -2 0 0 0 0];

internalField   nonuniform List<scalar> 
171247
(
1.09134
0.0678766
0.605797
0.613124
0.621716
0.632308
0.646086
0.664981
0.689671
0.724667
0.732134
0.771351
0.843261
0.907231
1.06073
1.22321
1.38548
0.525974
0.518726
0.526778
0.536284
0.547802
0.561161
0.576578
0.596936
0.62364
0.656438
0.671002
0.71096
0.763939
0.833405
0.958535
1.11929
1.32634
1.4693
0.445182
0.450432
0.456448
0.463168
0.471677
0.482954
0.497617
0.515976
0.537245
0.556607
0.57338
0.606285
0.644841
0.698522
0.774503
0.871258
0.991711
1.01555
0.410238
0.413381
0.417057
0.421587
0.427172
0.434029
0.442341
0.452182
0.463338
0.474665
0.484172
0.493683
0.505566
0.520859
0.54111
0.56744
0.599457
0.647093
0.692463
0.738025
0.78612
0.837767
0.391648
0.39391
0.396479
0.399419
0.402796
0.406659
0.411045
0.415972
0.421402
0.426949
0.431948
0.436867
0.442204
0.448879
0.457763
0.468803
0.482147
0.497914
0.514089
0.529201
0.543105
0.556194
0.379215
0.380664
0.382182
0.383777
0.385482
0.387339
0.389383
0.391652
0.394181
0.396961
0.399799
0.402554
0.405226
0.407945
0.410964
0.414762
0.419415
0.424807
0.430798
0.436982
0.44287
0.44806
0.452351
0.455799
0.37453
0.37534
0.376085
0.376797
0.377545
0.378382
0.379366
0.380559
0.381968
0.383584
0.385341
0.38714
0.388897
0.39055
0.392205
0.394028
0.396069
0.398319
0.400772
0.403269
0.405664
0.407799
0.409434
0.410571
0.371048
0.371118
0.371104
0.371121
0.371328
0.371828
0.37261
0.373554
0.374664
0.375911
0.377242
0.378598
0.379928
0.381202
0.382419
0.383609
0.384804
0.386028
0.387274
0.388499
0.389647
0.390664
0.391431
0.391869
0.366606
0.366175
0.365813
0.365643
0.365802
0.366378
0.367184
0.368187
0.369335
0.370571
0.37184
0.373101
0.374318
0.375472
0.376552
0.377566
0.378531
0.379467
0.380377
0.381241
0.382028
0.382708
0.383256
0.383614
0.363414
0.362698
0.362136
0.361846
0.361985
0.362518
0.363306
0.364305
0.365448
0.36667
0.367913
0.369136
0.370313
0.371427
0.372464
0.373423
0.37432
0.375174
0.375993
0.376763
0.37746
0.378065
0.378564
0.378945
0.361711
0.360863
0.360217
0.359886
0.360019
0.360494
0.36123
0.362178
0.36327
0.364434
0.365612
0.366764
0.367867
0.368911
0.369881
0.370775
0.371606
0.372396
0.373153
0.373865
0.374512
0.375074
0.375543
0.37591
0.361246
0.360338
0.359655
0.35931
0.359451
0.359898
0.360609
0.361535
0.362604
0.36374
0.364878
0.365975
0.367011
0.36798
0.368872
0.369685
0.370436
0.371149
0.371834
0.372478
0.37306
0.373562
0.373976
0.374294
0.361129
0.360222
0.359539
0.359193
0.359335
0.35978
0.360492
0.361421
0.362496
0.363637
0.364776
0.365866
0.366884
0.367822
0.36867
0.369432
0.370131
0.370794
0.371433
0.372035
0.372579
0.373048
0.373431
0.373721
0.360463
0.35982
0.359491
0.359629
0.360102
0.360842
0.361799
0.362904
0.364079
0.365253
0.366376
0.367418
0.368363
0.369203
0.369945
0.370619
0.371258
0.371875
0.372459
0.372988
0.373443
0.373813
0.374087
0.362102
0.361538
0.361244
0.361381
0.361912
0.362704
0.363715
0.364878
0.366111
0.367345
0.368521
0.369603
0.370571
0.371412
0.372137
0.37278
0.373378
0.373948
0.374481
0.374954
0.375344
0.375631
0.375779
0.365541
0.365163
0.364973
0.365114
0.365685
0.366496
0.367514
0.368682
0.369934
0.371195
0.372403
0.373509
0.374483
0.375308
0.375993
0.37657
0.377087
0.377569
0.37801
0.378371
0.378577
0.378602
0.378437
0.370561
0.370526
0.370514
0.370696
0.371183
0.371958
0.372913
0.374039
0.375294
0.376616
0.377921
0.379126
0.380172
0.380998
0.381579
0.382033
0.382465
0.382917
0.383356
0.383707
0.383909
0.383924
0.383734
0.375566
0.376267
0.377005
0.377825
0.378809
0.380016
0.381453
0.383084
0.384834
0.38658
0.388106
0.389321
0.390252
0.391033
0.391826
0.392753
0.393836
0.394946
0.395929
0.396674
0.397131
0.397289
0.382091
0.38369
0.38541
0.387295
0.389386
0.391717
0.394319
0.397099
0.399898
0.402574
0.404969
0.40702
0.408738
0.410553
0.41273
0.415448
0.418693
0.421966
0.424853
0.427164
0.428856
0.429986
0.394732
0.397377
0.400436
0.403981
0.408062
0.412702
0.417881
0.423496
0.428999
0.433906
0.438169
0.441856
0.445766
0.45043
0.456396
0.464021
0.47332
0.482507
0.490644
0.497427
0.502673
0.506893
0.416476
0.420401
0.425261
0.431242
0.438541
0.447267
0.457355
0.46842
0.479547
0.488912
0.496409
0.504092
0.513269
0.525887
0.541898
0.561399
0.592228
0.620327
0.646152
0.671113
0.696094
0.72044
0.457173
0.463994
0.471551
0.480384
0.491745
0.50604
0.523357
0.542822
0.562425
0.578095
0.576424
0.582852
0.599395
0.625193
0.662158
0.710735
0.886821
0.954826
1.02991
1.11212
1.19709
1.2878
0.529217
0.538564
0.549712
0.562956
0.577997
0.596681
0.620621
0.650091
0.652177
0.664706
0.690393
0.731305
0.795038
0.874794
0.977743
1.11813
1.2833
1.50747
1.55991
1.66062
1.79611
1.95011
0.60129
0.608879
0.618212
0.630311
0.646874
0.669278
0.701245
0.704225
0.725856
0.768223
0.831556
0.882255
1.02293
1.18147
1.45834
1.45655
1.1778
0.928932
0.943922
1.13386
1.39997
1.57209
0.612114
0.617465
0.625691
0.63679
0.652135
0.67691
0.721376
0.728982
0.778963
0.878196
0.957611
1.12377
1.12752
0.535677
0.410333
0.70313
0.782189
0.814688
0.888073
1.028
1.10848
1.19785
0.533086
0.534816
0.537887
0.543252
0.553192
0.574042
0.585819
0.625804
0.712433
0.797392
1.01845
0.936651
0.333389
0.844794
0.950091
0.961167
0.993251
1.00881
1.05119
1.11863
0.470376
0.465579
0.461825
0.459275
0.460389
0.470337
0.493574
0.50955
0.578043
0.692325
0.817666
1.01979
1.12977
0.61693
0.658207
0.98382
1.08728
1.02451
1.12386
1.16706
1.24436
1.37369
0.410442
0.405108
0.400559
0.396705
0.393952
0.394156
0.403488
0.424998
0.445275
0.50462
0.572912
0.665948
0.804463
0.895655
1.07949
1.39266
1.67982
1.57893
1.6732
1.81047
2.01163
2.30544
0.354189
0.351841
0.354013
0.362646
0.375685
0.389007
0.423718
0.465725
0.512929
0.562131
0.615599
0.689252
0.667222
0.730399
0.808662
0.89145
0.975028
1.06541
0.385064
0.377198
0.372132
0.369865
0.369846
0.372753
0.378701
0.386654
0.395784
0.405586
0.415981
0.434375
0.450801
0.466913
0.482596
0.497391
0.511424
0.833613
0.842985
0.854564
0.870007
0.891771
0.921831
0.964184
0.982679
1.06713
1.207
1.35708
1.17425
0.657941
0.674514
0.693351
0.71577
0.740768
0.770863
0.811149
0.867125
0.896303
0.981575
1.08575
1.1583
1.15418
1.09627
1.09363
1.14178
1.40723
0.482902
0.494957
0.508353
0.523178
0.542544
0.568414
0.602032
0.643553
0.688983
0.719422
0.779412
0.827311
0.859774
0.878267
0.894634
0.913327
0.952514
1.04771
0.420183
0.425573
0.432314
0.441043
0.452384
0.466957
0.485297
0.507426
0.531577
0.551985
0.568393
0.583561
0.598854
0.614666
0.631189
0.648296
0.665936
0.684997
0.710777
0.736234
0.763813
0.794104
0.397022
0.400427
0.404415
0.409199
0.415021
0.422086
0.430554
0.44042
0.451178
0.460155
0.468292
0.476256
0.484532
0.493399
0.503094
0.513869
0.525676
0.537763
0.549506
0.559837
0.568922
0.577059
0.384728
0.386812
0.389002
0.391338
0.393918
0.396835
0.400162
0.403943
0.408175
0.412731
0.416833
0.420175
0.423286
0.426465
0.429888
0.433764
0.43829
0.443632
0.449595
0.45557
0.461025
0.465747
0.469731
0.472992
0.382376
0.38364
0.384768
0.385825
0.38693
0.388184
0.389671
0.391419
0.393407
0.395573
0.397745
0.399578
0.400981
0.402086
0.403148
0.40429
0.405635
0.4073
0.409311
0.411527
0.413739
0.415771
0.417524
0.41898
0.38008
0.380501
0.380774
0.381057
0.381575
0.382305
0.383256
0.384403
0.385698
0.38708
0.388475
0.389789
0.390948
0.391916
0.39257
0.393054
0.393463
0.393901
0.394426
0.395106
0.395761
0.396325
0.396761
0.39705
0.37464
0.374345
0.37414
0.374179
0.374641
0.375381
0.376373
0.377554
0.378844
0.380171
0.381473
0.382708
0.383841
0.384849
0.385697
0.386389
0.386956
0.387443
0.387913
0.388344
0.388707
0.388914
0.388962
0.388853
0.369617
0.368882
0.368348
0.368141
0.368412
0.369024
0.36991
0.371009
0.372242
0.373529
0.374803
0.376023
0.377171
0.378229
0.379171
0.37999
0.380709
0.381362
0.381966
0.382507
0.382962
0.383311
0.383545
0.383629
0.366542
0.365551
0.364802
0.364396
0.364475
0.364912
0.365625
0.366558
0.367634
0.36877
0.3699
0.370982
0.372009
0.372975
0.373858
0.374645
0.375362
0.37604
0.376691
0.377292
0.377818
0.378248
0.378577
0.378799
0.365686
0.364531
0.363624
0.363071
0.363014
0.363337
0.363943
0.364772
0.365744
0.366771
0.36778
0.368726
0.36961
0.370438
0.371193
0.371868
0.37249
0.373095
0.373689
0.374248
0.374744
0.375154
0.375474
0.375698
0.365541
0.364386
0.363478
0.362922
0.362864
0.363183
0.363786
0.364617
0.365595
0.366629
0.367643
0.368586
0.369455
0.370251
0.370961
0.371582
0.372153
0.372711
0.373264
0.373786
0.374248
0.37463
0.374926
0.375128
0.365036
0.364294
0.363894
0.36398
0.364413
0.365126
0.366066
0.367155
0.368305
0.369437
0.370493
0.371459
0.372324
0.373071
0.373706
0.374269
0.374807
0.37533
0.375817
0.376241
0.376581
0.37683
0.376977
0.368142
0.367616
0.367412
0.367684
0.36829
0.369175
0.370285
0.371537
0.372841
0.374114
0.375295
0.376355
0.377283
0.378045
0.378641
0.379112
0.379515
0.379883
0.380205
0.380459
0.380625
0.380654
0.380517
0.373607
0.373393
0.373414
0.373855
0.374585
0.375579
0.376778
0.378103
0.37947
0.380797
0.38202
0.38309
0.383978
0.384623
0.385014
0.385135
0.385126
0.385127
0.385115
0.385054
0.384916
0.384688
0.384365
0.379882
0.380132
0.380381
0.380876
0.381593
0.382551
0.383733
0.38509
0.386554
0.388033
0.389418
0.390599
0.391423
0.39172
0.391719
0.391547
0.391336
0.391206
0.39126
0.391357
0.391453
0.391521
0.391546
0.384045
0.385099
0.386208
0.387484
0.38904
0.3909
0.39305
0.395421
0.397829
0.399943
0.401445
0.402476
0.403226
0.403775
0.40427
0.404868
0.405678
0.406699
0.407828
0.408978
0.410099
0.411164
0.388482
0.390871
0.393551
0.396635
0.400212
0.40434
0.409013
0.414088
0.418786
0.42243
0.425742
0.428807
0.431669
0.434402
0.437173
0.440237
0.443715
0.447376
0.450845
0.453972
0.456753
0.459235
0.401275
0.405556
0.410775
0.417202
0.42505
0.434455
0.445335
0.457084
0.467041
0.475427
0.483177
0.490652
0.497707
0.504413
0.511111
0.518055
0.525235
0.5321
0.537936
0.542672
0.546551
0.549798
0.431658
0.439199
0.448941
0.461474
0.477343
0.496878
0.51983
0.544259
0.564601
0.579793
0.592901
0.604955
0.616062
0.625875
0.634871
0.64369
0.652494
0.663278
0.672326
0.680761
0.689095
0.697126
0.509618
0.524616
0.541039
0.560793
0.58639
0.618661
0.657397
0.697119
0.693898
0.699774
0.714934
0.730567
0.742553
0.750975
0.758291
0.767291
0.785658
0.868483
0.912642
0.96313
1.01618
1.06722
0.671755
0.690119
0.711679
0.736458
0.764889
0.802151
0.853429
0.854682
0.882316
0.933758
0.98242
0.987885
0.974424
0.953765
0.944666
0.977607
1.11397
1.3364
1.77308
1.8947
1.99348
2.0826
0.815176
0.826106
0.84048
0.860532
0.889238
0.929408
0.929749
0.981724
1.08893
1.16886
1.27255
1.22014
1.17409
1.16909
1.16187
1.27516
1.52909
1.27028
1.38926
1.50925
1.60294
1.58787
0.904081
0.906439
0.912707
0.925434
0.949315
0.997905
1.00524
1.10131
1.20218
1.31014
1.05342
0.49572
0.630166
0.618618
0.891641
1.17886
1.25124
0.908422
0.911019
0.915752
0.924137
0.94006
0.976294
0.985857
1.09864
1.22578
1.08281
0.667538
0.839736
1.21476
1.41948
1.49668
0.719546
0.723113
0.728272
0.737286
0.754074
0.782371
0.811779
0.905685
1.03275
1.10037
1.00483
0.927466
1.57315
1.74755
2.67562
2.96173
2.99031
0.505117
0.505916
0.509338
0.517647
0.532827
0.560279
0.599366
0.645672
0.759567
0.851265
0.975571
0.966435
0.923834
0.875513
0.872584
1.0616
1.3946
2.04011
1.72261
1.96008
2.17054
2.35817
0.436996
0.448794
0.470612
0.499152
0.530482
0.597172
0.650213
0.669048
0.663287
0.644423
0.621453
0.605655
0.609828
0.579048
0.612261
0.646424
0.672852
0.708295
0.449744
0.452335
0.458228
0.465547
0.473937
0.481286
0.485576
0.486798
0.485255
0.481598
0.477115
0.473255
0.470276
0.467366
0.463802
0.461076
0.459726
1.03893
1.03373
1.0338
1.03949
1.05137
1.07189
1.10624
1.12959
1.19463
1.16055
1.07215
0.900859
0.912324
0.928264
0.948884
0.973304
1.00585
1.04939
1.08084
1.1693
1.24448
1.27302
1.20528
1.15053
1.06009
0.986879
0.925506
0.94498
1.16693
0.596394
0.619864
0.644282
0.671672
0.707368
0.753217
0.808937
0.870238
0.915654
1.00346
1.03911
1.02745
1.00801
0.984298
0.952849
0.915536
0.883249
0.875638
0.449761
0.459773
0.470907
0.485533
0.505013
0.530904
0.563567
0.603278
0.64815
0.688926
0.722576
0.74426
0.757164
0.769481
0.774179
0.771998
0.764813
0.756547
0.749423
0.414926
0.420309
0.426537
0.434114
0.443855
0.456516
0.472579
0.492326
0.515296
0.539027
0.561229
0.580283
0.59625
0.610365
0.621786
0.632864
0.639187
0.641452
0.64339
0.645195
0.646757
0.648244
0.650007
0.403056
0.406451
0.409971
0.413901
0.41858
0.424303
0.431263
0.439527
0.449147
0.459792
0.470887
0.481319
0.491126
0.500462
0.508927
0.516242
0.522381
0.52764
0.532638
0.537254
0.541397
0.545126
0.548587
0.551921
0.403202
0.405269
0.406916
0.408456
0.410158
0.412303
0.415072
0.418256
0.421893
0.426005
0.430336
0.434414
0.43833
0.442165
0.445811
0.449
0.451899
0.45472
0.457678
0.460838
0.464007
0.467
0.46985
0.472615
0.401115
0.401968
0.402323
0.40263
0.403396
0.404518
0.40599
0.40767
0.409371
0.411167
0.412945
0.414614
0.416
0.417191
0.41817
0.418833
0.419249
0.419656
0.420294
0.42127
0.422477
0.42377
0.425111
0.426478
0.391181
0.390994
0.390695
0.390684
0.391209
0.392177
0.393497
0.395033
0.396644
0.398249
0.399721
0.401023
0.402143
0.40309
0.403756
0.404031
0.404009
0.403888
0.403854
0.403967
0.404188
0.404425
0.404644
0.404836
0.379934
0.37901
0.378248
0.377815
0.377864
0.378527
0.379538
0.380811
0.382273
0.383794
0.385272
0.386614
0.387826
0.388912
0.389824
0.390527
0.391031
0.391411
0.391783
0.392163
0.392465
0.39264
0.392682
0.3926
0.372901
0.371461
0.370241
0.369337
0.368873
0.36903
0.369656
0.370583
0.371719
0.372935
0.374138
0.375241
0.376275
0.377248
0.37811
0.378834
0.37946
0.380057
0.380647
0.381213
0.381716
0.382123
0.382423
0.38256
0.371852
0.36999
0.368283
0.366858
0.365885
0.365557
0.365885
0.366531
0.367402
0.368361
0.369297
0.370117
0.370863
0.371571
0.372201
0.372737
0.37323
0.373745
0.374292
0.374839
0.375343
0.37577
0.376105
0.376334
0.371611
0.369752
0.368047
0.366626
0.365652
0.365314
0.365631
0.366271
0.367142
0.368109
0.369059
0.36989
0.370634
0.37132
0.37191
0.372399
0.372851
0.373334
0.373853
0.374377
0.374862
0.375273
0.375598
0.375819
0.37068
0.369479
0.368593
0.368145
0.368275
0.368875
0.369787
0.370923
0.372154
0.373373
0.374475
0.375465
0.376328
0.377047
0.377611
0.378088
0.378562
0.379057
0.379547
0.379994
0.380364
0.380645
0.380766
0.377887
0.377154
0.376743
0.376797
0.377438
0.378418
0.379681
0.381153
0.382703
0.384204
0.385559
0.386739
0.387732
0.388511
0.388922
0.389062
0.389158
0.389321
0.38956
0.389802
0.389968
0.390045
0.390036
0.389948
0.389672
0.389653
0.390144
0.391076
0.39237
0.393914
0.395577
0.397281
0.398887
0.400332
0.40158
0.402606
0.403202
0.403309
0.403067
0.402732
0.402512
0.402477
0.402601
0.40284
0.40316
0.403518
0.401492
0.401808
0.402007
0.4027
0.403756
0.405194
0.406914
0.408738
0.41077
0.412894
0.415052
0.417144
0.41888
0.420204
0.421039
0.421445
0.421756
0.422271
0.423134
0.424324
0.425769
0.427356
0.42907
0.406095
0.4076
0.409268
0.411455
0.414342
0.417805
0.421869
0.426643
0.431881
0.437311
0.442649
0.447694
0.4523
0.456136
0.459296
0.46228
0.465381
0.468667
0.471889
0.475043
0.47821
0.481444
0.408636
0.412794
0.417819
0.424044
0.431706
0.440943
0.451749
0.464112
0.477055
0.489698
0.501639
0.512757
0.522774
0.531142
0.537935
0.543503
0.548416
0.55276
0.556757
0.560631
0.564531
0.56852
0.428233
0.436771
0.447726
0.461886
0.479739
0.501483
0.526614
0.553301
0.578046
0.599663
0.617648
0.633049
0.645595
0.656956
0.663464
0.664509
0.664818
0.665001
0.665055
0.665446
0.666409
0.66801
0.483986
0.500034
0.521144
0.548793
0.583133
0.624013
0.669593
0.715833
0.751122
0.771362
0.781987
0.792925
0.796272
0.791885
0.781345
0.768579
0.756178
0.745567
0.736673
0.730949
0.728415
0.728736
0.640533
0.666104
0.693835
0.729049
0.773214
0.825622
0.882384
0.942759
0.939852
0.930763
0.917134
0.902654
0.887386
0.868073
0.843855
0.818151
0.795202
0.781312
0.766811
0.775294
0.790349
0.812448
0.893847
0.909046
0.929422
0.952877
0.983843
1.02598
1.03384
1.08589
1.15203
1.1624
1.11082
1.06261
1.01014
0.949897
0.889634
0.842006
0.82802
0.86892
1.00088
1.14086
1.19946
1.27047
1.00381
1.00476
1.01053
1.02309
1.04548
1.08435
1.11121
1.20224
1.2612
1.24809
1.23703
1.30694
1.27334
1.20911
1.16503
1.12254
1.32686
1.64652
1.78731
1.82498
1.44713
1.3531
1.01426
1.00134
0.994973
0.998291
1.00086
1.0111
1.07065
1.16075
1.09646
0.212503
0.467457
0.870671
1.08159
1.12839
0.813896
0.790008
0.7693
0.75241
0.738098
0.767654
0.843552
0.9434
0.831454
0.297396
0.822981
1.45769
2.05834
0.656443
0.650107
0.647897
0.652373
0.671961
0.709563
0.742039
0.847635
0.941551
0.857397
2.04206
2.39051
3.12948
3.25402
0.494609
0.492755
0.493608
0.498652
0.511904
0.539664
0.559133
0.641472
0.760217
0.844526
0.867752
0.974449
1.01463
1.01644
1.02153
0.993576
0.923093
0.841955
1.00295
0.939496
1.07171
1.21098
0.460606
0.472845
0.492394
0.501176
0.543224
0.592841
0.622436
0.627098
0.617247
0.598082
0.574597
0.555551
0.545435
0.542728
0.541461
0.547635
0.555352
0.566232
0.46847
0.471867
0.476748
0.481878
0.486598
0.489357
0.49025
0.489625
0.48754
0.483926
0.480218
0.478592
0.478432
0.477874
0.476145
0.473815
0.471445
0.928347
0.891623
0.856331
0.821928
0.792507
0.76962
0.752796
0.767715
0.8538
0.890604
0.967236
0.962044
0.958145
0.951879
0.944702
0.939827
0.925755
0.91079
0.916251
0.966908
1.04054
1.00882
0.951188
0.928851
0.899135
0.836623
0.772181
0.7619
0.759782
0.780029
0.803179
0.832119
0.868639
0.915079
0.945217
0.969237
0.976005
0.974371
0.946899
0.921743
0.903785
0.883648
0.857332
0.823375
0.785811
0.754949
0.527693
0.540425
0.559194
0.587128
0.625223
0.677791
0.732018
0.787343
0.840487
0.886726
0.912286
0.901756
0.881079
0.86475
0.839433
0.816164
0.7924
0.768825
0.726035
0.46639
0.474011
0.482625
0.495044
0.515106
0.543707
0.580026
0.622762
0.67134
0.720344
0.758374
0.780996
0.793187
0.803869
0.803679
0.788348
0.761886
0.74
0.726178
0.71706
0.711274
0.708674
0.709194
0.447933
0.452529
0.457061
0.46305
0.472034
0.485119
0.502877
0.524325
0.551175
0.58074
0.608766
0.633782
0.655252
0.674057
0.687745
0.696297
0.696771
0.692217
0.686403
0.681797
0.679077
0.678426
0.679769
0.682578
0.454046
0.456933
0.458068
0.459571
0.462183
0.466613
0.473318
0.482304
0.493135
0.505884
0.519751
0.533711
0.547508
0.560897
0.573042
0.583887
0.59073
0.594825
0.597035
0.598991
0.600774
0.602764
0.605175
0.608057
0.453685
0.454657
0.453533
0.452635
0.452891
0.4543
0.456714
0.460238
0.464673
0.469835
0.475372
0.481031
0.487024
0.493149
0.499158
0.504455
0.508545
0.511758
0.514488
0.516857
0.519063
0.521251
0.523525
0.52596
0.428647
0.429271
0.429082
0.427562
0.426669
0.427363
0.428861
0.431608
0.434476
0.437556
0.440699
0.443657
0.446281
0.448859
0.451447
0.453962
0.456198
0.457975
0.459437
0.460766
0.462044
0.463278
0.464478
0.465674
0.466895
0.39878
0.398244
0.397597
0.39615
0.394826
0.395025
0.396062
0.39807
0.40073
0.403679
0.406668
0.409422
0.411746
0.413857
0.415818
0.417541
0.418908
0.419788
0.420578
0.421433
0.42234
0.423191
0.423964
0.424656
0.425278
0.383039
0.381152
0.379056
0.37674
0.37464
0.373523
0.373142
0.37365
0.375131
0.377126
0.379296
0.381395
0.383244
0.38497
0.386634
0.388109
0.389263
0.390133
0.391083
0.39206
0.392986
0.393845
0.394605
0.395249
0.39571
0.386928
0.383731
0.380129
0.376805
0.37448
0.372875
0.37219
0.372556
0.37369
0.375014
0.376254
0.377253
0.378126
0.378987
0.379702
0.380091
0.380351
0.380824
0.381389
0.381967
0.382525
0.383022
0.383429
0.383664
0.386361
0.383181
0.379593
0.376274
0.373965
0.372363
0.371664
0.372016
0.37315
0.374492
0.375768
0.376816
0.377742
0.378611
0.379242
0.379515
0.379696
0.380126
0.380706
0.381302
0.381883
0.382411
0.382859
0.383155
0.37991
0.377809
0.375486
0.373365
0.372256
0.371768
0.372137
0.373463
0.375351
0.377466
0.379582
0.381513
0.383317
0.384979
0.386349
0.387212
0.387885
0.38874
0.389762
0.390774
0.391745
0.392646
0.393463
0.394178
0.395515
0.394136
0.392806
0.392942
0.39382
0.395613
0.398103
0.400925
0.403889
0.40675
0.409294
0.411607
0.414046
0.415797
0.416928
0.417622
0.418351
0.419262
0.420404
0.421566
0.422694
0.423791
0.424869
0.426725
0.425401
0.424623
0.425363
0.426784
0.42946
0.432222
0.435254
0.438532
0.441891
0.44512
0.448348
0.451954
0.454893
0.457486
0.459535
0.461311
0.463134
0.464976
0.466831
0.468712
0.470648
0.47271
0.455834
0.454833
0.453671
0.453528
0.454419
0.456533
0.459842
0.464296
0.469868
0.476325
0.483288
0.490716
0.498129
0.505291
0.511654
0.516787
0.521047
0.525035
0.528727
0.532266
0.535833
0.539581
0.54359
0.458911
0.460133
0.462579
0.466894
0.473653
0.483007
0.494862
0.509179
0.52528
0.541934
0.55843
0.574245
0.588721
0.599794
0.609636
0.616377
0.620915
0.624765
0.628439
0.632403
0.636935
0.642179
0.456516
0.463483
0.473486
0.487729
0.506943
0.530343
0.559647
0.592368
0.624414
0.653288
0.67828
0.69995
0.715604
0.726018
0.728324
0.725848
0.721022
0.717525
0.716322
0.717874
0.721772
0.727394
0.48971
0.503983
0.525687
0.556164
0.594522
0.639187
0.689568
0.739936
0.779622
0.803871
0.816919
0.828495
0.828391
0.806542
0.774343
0.761601
0.747721
0.738934
0.734415
0.734481
0.739229
0.748741
0.577592
0.606605
0.645877
0.698543
0.752159
0.805276
0.855213
0.898219
0.921431
0.910091
0.886395
0.864622
0.835155
0.813283
0.790876
0.768391
0.721947
0.715915
0.713761
0.720436
0.735861
0.760678
0.777122
0.801854
0.832129
0.86739
0.91054
0.937428
0.957249
0.962299
0.967841
0.937166
0.90056
0.874349
0.849109
0.822056
0.793562
0.764602
0.740976
0.722317
0.709166
0.758684
0.836619
0.927031
0.933382
0.928437
0.921732
0.915128
0.911638
0.903429
0.917857
0.941441
0.957586
0.941075
0.927506
0.90846
0.880759
0.848101
0.80614
0.764806
0.747609
0.749827
0.786501
0.859406
1.79179
1.86613
0.871647
0.838915
0.80852
0.783579
0.764926
0.77436
0.809557
0.877224
0.948096
1.07473
1.20061
1.14304
1.13117
0.903451
0.745307
0.732211
0.66545
0.778197
1.35981
2.01113
1.37822
1.23206
0.77716
0.745784
0.718094
0.698982
0.682906
0.697162
0.7451
0.891797
0.566933
1.00599
1.07508
1.26683
0.691052
0.680083
0.671889
0.666553
0.6653
0.675188
0.72025
0.879742
0.28034
0.787457
1.10437
2.12095
0.571599
0.568793
0.569225
0.574196
0.587599
0.599722
0.644263
0.761734
1.34097
2.04052
1.65683
1.70262
0.499495
0.498126
0.499352
0.504507
0.51799
0.541606
0.546699
0.612476
0.737292
0.925416
1.08783
1.01924
0.94119
0.913414
0.863208
0.925741
1.0576
0.902672
0.763414
0.775663
0.72205
0.753673
0.489147
0.498077
0.509664
0.517347
0.548098
0.574209
0.578795
0.575569
0.569924
0.564188
0.558806
0.554286
0.550623
0.549957
0.548993
0.529974
0.532025
0.533384
0.479149
0.48192
0.484964
0.486908
0.487368
0.48651
0.484864
0.482361
0.478963
0.474705
0.471307
0.471579
0.473787
0.476127
0.47804
0.478696
0.478504
0.688177
0.651361
0.618806
0.59096
0.567005
0.550443
0.55913
0.605982
0.748132
0.842652
0.787822
0.734347
0.684323
0.639481
0.601707
0.581848
0.598386
0.666868
0.807111
0.839973
0.822175
0.860417
0.939221
1.04435
1.00265
0.941646
1.05041
0.820082
0.813739
0.79041
0.752821
0.712239
0.681341
0.644078
0.626298
0.646434
0.695256
0.737077
0.761663
0.767247
0.780875
0.796344
0.770549
0.746395
0.755522
0.509642
0.541442
0.580802
0.623841
0.661669
0.671888
0.695391
0.703833
0.699955
0.699326
0.719805
0.745334
0.753204
0.753173
0.74815
0.733746
0.717744
0.698166
0.694196
0.790862
0.467199
0.464953
0.468558
0.474568
0.508952
0.535999
0.592505
0.642706
0.682461
0.710745
0.712628
0.725045
0.731561
0.736043
0.744629
0.743621
0.733022
0.713718
0.701339
0.713606
0.724798
0.736853
0.751898
0.491309
0.482778
0.473496
0.469049
0.476444
0.491179
0.50998
0.527531
0.561301
0.592428
0.623388
0.649299
0.670046
0.688079
0.695714
0.697518
0.699643
0.695231
0.667331
0.671509
0.677438
0.685118
0.694807
0.70665
0.528935
0.530153
0.523246
0.514572
0.508692
0.50496
0.504957
0.513388
0.526832
0.543061
0.560769
0.579388
0.59707
0.614591
0.632163
0.636821
0.641256
0.640696
0.627601
0.630519
0.634717
0.640385
0.647558
0.65617
0.621567
0.623777
0.618391
0.60921
0.599268
0.586838
0.574109
0.56318
0.554636
0.549964
0.549918
0.565466
0.570096
0.577194
0.585606
0.590075
0.590831
0.590079
0.590745
0.592107
0.594237
0.597488
0.601917
0.607448
0.57551
0.587403
0.59799
0.600473
0.596806
0.642655
0.634981
0.613914
0.58665
0.570751
0.561065
0.553807
0.570937
0.566452
0.563552
0.561855
0.560224
0.557221
0.5542
0.553416
0.553158
0.553322
0.554109
0.555615
0.557823
0.491734
0.49754
0.503528
0.503956
0.50044
0.537704
0.534869
0.532943
0.531317
0.530585
0.530284
0.528717
0.524332
0.519755
0.516689
0.513936
0.510429
0.506192
0.502496
0.500556
0.499897
0.49936
0.49904
0.498993
0.499227
0.40362
0.403408
0.403877
0.402441
0.399722
0.42641
0.426217
0.427536
0.430848
0.436239
0.442042
0.446581
0.448817
0.448438
0.448764
0.448715
0.447048
0.444403
0.441963
0.440735
0.440703
0.440583
0.440438
0.440301
0.440167
0.436984
0.436185
0.43177
0.424713
0.505034
0.495457
0.487493
0.482119
0.479189
0.477944
0.476416
0.47339
0.467996
0.463533
0.459368
0.453748
0.447512
0.441817
0.437564
0.434826
0.432293
0.429976
0.427863
0.425906
0.480236
0.481393
0.476528
0.467275
0.505922
0.496213
0.488038
0.482467
0.479378
0.478113
0.476624
0.473661
0.468588
0.464471
0.460227
0.454193
0.447616
0.441738
0.437363
0.434543
0.431967
0.429657
0.427607
0.425764
0.406299
0.404809
0.401225
0.3962
0.423189
0.421702
0.422384
0.424899
0.429514
0.435084
0.439822
0.442723
0.443706
0.445391
0.4454
0.443441
0.440691
0.438408
0.437464
0.437884
0.438292
0.438752
0.439298
0.439923
0.435071
0.43492
0.432766
0.525296
0.522954
0.52116
0.519353
0.518399
0.518414
0.517992
0.51585
0.513487
0.502172
0.504546
0.50218
0.49904
0.496601
0.496041
0.49689
0.49786
0.499042
0.500514
0.502308
0.542218
0.543134
0.540354
0.638879
0.63278
0.609876
0.577818
0.556812
0.543982
0.536271
0.574282
0.572231
0.558831
0.562551
0.563038
0.561726
0.560216
0.560907
0.562005
0.56341
0.565423
0.568228
0.571876
0.627031
0.630379
0.62717
0.622367
0.613324
0.602701
0.591534
0.581052
0.572725
0.567192
0.58248
0.589368
0.598485
0.607314
0.612599
0.61406
0.612772
0.612425
0.612912
0.614445
0.617517
0.622257
0.628634
0.575855
0.569277
0.563328
0.555457
0.548103
0.544018
0.542425
0.560691
0.582283
0.604562
0.623792
0.640716
0.656269
0.662942
0.652022
0.638243
0.642875
0.644279
0.647691
0.653408
0.661539
0.672128
0.492984
0.488775
0.488779
0.493886
0.504789
0.543009
0.57848
0.612144
0.644643
0.670486
0.688919
0.703508
0.707272
0.69925
0.692079
0.686438
0.668363
0.671891
0.678384
0.688079
0.701417
0.718865
0.462995
0.488161
0.521952
0.524265
0.549714
0.591936
0.637716
0.681874
0.725145
0.73598
0.738423
0.734118
0.736916
0.736976
0.730022
0.713079
0.698854
0.706281
0.722388
0.742467
0.768859
0.803304
0.586847
0.628864
0.666442
0.66555
0.688383
0.708134
0.720952
0.729935
0.748288
0.766589
0.765739
0.758233
0.743341
0.721505
0.702913
0.684168
0.676432
0.801679
0.821069
0.865465
0.922792
0.998077
0.799472
0.78389
0.751414
0.715241
0.703658
0.688258
0.674814
0.68346
0.713043
0.736673
0.737518
0.724683
0.717685
0.720133
0.699548
0.701753
0.730774
0.765999
0.801588
1.21554
1.3364
1.47565
0.783847
0.736786
0.691817
0.650381
0.609833
0.605342
0.621216
0.663329
0.711831
0.755434
0.783987
0.79757
0.858267
0.937699
0.857746
0.952782
1.07584
1.25539
1.4753
1.85453
1.65826
1.1345
0.676788
0.645789
0.617413
0.591347
0.570537
0.576033
0.613368
0.690252
0.853434
1.04519
1.0755
1.16631
1.25389
1.26276
0.829095
0.363995
0.34461
0.394513
0.805205
1.08004
1.24669
0.989947
0.602677
0.588635
0.576489
0.5661
0.562237
0.572987
0.63683
0.750494
0.255083
0.79247
0.872298
1.15134
0.570198
0.563186
0.559963
0.560428
0.569622
0.582414
0.636141
0.682652
1.5231
1.28497
0.553244
0.54992
0.54923
0.553823
0.56884
0.580625
0.654263
0.910896
1.04861
1.17732
1.2052
0.975586
0.533038
0.532409
0.533897
0.539215
0.55001
0.554785
0.58442
0.656027
0.919882
1.10087
1.1388
0.867718
0.817602
0.786244
0.791822
0.900489
1.09197
1.10823
0.804887
0.756933
0.659437
0.651737
0.527601
0.534612
0.535796
0.554995
0.583233
0.593077
0.589378
0.576546
0.564476
0.554416
0.547352
0.547644
0.550486
0.549765
0.548574
0.533555
0.533887
0.534847
0.501701
0.504797
0.507009
0.508211
0.508181
0.506745
0.503602
0.499497
0.494511
0.489315
0.486099
0.486414
0.488356
0.490489
0.492252
0.493086
0.49338
0.53129
0.518481
0.507098
0.496979
0.489397
0.487959
0.502036
0.581617
0.777829
0.574997
0.545831
0.522302
0.503222
0.487721
0.481571
0.476819
0.510125
0.59373
0.742138
0.871374
1.01088
1.29182
0.548047
0.529645
0.507203
0.875238
0.992809
0.817212
0.756115
0.696539
0.643188
0.595697
0.53396
0.497983
0.479392
0.495559
0.567158
0.627255
0.775648
0.957008
1.40422
1.35366
0.633718
1.3447
1.40494
1.48659
0.609594
0.645161
0.674631
0.665768
0.651496
0.623578
0.586853
0.564366
0.563498
0.561406
0.618848
0.657658
0.707669
0.852082
1.08345
1.0678
0.997112
1.1501
1.29082
1.08848
0.374007
0.40672
0.457845
0.516129
0.567991
0.606513
0.62843
0.632705
0.628349
0.631127
0.644832
0.693388
0.685536
0.694775
0.710058
0.709375
0.744339
0.764747
0.874269
0.831659
0.82539
0.826541
0.837578
0.384952
0.388453
0.391497
0.402355
0.434825
0.485005
0.536642
0.577283
0.596081
0.611504
0.619938
0.62521
0.636589
0.650688
0.653718
0.656666
0.646014
0.658844
0.686516
0.693476
0.70075
0.710067
0.72216
0.52266
0.492332
0.464524
0.442109
0.425741
0.422396
0.436599
0.4649
0.504607
0.538262
0.5609
0.549447
0.558375
0.572376
0.594013
0.604703
0.60197
0.602205
0.606713
0.617229
0.626447
0.635485
0.645209
0.62977
0.598774
0.564022
0.532452
0.514959
0.502363
0.493559
0.489352
0.488389
0.49294
0.501088
0.510053
0.522591
0.53696
0.549925
0.560773
0.567948
0.568051
0.571168
0.56445
0.572777
0.580615
0.588384
0.596415
0.822866
0.818782
0.810843
0.778342
0.739483
0.707776
0.681906
0.66535