/*--------------------------------*- C++ -*----------------------------------*\
  =========                 |
  \\      /  F ield         | OpenFOAM: The Open Source CFD Toolbox
   \\    /   O peration     | Website:  https://openfoam.org
    \\  /    A nd           | Version:  13
     \\/     M anipulation  |
\*---------------------------------------------------------------------------*/
FoamFile
{
    format      ascii;
    class       volScalarField;
    location    "500";
    object      omega;
}
// * * * * * * * * * * * * * * * * * * * * * * * * * * * * * * * * * * * * * //

dimensions      [0 0 -1 0 0 0 0];

internalField   nonuniform List<scalar> 
171247
(
830.634
321.282
77.2297
77.373
77.8064
78.6615
80.154
82.6523
86.1274
91.8261
93.1663
101.799
121.21
144.596
327.094
679.94
1051.36
235.929
48.3706
49.7304
51.3275
53.2652
55.4758
57.9777
61.4913
66.2952
72.3459
75.308
83.6667
96.5763
122.725
212.572
374.558
538.193
548.466
30.3694
31.3418
32.4481
33.6681
35.2367
37.344
40.0791
43.4724
47.3791
50.9377
54.0487
60.342
68.1989
82.9014
114.626
168.343
235.249
232.649
23.7412
24.1669
24.6967
25.3972
26.311
27.4835
28.9494
30.7171
32.744
34.8447
36.6887
38.5608
40.7018
43.5226
47.7998
54.5465
64.3869
82.4489
98.3018
112.154
124.463
135.491
21.207
21.4386
21.7228
22.0726
22.5053
23.039
23.691
24.4731
25.384
26.3825
27.4009
28.4553
29.5653
30.8138
32.3543
34.3912
37.1437
41.0746
45.4919
49.8865
54.0071
57.7222
19.8686
19.9705
20.0868
20.2191
20.3727
20.5553
20.7758
21.0441
21.3693
21.7554
22.1942
22.6745
23.1844
23.7217
24.2974
24.9421
25.6845
26.5595
27.6058
28.7754
29.9814
31.1514
32.2369
33.1995
19.3419
19.3842
19.4266
19.4706
19.521
19.5827
19.6611
19.7644
19.8965
20.0592
20.2505
20.4639
20.6932
20.9347
21.1899
21.4642
21.7607
22.0822
22.4313
22.7969
23.1646
23.5197
23.8482
24.1446
19.0315
19.0312
19.03
19.0305
19.0387
19.0595
19.0947
19.1434
19.2072
19.2857
19.3766
19.4764
19.5821
19.6921
19.8054
19.9229
20.0456
20.1739
20.3066
20.44
20.5696
20.6915
20.8018
20.8985
18.9208
18.8954
18.8708
18.8516
18.8431
18.8482
18.8674
18.9
18.944
18.996
19.0528
19.1116
19.1702
19.2275
19.2829
19.337
19.3907
19.4449
19.4993
19.5522
19.6014
19.645
19.6818
19.7109
18.9663
18.9299
18.896
18.8699
18.8562
18.8569
18.8727
18.9024
18.9423
18.9881
19.0359
19.0828
19.1271
19.1676
19.2038
19.2358
19.2648
19.2922
19.3183
19.3422
19.3624
19.3777
19.3875
19.3916
19.0845
19.0454
19.0115
18.9865
18.9749
18.9784
18.9978
19.0314
19.0751
19.1239
19.1734
19.2204
19.2635
19.302
19.3351
19.3628
19.3862
19.4071
19.4261
19.4422
19.4543
19.4613
19.4628
19.4586
19.2067
19.1688
19.1375
19.1161
19.109
19.1178
19.1433
19.1839
19.235
19.2909
19.3465
19.3983
19.4449
19.4857
19.5203
19.5487
19.5723
19.5929
19.6112
19.6263
19.6369
19.642
19.6414
19.6348
19.1993
19.1615
19.1303
19.1091
19.1022
19.1112
19.1373
19.1786
19.2308
19.2879
19.3442
19.3959
19.4414
19.4801
19.5116
19.5364
19.5563
19.5735
19.5885
19.6008
19.6088
19.6116
19.6088
19.6002
19.0245
18.9908
18.9661
18.9548
18.9587
18.979
19.0141
19.0598
19.1103
19.1602
19.2056
19.2444
19.2758
19.2996
19.3168
19.3296
19.3404
19.3502
19.3581
19.3629
19.3636
19.3595
19.3505
18.9023
18.8684
18.8421
18.8283
18.8292
18.8456
18.8767
18.9185
18.9656
19.0129
19.0562
19.0933
19.1231
19.1455
19.1617
19.1743
19.1855
19.1964
19.2062
19.2138
19.218
19.2179
19.2129
18.8672
18.8418
18.8216
18.8121
18.8164
18.8353
18.8683
18.9129
18.9652
19.0203
19.0741
19.1237
19.1678
19.2061
19.2399
19.2708
19.301
19.3315
19.3612
19.3885
19.4114
19.4291
19.4412
19.0012
18.9985
18.9971
19.0032
19.0222
19.0554
19.1029
19.1659
19.243
19.3312
19.4259
19.5225
19.6177
19.7094
19.7979
19.8853
19.9737
20.0632
20.1515
20.2351
20.3113
20.3786
20.4366
19.3851
19.4269
19.4752
19.535
19.6128
19.7163
19.8495
20.0135
20.2058
20.4187
20.6413
20.8652
21.0873
21.3095
21.5355
21.768
22.0071
22.2454
22.4733
22.6831
22.8713
23.0372
20.067
20.1987
20.353
20.5382
20.7643
21.0423
21.382
21.7862
22.2421
22.7359
23.2452
23.7528
24.2533
24.7631
25.2983
25.8752
26.5142
27.1847
27.8412
28.4491
28.9894
29.4576
21.5013
21.7963
22.1644
22.6252
23.1991
23.9041
24.7494
25.7261
26.7825
27.8422
28.8891
29.8995
30.9189
32.0141
33.2791
34.8216
36.9744
39.3967
41.7771
43.9347
45.7666
47.2756
24.5679
25.1451
25.918
26.9301
28.2257
29.8272
31.7166
33.817
35.9636
37.999
39.7747
41.5279
43.5113
46.0981
49.7585
54.9693
66.2327
76.6155
85.6423
93.2722
99.5596
104.772
32.8534
34.1848
35.6414
37.3362
39.5349
42.2818
45.5526
49.1783
52.7488
55.9228
55.8384
57.0975
60.368
66.8514
78.8265
98.1687
182.193
203.098
221.016
237.099
250.471
262.487
50.8578
52.4922
54.4302
56.71
59.2298
62.4414
66.7141
72.1355
72.2632
74.2521
79.6475
90.565
118.107
169.364
245.875
331.424
392.216
418.662
395.944
381.174
367.741
351.623
74.4005
74.8223
75.6042
76.9299
79.1214
82.3554
87.6281
87.7314
91.2542
100.939
124.159
146.199
275.533
481.108
714.838
548.658
218.832
144.296
147.096
168.038
194.583
206.32
94.1414
92.6939
91.7919
91.5987
92.4089
95.2412
102.278
102.996
113.138
145.486
200.632
563.347
645.855
471.339
265.694
132.652
115.978
125.309
137.984
154.529
151.537
155.665
106.419
103.051
100.25
98.1013
96.8567
97.2831
97.1783
101.571
122.431
149.915
383.999
843.82
633.464
216.11
123.44
123.153
121.384
118.54
120.712
124.772
122.634
116.842
111.708
107.165
103.443
101.085
100.735
100.111
108.248
135.106
189.226
383.501
719.323
574.748
220.612
137.202
118.697
113.207
121.19
121.457
124.863
131.79
137.816
130.949
124.67
118.861
113.471
108.641
105.102
103.715
102.926
106.87
118.48
160.923
251.223
389.727
515.237
568.822
520.46
442.081
417.831
401.931
392.316
382.384
119.707
115.162
111.11
107.841
105.645
104.265
103.999
108.502
120.832
147.866
187.819
233.603
226.025
237.005
246.139
255.133
262.958
271.097
106.482
105.497
104.38
103.156
102.16
101.354
101.105
101.759
103.662
107.022
111.758
121.063
128.071
133.211
136.871
139.242
140.618
131.354
129.615
128.497
128.2
129.048
131.316
135.835
138.12
154.111
195.292
475.023
744.471
92.1584
93.9879
96.1443
98.8255
101.782
105.43
110.619
118.685
122.849
137.929
167.797
243.416
437.58
576.533
645.072
632.62
651.88
51.1457
54.1871
57.3297
60.5405
64.357
69.0131
74.5818
81.0166
87.8429
92.3221
101.857
111.63
125.034
140.172
159.958
187.331
222.641
259.029
31.4726
33.1
35.047
37.442
40.3674
43.8596
47.8865
52.3023
56.7447
60.3057
63.2998
66.0367
68.7475
71.6814
75.169
79.5724
85.205
92.5034
103.113
111.542
118.312
123.824
24.9007
25.8105
26.8735
28.1327
29.6417
31.4338
33.5074
35.8047
38.1818
40.3541
42.3462
44.2042
45.9576
47.6779
49.454
51.3898
53.5587
56.0099
58.7471
61.373
63.7118
65.7125
21.7652
22.2095
22.6904
23.2083
23.7815
24.435
25.1927
26.0698
27.0622
28.1368
29.2461
30.3379
31.3939
32.4089
33.3911
34.3577
35.3288
36.3223
37.336
38.3386
39.274
40.1093
40.8356
41.4442
20.9692
21.2281
21.4689
21.6872
21.8956
22.1147
22.3785
22.7088
23.1079
23.5687
24.0722
24.5894
25.1003
25.5976
26.0837
26.5585
27.0231
27.4792
27.925
28.3514
28.7442
29.0938
29.3992
29.6628
20.3809
20.5018
20.6034
20.6841
20.7706
20.8755
21.0032
21.157
21.3382
21.5438
21.7688
22.0046
22.2419
22.4751
22.6988
22.9144
23.1216
23.3211
23.5124
23.6958
23.8634
24.0126
24.143
24.2561
20.2038
20.2343
20.2514
20.2697
20.3026
20.3504
20.4154
20.4968
20.5914
20.6954
20.8051
20.9175
21.0295
21.1387
21.2421
21.3385
21.4286
21.5132
21.5942
21.6693
21.7366
21.794
21.8412
21.8789
20.4338
20.4164
20.3919
20.3743
20.3689
20.3786
20.403
20.4415
20.4901
20.5446
20.6007
20.6562
20.7095
20.7593
20.804
20.8433
20.8782
20.9099
20.939
20.9644
20.9845
20.9983
21.0056
21.0064
20.8202
20.7836
20.748
20.7184
20.6995
20.6945
20.7036
20.7251
20.7553
20.7896
20.8237
20.8548
20.8827
20.9068
20.9258
20.9391
20.9484
20.9555
20.9609
20.9636
20.9618
20.9548
20.9426
20.9249
21.2869
21.2443
21.205
21.1717
21.149
21.1411
21.1487
21.1684
21.1965
21.2277
21.257
21.2814
21.3009
21.3156
21.3245
21.3272
21.3256
21.3218
21.3164
21.308
21.295
21.2766
21.2526
21.2232
21.2725
21.2306
21.192
21.1595
21.1375
21.1304
21.139
21.1601
21.1901
21.2231
21.2538
21.2787
21.2974
21.31
21.3157
21.3145
21.3091
21.3019
21.2933
21.282
21.2664
21.2457
21.2196
21.1882
20.7487
20.7138
20.685
20.6669
20.6628
20.6731
20.6963
20.7287
20.765
20.7999
20.8295
20.8531
20.8703
20.8802
20.8837
20.8832
20.8813
20.8787
20.8743
20.8664
20.8543
20.8378
20.8165
20.3738
20.3494
20.3319
20.3264
20.3358
20.3603
20.3993
20.4489
20.5038
20.5585
20.6094
20.655
20.6947
20.7268
20.7514
20.7706
20.7875
20.8031
20.8166
20.8266
20.8321
20.8327
20.8282
20.1976
20.2131
20.229
20.2591
20.3039
20.3663
20.4455
20.5383
20.64
20.7457
20.8514
20.9538
21.0513
21.1392
21.2172
21.2862
21.3488
21.4084
21.4637
21.5132
21.5563
21.5931
21.6241
20.4641
20.5616
20.6359
20.7151
20.8119
20.9319
21.079
21.2548
21.4562
21.6773
21.9092
22.1423
22.366
22.5721
22.764
22.9419
23.1072
23.2617
23.4084
23.542
23.6618
23.7688
23.8648
21.3389
21.5498
21.7509
21.9632
22.2284
22.5637
22.9731
23.4503
23.9751
24.5176
25.0471
25.5509
26.0262
26.4685
26.878
27.2572
27.6086
27.9316
28.2201
28.4729
28.6939
28.8894
22.5666
23.0807
23.657
24.3239
25.1097
26.0336
27.0953
28.2639
29.4729
30.6437
31.7558
32.7867
33.734
34.6023
35.4029
36.1508
36.8559
37.5087
38.0838
38.5704
38.9773
39.3205
25.9033
27.0142
28.3518
29.978
31.9321
34.2115
36.7488
39.3777
41.7851
43.871
45.7472
47.4233
48.9382
50.3316
51.669
52.9932
54.3475
55.773
57.0685
58.1345
58.9749
59.6231
34.4007
36.5345
39.1833
42.4239
46.2751
50.661
55.3792
60.0056
63.6675
66.5379
69.0237
71.2912
73.4951
75.7219
78.13
80.8883
84.3769
90.2135
94.786
98.1306
100.513
102.134
59.2925
62.8153
66.3704
70.2711
74.8689
80.166
86.0646
91.76
91.1054
91.744
94.1003
97.4754
101.482
106.331
112.558
121.251
135.696
188.238
195.18
199.736
203.044
205.683
96.5442
98.6088
101.124
104.036
107.373
111.999
119.217
118.779
122.485
134.44
161.955
191.425
217.931
242.66
265.24
299.381
342.986
369.744
389.811
369.492
348.222
328.317
126.605
125.644
125.39
126.146
128.364
132.626
131.746
140.15
165.15
206.906
406.556
593.605
951.17
645.298
795.588
759.683
528.349
286.262
258.92
252.145
257.777
244.632
145.071
141.796
139.448
138.314
139.219
144.88
144.856
165.087
196.019
617.944
2447.84
548.421
158.941
177.501
204.58
193.564
186.741
160.488
155.669
151.874
149.232
148.441
152.41
152.52
182.332
258.472
883.187
197.356
194.674
177.112
162.16
158.993
159.76
153.755
148.628
144.486
141.596
140.698
141.491
154.265
189.023
565.683
1930.53
371.077
218.769
214.49
257.776
287.442
281.821
153.541
147.071
141.426
136.745
133.078
130.896
130.227
132.347
146.19
191.648
324.482
544.471
755.158
778.247
641.384
623.738
559.87
529.274
404.396
388.715
375.201
361.526
126.261
124.213
123.015
122.973
124.505
131.223
146.333
171.296
188.557
202.247
213.162
226.275
236.238
197.588
199.169
199.533
197.913
196.94
98.1525
100.135
102.174
104.155
105.744
107.256
108.736
110.171
111.495
112.611
113.5
114.4
115.431
115.397
114.066
112.448
110.749
154.913
150.119
146.122
143.039
140.911
140.287
143.047
148.221
186.533
484.925
2408.73
141.068
139.343
138.15
137.455
137.167
137.747
139.755
141.951
157.108
208.011
344.913
554.589
605.761
609.317
602.552
590.209
574.716
598.418
101.605
104.855
107.683
110.329
113.284
116.694
120.53
124.771
127.839
137.973
151.111
165.506
176.439
185.611
195.056
205.022
216.51
230.727
56.8341
60.6958
64.4939
68.6553
73.2784
78.413
83.8802
89.4818
94.8059
99.0017
102.032
104.299
105.945
107.617
108.95
110.084
111.119
112.337
114.026
39.7067
42.2993
45.0834
48.085
51.4117
55.1416
59.2111
63.4856
67.7131
71.4721
74.5525
77.086
79.0192
80.5511
81.7465
82.8868
83.5278
83.8109
84.0834
84.409
84.7934
85.1184
85.3673
32.016
33.7026
35.3722
37.0506
38.814
40.7315
42.8398
45.1156
47.5013
49.9148
52.2255
54.2818
56.0573
57.5788
58.8511
59.8622
60.6325
61.1838
61.59
61.9017
62.1384
62.3116
62.4448
62.5596
29.5567
30.6275
31.5042
32.2024
32.7958
33.441
34.2601
35.2167
36.2982
37.4689
38.6586
39.7985
40.8546
41.8151
42.6688
43.378
43.9625
44.4317
44.8127
45.1181
45.3572
45.5416
45.6874
45.812
26.7201
27.355
27.81
28.0997
28.4258
28.786
29.1965
29.6563
30.1537
30.69
31.2436
31.7927
32.3118
32.7923
33.2272
33.6034
33.9161
34.1736
34.3867
34.5641
34.7092
34.8236
34.9145
34.9892
25.2168
25.487
25.6363
25.7786
25.946
26.1309
26.3427
26.5693
26.8031
27.0478
27.2979
27.5468
27.7833
28.0032
28.2003
28.3689
28.5063
28.6147
28.6999
28.7669
28.8184
28.8552
28.8795
28.8942
25.2815
25.318
25.302
25.2819
25.2804
25.2951
25.3244
25.3664
25.4215
25.488
25.562
25.6347
25.7038
25.7667
25.8196
25.8603
25.8884
25.9046
25.9122
25.9119
25.9029
25.8849
25.8588
25.8263
26.1918
26.1276
26.0419
25.9439
25.8434
25.7522
25.6743
25.6115
25.5612
25.5197
25.4835
25.4456
25.4081
25.3704
25.3277
25.2781
25.2235
25.1667
25.1087
25.0498
24.9886
24.9242
24.8566
24.7849
28.0803
27.9594
27.8176
27.6579
27.4929
27.3334
27.1871
27.0559
26.9384
26.8288
26.7231
26.613
26.5032
26.3944
26.2818
26.1634
26.0429
25.9238
25.8069
25.6919
25.5773
25.4616
25.3446
25.2259
28.0521
27.9342
27.7954
27.639
27.4769
27.3201
27.1763
27.0478
26.9333
26.8267
26.7233
26.6142
26.5036
26.3925
26.2758
26.153
26.0284
25.906
25.7866
25.6693
25.5526
25.435
25.3163
25.1964
26.0617
25.9772
25.8804
25.7804
25.6878
25.6081
25.5436
25.4921
25.4495
25.4118
25.371
25.3287
25.2834
25.2332
25.1758
25.1151
25.0541
24.9941
24.934
24.8728
24.8095
24.7442
24.6763
25.2099
25.1926
25.1708
25.1621
25.1687
25.1887
25.2229
25.2732
25.3349
25.4025
25.469
25.5322
25.5879
25.6375
25.6721
25.6938
25.7063
25.713
25.715
25.711
25.7005
25.6848
25.666
25.3573
25.5058
25.6435
25.8058
25.9827
26.1859
26.4025
26.6254
26.8587
27.0989
27.3403
27.5739
27.7941
27.9946
28.1671
28.3091
28.4234
28.5152
28.5908
28.6542
28.7082
28.7557
28.7986
27.353
27.796
28.0528
28.3441
28.6659
29.0344
29.4559
29.9211
30.4373
30.9854
31.5467
32.0959
32.6136
33.0879
33.5008
33.8415
34.1228
34.3566
34.5542
34.724
34.8729
35.0061
35.1328
31.0029
31.6812
32.2495
32.8917
33.7093
34.6834
35.8013
37.0463
38.3444
39.6191
40.8208
41.9236
42.9063
43.7307
44.3883
44.9159
45.3483
45.6947
45.9752
46.2124
46.4299
46.6456
34.7614
36.4409
38.2273
40.1949
42.3908
44.8056
47.3769
50.0973
52.7311
55.1046
57.1701
58.9445
60.4268
61.5904
62.4607
63.062
63.4656
63.7418
63.9395
64.1031
64.264
64.4402
45.1953
48.3431
51.8709
55.86
60.2456
64.8757
69.4876
73.7135
77.164
80.0291
82.2118
83.9199
85.2205
86.4169
86.9624
86.9082
86.6852
86.4207
86.1896
85.9916
85.8395
85.7508
67.5857
71.9539
76.8032
82.1623
87.8237
93.5281
98.8923
103.536
106.702
108.834
110.228
111.649
112.606
113.105
113.13
112.872
112.628
112.702
113.748
114.26
114.425
114.424
111.343
113.925
116.231
118.737
121.566
124.666
128.073
132.838
131.606
131.984
134.109
136.307
138.572
140.982
143.263
145.416
147.821
153.672
181.746
181.07
179.647
178.061
140.361
138.842
137.894
137.314
137.514
139.122
138.503
144.246
162.293
201.704
237.684
254.452
264.738
272.608
277.3
279.657
284.197
294.408
302.586
322.504
305.227
289.964
149.054
145.038
141.849
139.65
138.974
141.759
144.681
170.798
217.799
486.982
701.444
956.131
967.549
947.002
920.099
783.603
731.623
635.759
478.023
400.403
301.305
262.372
148.017
142.984
138.6
135.016
132.37
131.766
143.337
207.588
553.029
468.379
222.839
278.541
228.218
205.715
134.763
129.285
124.495
120.281
116.301
118.009
131.999
175.347
1202.13
291.657
225.234
210.156
217.355
159.409
153.098
147.569
142.903
139.785
139.612
142.222
175.51
555.625
528.612
468.915
331.691
362.962
327.068
153.544
148.106
143.463
139.724
136.844
135.22
134.123
142.379
194.113
442.025
1047.16
745.681
811.356
815.377
794.184
601.642
509.897
405.337
382.02
283.646
274.73
265.732
113.195
113.416
114.909
116.387
124.234
139.556
153.598
163.277
170.293
174.816
176.568
175.082
173.958
172.77
143.106
141.873
140.144
138.231
75.6548
78.5386
81.8446
84.9652
87.5879
89.4998
90.8308
91.7803
92.3988
92.5929
92.2993
91.8378
91.3009
90.5307
89.3814
87.9309
86.272
152.724
145.949
139.934
134.608
130.16
126.706
125.516
135.882
213.829
1266.16
160.248
154.806
149.729
144.783
140.143
136.196
134.264
136.353
171.952
320.567
578.533
598.205
558.644
457.1
444.206
488.04
497.139
502.169
151.697
149.238
146.686
144.279
142.157
140.978
139.628
140.243
143.852
165.987
196.311
212.537
219.33
223.646
228.014
230.273
230.706
231.344
113.235
115.246
117.211
119.361
121.712
124.665
127.419
129.819
131.726
133.565
135.845
138.084
140.36
141.733
144.145
145.621
145.81
144.718
142.866
84.0918
87.5009
90.66
93.5727
96.838
100.954
105.08
109.053
112.546
115.458
117.404
118.51
119.236
119.769
119.486
117.877
114.951
114.01
112.925
111.924
110.977
110.22
109.661
66.8409
69.8997
72.6343
75.1807
77.7296
80.4291
83.3664
86.2416
89.2937
92.1508
94.4669
96.2251
97.5129
98.4629
98.9407
99.0915
98.2248
97.0004
95.5865
94.227
93.006
91.961
91.1076
90.4491
61.0394
63.4056
64.9203
65.8304
66.6575
67.7327
69.067
70.6069
72.1841
73.7575
75.201
76.4411
77.492
78.3667
79.0031
79.6399
79.6952
79.3095
78.5782
77.7827
76.9989
76.2768
75.6447
75.1109
51.9156
53.8305
54.8018
55.4286
55.9478
56.4494
57.0376
57.7538
58.562
59.4166
60.2235
60.8997
61.4982
62.0062
62.4137
62.6664
62.7198
62.5851
62.3158
61.9676
61.5847
61.1986
60.8322
60.5008
42.691
44.0102
45.0284
45.4955
45.9234
46.4901
46.9468
47.5401
47.9697
48.337
48.6892
49.0069
49.2616
49.4754
49.646
49.7698
49.8265
49.7865
49.6585
49.471
49.2479
49.0029
48.746
48.4879
48.2374
39.4966
39.9465
40.2527
40.2925
40.2632
40.4031
40.513
40.6113
40.707
40.8082
40.9177
41.0143
41.0632
41.085
41.0748
41.0289
40.9386
40.8005
40.6225
40.4218
40.2159
40.0018
39.7806
39.5553
39.3302
39.6987
39.6833
39.5686
39.3305
39.0137
38.7368
38.4469
38.162
37.9091
37.6926
37.5061
37.3264
37.1416
36.9591
36.7792
36.5814
36.3593
36.1178
35.8671
35.6174
35.371
35.1291
34.8885
34.648
34.4087
45.9356
45.5615
45.0297
44.3951
43.7755
43.1154
42.4408
41.7967
41.2053
40.6564
40.1283
39.616
39.1272
38.6578
38.1903
37.7158
37.2426
36.7789
36.3341
35.9109
35.5083
35.1213
34.7466
34.3825
45.9351
45.5696
45.0451
44.4171
43.805
43.1498
42.4781
41.8347
41.2431
40.6945
40.1664
39.6518
39.1609
38.6883
38.2121
37.7288
37.2493
36.7811
36.334
35.9095
35.5065
35.1201
34.747
34.3856
39.588
39.4629
39.2155
38.888
38.5987
38.2831
37.9734
37.6914
37.4463
37.2328
37.0353
36.8453
36.6712
36.5058
36.3266
36.1198
35.8978
35.6681
35.4411
35.2194
35.0028
34.7889
34.5775
34.3706
39.832
39.8565
39.8086
39.8989
39.9642
40.02
40.0739
40.1442
40.2304
40.3213
40.3904
40.4494
40.5793
40.5853
40.5484
40.4663
40.3452
40.2016
40.0559
39.9069
39.7534
39.5991
39.4492
44.2592
44.7564
45.2218
45.8443
46.3373
46.9436
47.3549
47.684
48.0068
48.3333
48.6391
48.9403
49.3385
49.5664
49.7304
49.7964
49.7729
49.6986
49.591
49.4643
49.3289
49.1961
49.0802
54.3001
55.2773
55.8069
56.2049
56.5456
56.9498
57.4868
58.1522
58.9361
59.7712
60.5674
61.3434
62.0451
62.6538
63.1053
63.351
63.4093
63.3521
63.2177
63.0432
62.8643
62.7103
62.5981
63.9628
64.878
65.6582
66.6809
67.9847
69.5435
71.259
73.0481
74.7961
76.4091
77.8487
79.0939
80.1009
80.7761
81.3597
81.4193
81.0048
80.4952
79.9798
79.5187
79.1518
78.9024
71.2051
73.9009
76.6032
79.4727
82.661
85.902
89.3615
92.6015
95.3161
97.4967
99.2234
100.605
101.487
102.11
101.7
100.836
99.6583
98.494
97.4512
96.5983
95.9738
95.6
90.9437
94.0417
97.5181
101.869
106.247
110.465
114.188
117.289
119.403
120.823
121.905
122.925
123.044
119.553
114.345
118.5
117.529
116.542
115.578
114.87
114.473
114.445
119.943
122.029
124.306
127.103
129.718
131.844
133.447
135.019
137.389
140.17
142.923
139.301
135.567
133.782
132.226
130.261
147.066
145.508
144.113
144.492
144.877
145.594
150.401
147.71
145.153
142.704
141.072
139.32
139.547
139.172
145.534
157.597
167.132
173.373
177.662
180.78
182.148
181.446
179.979
178.098
177.573
210.891
210.891
210.566
153.339
148.049
142.927
138.152
134.097
132.551
133.997
150.921
201.526
271.951
294.9
298.088
300.844
306.093
303.411
298.671
299.745
299.569
301.113
298.879
352.094
318.235
143.721
137.59
132.261
127.899
124.58
123.629
133.099
203.697
418.977
674.961
952.373
665.073
663.194
662.297
498.837
732.796
618.34
573.524
528.081
413.751
276.647
253.488
143.277
138.261
133.572
129.59
126.044
125.194
137.666
266.781
445.934
273.612
249.792
229.877
153.035
147.153
141.851
137.154
133.424
132.277
143.986
374.871
369.294
246.949
216.286
291.85
151
144.983
139.832
135.573
132.545
131.985
140.992
203.197
733.436
531.039
367.414
316.28
132.564
128.011
124.247
121.398
119.91
121.209
121.048
141.447
260.336
558.055
844.195
602.414
527.05
498.377
684.364
740.628
687.427
462.628
313.605
277.424
196.847
187.155
91.3828
91.8917
94.1674
97.5503
110.648
126.717
130.617
131.377
131.368
131.066
132.405
132.222
130.015
128.008
125.475
102.368
100.662
98.5854
60.3521
62.0632
64.2841
66.4192
67.8895
68.7575
69.3949
69.8165
69.9663
69.8284
69.4754
69.1042
68.7574
68.2036
67.407
66.3398
65.0674
154.01
146.531
139.475
132.885
126.781
121.607
121.069
134.537
332.685
155.517
148.296
141.338
134.683
128.424
122.781
119.356
123.654
179.008
536.207
575.415
561.909
482.765
464.297
469.472
599.791
563.603
775.962
162.795
155.744
148.322
140.709
133.674
129.114
123.397
121.188
133.287
178.99
229.507
263.386
281.534
296.174
307.12
300.039
297.665
296.903
153.929
151.152
148.769
146.487
143.649
140.159
135.514
131.503
128.254
128.752
138.299
154.588
170.518
184.415
197.255
206.082
207.138
205.185
199.567
218.62
140.441
138.186
135.141
132.319
132.344
132.566
133.333
133.673
132.906
131.626
131.837
134.384
138.902
140.412
145.087
149.119
151.515
150.162
147.062
158.773
157.314
155.239
153.129
123.104
122.424
122
121.859
122.42
123.241
123.631
124.151
124.27
123.809
123.272
123.193
123.829
124.49
124.961
124.026
122.846
121.064
122.662
123.009
122.841
122.347
121.715
121.077
121.605
124.137
124.276
122.736
120.467
118.006
115.531
114.535
118.118
116.547
115.114
113.899
112.909
112.187
111.835
110.958
108.744
106.033
105.187
104.213
103.301
102.474
101.744
101.114
126.008
128.397
128.006
125.732
122.407
118.167
113.618
109.406
106.886
105.478
103.902
106.621
104.649
102.981
101.5
100.035
98.233
96.1908
94.3545
92.6559
91.1059
89.738
88.5494
87.5251
103.072
106.074
108.551
109.209
108.281
126.697
122.648
116.141
106.438
99.6202
94.8611
91.3478
98.1846
95.8082
93.6228
91.6005
89.6413
87.6238
85.596
83.7291
81.9491
80.2806
78.7526
77.371
76.1297
88.4015
89.7385
90.9707
90.9539
89.6944
106.206
103.372
100.402
97.3378
94.4246
91.7608
89.2302
86.7779
84.4367
82.2765
80.2497
78.274
76.2884
74.3548
72.5428
70.8867
69.3168
67.8531
66.5005
65.2538
67.6577
67.8663
68.2203
68.0147
67.1838
81.7544
80.5025
79.0979
77.6782
76.3715
75.1699
74.1296
72.8145
71.2906
69.771
68.2556
66.6808
65.0514
63.4295
61.8949
60.5123
59.1938
57.9531
56.7905
55.7025
78.3612
77.825
76.5297
74.478
95.406
92.3165
89.1428
86.0856
83.2683
80.7994
78.802
76.6921
74.406
72.1889
70.0638
67.9276
65.7875
63.7094
61.7645
60.0257
58.3961
56.8833
55.4806
54.1785
87.8146
87.538
86.1472
83.7028
95.991
92.8478
89.613
86.4932
83.6118
81.0848
79.0512
76.9172
74.6236
72.4214
70.3009
68.1506
65.9964
63.9079
61.9554
60.2124
58.5817
57.0703
55.6715
54.376
69.3424
69.0402
68.1781
66.6749
81.1895
79.5461
78.1391
76.6785
75.2999
74.0544
73.0336
71.8108
70.4617
69.2039
67.8422
66.389
64.866
63.3383
61.8884
60.5955
59.3617
58.2015
57.1173
56.1072
75.0597
75.2694
74.6116
103.955
101.312
98.457
95.4323
92.4919
89.8094
87.3496
85.1285
83.1169
79.9084
78.9765
77.3434
75.6532
73.9787
72.4
70.9595
69.5843
68.2979
67.1108
66.0238
96.5527
96.7832
95.8678
125.899
122.163
115.762
105.344
97.2332
91.1087
86.5417
97.6951
95.6968
92.1453
91.3129
89.7727
88.1055
86.3684
84.7509
83.1856
81.7023
80.3412
79.1195
78.0397
120.054
121.039
120.038
117.683
114.16
110.252
106.239
102.522
99.5531
97.1336
107.257
105.621
104.351
103.067
101.793
100.309
98.4344
96.7082
95.1142
93.6728
92.4276
91.383
90.5291
128.302
126.426
123.556
119.774
115.68
112.128
118.823
117.226
115.982
115.079
114.39
113.903
113.735
113.153
110.11
105.455
108.021
107.243
106.538
105.937
105.459
105.117
120.506
119.745
118.867
118.163
117.947
124.95
125.195
124.952
124.638
124.823
125.73
126.593
127.3
124.246
120.505
117.726
126.762
127.497
127.649
127.451
127.125
126.839
132.91
133.216
133.221
131.481
130.186
130.345
130.572
130.307
133.498
136.619
141.811
139.187
138.606
139.939
141.194
140.377
138.244
166.829
165.447
163.421
161.434
159.809
149.442
147.017
144.064
141.473
138.345
135.481
132.623
131.259
135.166
144.303
155.047
165.895
175.853
183.01
186.701
185.952
182.932
231.325
221.511
214.747
209.044
204.738
154.463
147.511
140.152
133.347
130.412
125.942
123.405
129.8
157.282
193.28
221.674
240.643
255.772
267.521
251.773
263.713
263.606
260.801
254.328
289.515
275.169
263.526
146.619
140.183
134.011
128.148
122.407
120.379
121.797
152.667
258.689
336.318
373.645
383.181
395.273
407.745
372.751
446.495
460.266
458.418
429.667
410.724
269.849
213.709
146.666
140.135
133.852
127.859
122.572
121.22
129.068
196.165
963.035
872.357
634.026
653.937
597.346
610.855
1046.67
442.678
504.101
379.986
268.459
236.77
258.561
273.207
145.342
138.855
132.92
127.485
123.031
122.824
142.889
644.268
590.748
334.569
314.634
305.894
142.649
136.226
130.655
125.848
122.282
123.305
141.208
354.505
383.406
318.049
133.598
127.506
122.32
118.21
115.721
117.131
144.65
457.058
788.347
540.983
405.648
265.729
110.456
106.223
102.731
100.124
98.7456
99.1872
106.662
140.05
638.422
819.173
630.017
399.157
351.543
321.86
328.7
624.677
818.042
605.053
312.474
247.474
153.805
141.389
74.2492
74.9981
75.8994
82.9671
97.1661
103.727
104.323
103.328
102.086
100.909
100.002
99.7082
99.0586
96.6702
93.977
76.7223
75.1448
73.2245
52.4307
53.245
54.3643
55.2658
55.6752
55.8838
55.8626
55.6982
55.3917
54.9536
54.4622
54.0588
53.7336
53.2847
52.6563
51.7729
50.7353
144.71
137.987
131.821
126.121
120.934
116.568
116.006
136.426
838.125
143.811
136.855
130.606
124.983
119.877
116.908
113.443
117.611
188.47
523.589
626.078
735.839
782.399
511.267
766.171
444.009
317.196
346.396
286.335
152.655
144.173
136.486
130.927
122.943
117.363
113.114
114.593
148.428
213.31
382.144
516.11
573.112
796.475
666.599
469.985
415.189
383.606
159.016
155.271
151.497
146.419
138.72
131.411
124.761
122.121
127.416
131.843
168.539
222.691
279.831
336.492
450.861
567.929
636.185
577.609
417.067
306.404
144.339
141.687
141.028
141.216
140.707
139.815
137.632
134.91
133.71
135.939
142.777
192.524
191.296
204.52
223.427
243.87
266.885
283.158
307.351
264
238.392
218.684
203.659
144.334
142.951
143.127
140.151
137.075
135.645
134.455
133.119
146.184
146.961
151.553
153.671
154.801
158.167
162.483
168.006
174.273
178.998
197.719
188.853
179.971
171.793
164.539
204.317
202.13
194.399
180.826
165.546
152.197
142.223
134.819
132.612
133.092
133.715
133.678
132.238
131.426
130.803
131.044
130.053
129.087
139.479
139.829
138.689
136.695
134.271
234.139
232.391
221.76
208.718
196.155
183.451
171.12
160.195
150.149
141.433
134.456
128.285
124.455
122.497
120.586
118.067
115.786
113.053
110.53
112.65
112.638
112.254
111.567
110.652
248.953
242.388
238.414
229.467
216.342
201.624
187.017
175.514
166.5
158.698
151.995
145.047
136.674
128.466
121.993
116.933
112.732
108.96
105.249
106.534
104.255
102.226
100.401
98.7435
97.2196
253.889
248.146
244.751
237.52
224.409
207.683
189.748
173.816
160.577
150.08
142.057
135.653
129.715
123.521
117.804
112.847
108.287
103.853
99.5092
96.0572
99.3688
96.6072
94.0131
91.6164
89.4163
172.454
174.742
178.602
179.016
174.366
166.905
207.82
194.629
181.954
170.274
160.374
149.358
133.962
122.567
113.372
106.304
100.604
95.5166
90.711
86.522
93.4654
90.7701
88.1267
85.5935
83.1953
197.246
196.137
198.033
193.914
185.333
175.498
223.783
207.519
191.882
178.03
166.713
156.044
140.927
129.123
118.751
110.307
103.517
97.4132
91.6889
86.6197
95.1514
92.213
89.2917
86.4586
83.7491
226.23
226.895
219.88
208.841
195.045
224.568
208.391
192.797
178.896
167.435
156.77
141.764
130.022
119.801
111.644
105.011
98.8741
93.0934
87.9353
95.9694
93.0674
90.1599
87.3258
84.6061
171.855
174.573
173.513
167.779
160.321
151.561
197.622
185.221
173.282
162.89
152.544
137.175
125.524
115.948
108.46
102.372
96.7624
91.4541
86.7657
96.0304
93.2911
90.5666
87.9394
85.4475
218.42
215.308
206.162
193.701
179.607
165.967
153.588
143.038
134.562
128.22
122.847
117.607
113.176
109.414
105.492
101.436
97.2876
93.6171
101.179
98.3733
95.738
93.3108
91.0948
239.797
232.85
220.465
205.16
189.334
176.317
165.817
157.007
149.837
143.649
136.718
129.599
123.991
119.199
114.535
110.102
105.782
108.15
105.77
103.663
101.794
100.125
98.6238
237.459
227.311
214.492
202.891
191.36
179.999
169.935
159.855
150.534
142.38
134.51
127.845
123.162
119.576
116.415
113.516
110.45
107.639
113.382
113.322
112.976
112.391
111.624
223.855
210.939
196.744
181.681
166.944
154.235
143.317
135.304
130.812
128.225
134.468
132.994
129.658
125.664
123.487
121.267
119.291
139.122
139.723
138.908
137.255
135.157
177.221
175.382
164.793
152.017
142.428
136.224
132.365
145.852
146.873
151.85
154.177
149.579
145.742
145.199
145.975
146.454
148.662
197.173
189.067
180.752
172.947
165.941
135.247
134.602
134.972
136.65
136.852
136.564
135.681
136.028
137.992
193.336
184.452
180.383
186.396
194.331
194.251
226.291
234.207
265.845
240.159
220.301
205.052
193.118
151.836
148.115
142.127
136.795
132.001
129.54
130.983
138.7
154.067
183.089
218.116
254.515
266.664
286.657
340.558
356.914
381.726
302.813
269.746
245.913
228.447
213.634
144.312
136.693
132.739
125.29
119.123
115.564
121.207
131.564
164.479
303.797
372.731
442.492
607.177
681.064
1084.35
574.32
396.18
351.17
320.285
263.034
238.206
208.924
136.514
130.315
124.749
119.703
116.813
112.599
113.963
166.412
244.588
444.007
589.852
625.871
768.384
550.336
436.022
386.071
283.747
248.719
231.726
187.116
200.665
137.953
131.861
126.237
121.115
116.796
115.213
124.134
269.429
561.995
857.839
1078.71
674.407
532.865
1821.07
382.443
339.562
551.872
503.844
240.648
207.492
287.167
295.35
139.875
133.36
127.434
122.251
118.408
118.762
135.518
474.838
402.41
328.766
138.25
131.742
125.978
121.165
118.181
121.181
160.908
542.786
444.625
318.27
129.368
123.638
118.698
114.772
112.639
115.11
161.559