/*--------------------------------*- C++ -*----------------------------------*\
  =========                 |
  \\      /  F ield         | OpenFOAM: The Open Source CFD Toolbox
   \\    /   O peration     | Website:  https://openfoam.org
    \\  /    A nd           | Version:  13
     \\/     M anipulation  |
\*---------------------------------------------------------------------------*/
FoamFile
{
    format      ascii;
    class       volScalarField;
    location    "200";
    object      k;
}
// * * * * * * * * * * * * * * * * * * * * * * * * * * * * * * * * * * * * * //

dimensions      [0 2 -2 0 0 0 0];

internalField   nonuniform List<scalar> 
172290
(
0.623748
0.617446
0.61126
0.605187
0.599222
0.593364
0.58761
0.581956
0.576401
0.570942
0.565577
0.560303
0.555118
0.55002
0.545006
0.540076
0.535226
0.530455
0.525761
0.521142
0.516596
0.512123
0.507719
0.503384
0.499116
0.494914
0.490776
0.4867
0.482686
0.478732
0.474837
0.470999
0.467217
0.463491
0.459818
0.456199
0.452632
0.449115
0.445648
0.442231
0.438861
0.435539
0.432263
0.429032
0.425847
0.422705
0.419607
0.416551
0.413538
0.410567
0.407637
0.404747
0.401898
0.399089
0.39632
0.39359
0.3909
0.38825
0.385639
0.383067
0.380536
0.378045
0.375594
0.373185
0.370816
0.368489
0.366203
0.36396
0.361759
0.359599
0.357482
0.355405
0.353369
0.351371
0.349411
0.347485
0.345592
0.623748
0.617446
0.61126
0.605187
0.599222
0.593364
0.587609
0.581956
0.576401
0.570942
0.565577
0.560303
0.555118
0.55002
0.545006
0.540075
0.535226
0.530454
0.52576
0.521141
0.516596
0.512122
0.507719
0.503384
0.499116
0.494914
0.490775
0.4867
0.482686
0.478731
0.474836
0.470998
0.467217
0.46349
0.459818
0.456198
0.452631
0.449114
0.445647
0.44223
0.43886
0.435538
0.432262
0.429031
0.425845
0.422704
0.419605
0.41655
0.413537
0.410565
0.407635
0.404745
0.401896
0.399087
0.396318
0.393588
0.390898
0.388247
0.385636
0.383065
0.380534
0.378043
0.375593
0.373183
0.370815
0.368488
0.366204
0.363961
0.361761
0.359603
0.357487
0.355412
0.353377
0.351382
0.349424
0.347501
0.34561
0.623748
0.617446
0.61126
0.605187
0.599222
0.593364
0.587609
0.581956
0.576401
0.570942
0.565577
0.560303
0.555118
0.550019
0.545006
0.540075
0.535225
0.530454
0.52576
0.521141
0.516596
0.512122
0.507719
0.503384
0.499116
0.494913
0.490775
0.486699
0.482685
0.478731
0.474835
0.470997
0.467216
0.463489
0.459817
0.456197
0.45263
0.449113
0.445646
0.442228
0.438858
0.435536
0.43226
0.429029
0.425843
0.422701
0.419603
0.416547
0.413534
0.410562
0.407632
0.404742
0.401893
0.399083
0.396314
0.393584
0.390894
0.388244
0.385633
0.383062
0.380531
0.378041
0.375591
0.373182
0.370815
0.368489
0.366206
0.363965
0.361767
0.359612
0.357499
0.355428
0.353398
0.351407
0.349455
0.347537
0.345653
0.623748
0.617446
0.61126
0.605187
0.599222
0.593364
0.587609
0.581956
0.576401
0.570942
0.565577
0.560303
0.555118
0.550019
0.545006
0.540075
0.535225
0.530454
0.52576
0.521141
0.516596
0.512122
0.507718
0.503383
0.499115
0.494913
0.490774
0.486699
0.482684
0.47873
0.474834
0.470996
0.467215
0.463488
0.459815
0.456196
0.452628
0.449111
0.445644
0.442226
0.438856
0.435533
0.432257
0.429026
0.42584
0.422698
0.4196
0.416544
0.41353
0.410558
0.407628
0.404738
0.401888
0.399079
0.396309
0.393579
0.390889
0.388239
0.385628
0.383057
0.380527
0.378037
0.375588
0.37318
0.370814
0.368491
0.36621
0.363972
0.361777
0.359626
0.357518
0.355453
0.353429
0.351446
0.3495
0.347592
0.345716
0.623748
0.617446
0.61126
0.605187
0.599222
0.593364
0.587609
0.581956
0.576401
0.570942
0.565577
0.560303
0.555117
0.550019
0.545006
0.540075
0.535225
0.530454
0.52576
0.521141
0.516595
0.512121
0.507718
0.503383
0.499115
0.494912
0.490774
0.486698
0.482683
0.478729
0.474833
0.470995
0.467213
0.463486
0.459813
0.456194
0.452626
0.449109
0.445641
0.442223
0.438853
0.43553
0.432253
0.429022
0.425836
0.422694
0.419595
0.416539
0.413525
0.410553
0.407622
0.404732
0.401882
0.399072
0.396303
0.393573
0.390883
0.388232
0.385622
0.383052
0.380522
0.378033
0.375585
0.373179
0.370815
0.368494
0.366216
0.363982
0.361792
0.359647
0.357546
0.355488
0.353473
0.3515
0.349566
0.34767
0.345808
0.623748
0.617446
0.61126
0.605187
0.599222
0.593364
0.587609
0.581956
0.576401
0.570942
0.565577
0.560302
0.555117
0.550019
0.545006
0.540075
0.535225
0.530454
0.525759
0.52114
0.516595
0.512121
0.507717
0.503382
0.499114
0.494911
0.490772
0.486697
0.482682
0.478727
0.474831
0.470993
0.467211
0.463484
0.459811
0.456191
0.452623
0.449106
0.445638
0.44222
0.438849
0.435526
0.432249
0.429017
0.425831
0.422688
0.419589
0.416533
0.413518
0.410546
0.407615
0.404724
0.401874
0.399064
0.396295
0.393565
0.390875
0.388224
0.385614
0.383045
0.380515
0.378028
0.375581
0.373177
0.370816
0.368498
0.366224
0.363996
0.361812
0.359675
0.357582
0.355535
0.353533
0.351573
0.349654
0.347775
0.34593
0.623748
0.617446
0.61126
0.605187
0.599222
0.593364
0.587609
0.581956
0.576401
0.570942
0.565576
0.560302
0.555117
0.550019
0.545005
0.540075
0.535224
0.530453
0.525759
0.52114
0.516594
0.51212
0.507716
0.503381
0.499113
0.49491
0.490771
0.486695
0.48268
0.478726
0.47483
0.470991
0.467209
0.463481
0.459808
0.456188
0.45262
0.449102
0.445634
0.442215
0.438845
0.435521
0.432244
0.429012
0.425825
0.422682
0.419582
0.416525
0.413511
0.410538
0.407606
0.404715
0.401865
0.399055
0.396285
0.393555
0.390865
0.388215
0.385605
0.383036
0.380508
0.378022
0.375577
0.373176
0.370818
0.368504
0.366236
0.364014
0.361838
0.35971
0.357629
0.355596
0.353609
0.351668
0.349769
0.347911
0.34609
0.623748
0.617446
0.61126
0.605187
0.599222
0.593364
0.587609
0.581956
0.576401
0.570942
0.565576
0.560302
0.555117
0.550019
0.545005
0.540074
0.535224
0.530453
0.525758
0.521139
0.516593
0.512119
0.507715
0.50338
0.499112
0.494909
0.49077
0.486694
0.482679
0.478724
0.474827
0.470988
0.467206
0.463478
0.459805
0.456184
0.452616
0.449098
0.44563
0.44221
0.438839
0.435515
0.432237
0.429005
0.425818
0.422674
0.419574
0.416517
0.413502
0.410528
0.407596
0.404705
0.401854
0.399044
0.396274
0.393544
0.390854
0.388204
0.385595
0.383027
0.3805
0.378015
0.375573
0.373175
0.370821
0.368512
0.366251
0.364037
0.361871
0.359755
0.357689
0.355673
0.353706
0.351788
0.349916
0.348087
0.346297
0.623748
0.617446
0.61126
0.605187
0.599222
0.593364
0.587609
0.581956
0.576401
0.570942
0.565576
0.560302
0.555117
0.550018
0.545005
0.540074
0.535224
0.530452
0.525758
0.521138
0.516593
0.512118
0.507714
0.503379
0.49911
0.494907
0.490768
0.486692
0.482676
0.478721
0.474825
0.470986
0.467203
0.463475
0.459801
0.45618
0.452611
0.449093
0.445624
0.442205
0.438833
0.435509
0.432231
0.428998
0.42581
0.422666
0.419565
0.416507
0.413492
0.410518
0.407585
0.404694
0.401843
0.399032
0.396261
0.393531
0.390841
0.388192
0.385584
0.383016
0.380491
0.378008
0.375569
0.373174
0.370825
0.368523
0.366269
0.364065
0.361912
0.359812
0.357764
0.35577
0.353829
0.35194
0.350102
0.348311
0.346563
0.623748
0.617446
0.61126
0.605187
0.599222
0.593364
0.587609
0.581956
0.576401
0.570942
0.565576
0.560302
0.555117
0.550018
0.545005
0.540074
0.535223
0.530452
0.525757
0.521138
0.516592
0.512117
0.507713
0.503378
0.499109
0.494905
0.490766
0.48669
0.482674
0.478719
0.474822
0.470983
0.467199
0.463471
0.459797
0.456176
0.452606
0.449088
0.445619
0.442199
0.438827
0.435502
0.432223
0.42899
0.425801
0.422656
0.419555
0.416497
0.413481
0.410506
0.407573
0.404681
0.401829
0.399018
0.396248
0.393517
0.390828
0.388179
0.385571
0.383005
0.380481
0.378001
0.375565
0.373175
0.370832
0.368537
0.366293
0.364101
0.361963
0.359881
0.357857
0.35589
0.353982
0.352132
0.350338
0.348597
0.346904
0.623748
0.617446
0.61126
0.605187
0.599222
0.593364
0.587609
0.581956
0.576401
0.570942
0.565576
0.560302
0.555116
0.550018
0.545004
0.540073
0.535223
0.530451
0.525756
0.521137
0.516591
0.512116
0.507712
0.503376
0.499107
0.494904
0.490764
0.486687
0.482672
0.478716
0.474819
0.470979
0.467196
0.463467
0.459793
0.456171
0.452601
0.449082
0.445613
0.442192
0.438819
0.435494
0.432214
0.428981
0.425791
0.422646
0.419544
0.416485
0.413468
0.410493
0.40756
0.404667
0.401815
0.399004
0.396233
0.393502
0.390813
0.388164
0.385558
0.382993
0.380471
0.377994
0.375562
0.373177
0.370841
0.368555
0.366323
0.364146
0.362026
0.359967
0.357971
0.356039
0.354172
0.352372
0.350636
0.348961
0.347343
0.623748
0.617446
0.61126
0.605187
0.599222
0.593364
0.587609
0.581956
0.576401
0.570941
0.565576
0.560302
0.555116
0.550018
0.545004
0.540073
0.535222
0.53045
0.525756
0.521136
0.51659
0.512115
0.507711
0.503375
0.499105
0.494902
0.490762
0.486685
0.482669
0.478713
0.474816
0.470976
0.467192
0.463463
0.459788
0.456166
0.452595
0.449076
0.445606
0.442185
0.438812
0.435485
0.432205
0.428971
0.425781
0.422635
0.419533
0.416473
0.413455
0.41048
0.407545
0.404652
0.4018
0.398988
0.396217
0.393486
0.390797
0.388149
0.385544
0.382981
0.380461
0.377987
0.37556
0.373181
0.370853
0.368578
0.366359
0.3642
0.362103
0.360072
0.358111
0.356222
0.354409
0.352672
0.351012
0.349426
0.347909
0.623748
0.617446
0.61126
0.605187
0.599222
0.593364
0.587609
0.581956
0.5764
0.570941
0.565576
0.560301
0.555116
0.550017
0.545003
0.540072
0.535222
0.53045
0.525755
0.521135
0.516589
0.512114
0.507709
0.503373
0.499104
0.4949
0.49076
0.486682
0.482666
0.47871
0.474812
0.470972
0.467188
0.463458
0.459783
0.45616
0.452589
0.449069
0.445599
0.442177
0.438803
0.435476
0.432196
0.428961
0.42577
0.422623
0.41952
0.41646
0.413442
0.410465
0.40753
0.404636
0.401783
0.398971
0.3962
0.393469
0.390781
0.388133
0.385529
0.382968
0.380452
0.377981
0.375559
0.373188
0.370869
0.368607
0.366404
0.364265
0.362195
0.360199
0.358281
0.356447
0.354701
0.353047
0.351487
0.35002
0.348642
0.623748
0.617446
0.61126
0.605187
0.599222
0.593364
0.587609
0.581956
0.5764
0.570941
0.565576
0.560301
0.555116
0.550017
0.545003
0.540072
0.535221
0.530449
0.525754
0.521134
0.516588
0.512113
0.507708
0.503371
0.499102
0.494898
0.490757
0.48668
0.482663
0.478707
0.474808
0.470968
0.467183
0.463453
0.459778
0.456154
0.452583
0.449062
0.445591
0.442169
0.438795
0.435467
0.432186
0.42895
0.425758
0.422611
0.419507
0.416446
0.413427
0.41045
0.407514
0.404619
0.401766
0.398953
0.396182
0.393452
0.390763
0.388117
0.385514
0.382955
0.380442
0.377976
0.37556
0.373197
0.370889
0.368641
0.366457
0.364343
0.362305
0.36035
0.358486
0.35672
0.35506
0.353514
0.352087
0.350782
0.349597
0.623748
0.617446
0.61126
0.605187
0.599222
0.593364
0.587609
0.581955
0.5764
0.570941
0.565575
0.560301
0.555115
0.550017
0.545003
0.540071
0.53522
0.530448
0.525753
0.521133
0.516586
0.512111
0.507706
0.503369
0.4991
0.494895
0.490755
0.486677
0.48266
0.478703
0.474805
0.470963
0.467178
0.463448
0.459772
0.456148
0.452576
0.449055
0.445583
0.44216
0.438785
0.435457
0.432175
0.428938
0.425746
0.422598
0.419493
0.416431
0.413412
0.410434
0.407497
0.404602
0.401748
0.398935
0.396164
0.393434
0.390746
0.3881
0.385499
0.382942
0.380433
0.377972
0.375563
0.373209
0.370913
0.368682
0.36652
0.364435
0.362435
0.36053
0.358731
0.357049
0.355499
0.354094
0.352844
0.351761
0.350846
0.623748
0.617446
0.61126
0.605186
0.599222
0.593364
0.587609
0.581955
0.5764
0.570941
0.565575
0.560301
0.555115
0.550016
0.545002
0.540071
0.53522
0.530447
0.525752
0.521132
0.516585
0.51211
0.507705
0.503368
0.499098
0.494893
0.490752
0.486674
0.482657
0.478699
0.474801
0.470959
0.467174
0.463443
0.459766
0.456142
0.452569
0.449048
0.445575
0.442152
0.438776
0.435447
0.432164
0.428927
0.425734
0.422585
0.419479
0.416416
0.413396
0.410417
0.40748
0.404584
0.40173
0.398916
0.396145
0.393415
0.390727
0.388083
0.385484
0.38293
0.380424
0.377969
0.375567
0.373223
0.370942
0.368729
0.366592
0.36454
0.362585
0.360739
0.359019
0.357443
0.356032
0.354808
0.353796
0.353017
0.352484
0.623748
0.617446
0.61126
0.605186
0.599222
0.593364
0.587609
0.581955
0.5764
0.570941
0.565575
0.5603
0.555115
0.550016
0.545002
0.54007
0.535219
0.530447
0.525751
0.521131
0.516584
0.512108
0.507703
0.503366
0.499095
0.494891
0.490749
0.486671
0.482653
0.478696
0.474796
0.470954
0.467169
0.463437
0.45976
0.456135
0.452562
0.44904
0.445567
0.442143
0.438766
0.435436
0.432153
0.428915
0.425721
0.422571
0.419465
0.416401
0.413379
0.4104
0.407462
0.404566
0.401711
0.398897
0.396125
0.393396
0.390709
0.388066
0.385468
0.382918
0.380416
0.377967
0.375574
0.373241
0.370975
0.368782
0.366674
0.36466
0.362756
0.36098
0.359354
0.357907
0.35667
0.355682
0.354986
0.35462
0.354603
0.623748
0.617446
0.61126
0.605186
0.599222
0.593364
0.587609
0.581955
0.5764
0.570941
0.565575
0.5603
0.555114
0.550015
0.545001
0.540069
0.535218
0.530446
0.52575
0.52113
0.516582
0.512107
0.507701
0.503364
0.499093
0.494888
0.490747
0.486668
0.48265
0.478692
0.474792
0.47095
0.467163
0.463432
0.459754
0.456129
0.452555
0.449032
0.445558
0.442133
0.438756
0.435426
0.432141
0.428902
0.425708
0.422557
0.41945
0.416385
0.413363
0.410382
0.407444
0.404547
0.401691
0.398877
0.396106
0.393376
0.39069
0.388049
0.385453
0.382906
0.380409
0.377966
0.375582
0.373261
0.371011
0.368841
0.366763
0.364792
0.362946
0.36125
0.359735
0.358442
0.357421
0.356734
0.356448
0.356606
0.357142
0.623748
0.617446
0.61126
0.605186
0.599222
0.593364
0.587609
0.581955
0.5764
0.57094
0.565575
0.5603
0.555114
0.550015
0.545001
0.540069
0.535217
0.530445
0.525749
0.521129
0.516581
0.512105
0.507699
0.503362
0.499091
0.494886
0.490744
0.486665
0.482646
0.478688
0.474788
0.470945
0.467158
0.463426
0.459748
0.456122
0.452548
0.449024
0.44555
0.442124
0.438746
0.435415
0.432129
0.42889
0.425694
0.422543
0.419434
0.416369
0.413346
0.410365
0.407425
0.404528
0.401672
0.398858
0.396086
0.393357
0.390672
0.388031
0.385438
0.382894
0.380402
0.377966
0.375591
0.373283
0.37105
0.368904
0.366859
0.364933
0.363151
0.361544
0.360157
0.359045
0.358286
0.357969
0.358174
0.358785
0.359782
0.623748
0.617446
0.61126
0.605186
0.599222
0.593363
0.587609
0.581955
0.5764
0.57094
0.565574
0.5603
0.555114
0.550015
0.545
0.540068
0.535217
0.530444
0.525748
0.521127
0.51658
0.512104
0.507698
0.50336
0.499089
0.494883
0.490741
0.486661
0.482643
0.478684
0.474784
0.47094
0.467153
0.46342
0.459741
0.456115
0.45254
0.449016
0.445541
0.442114
0.438736
0.435404
0.432118
0.428877
0.425681
0.422528
0.419419
0.416353
0.413329
0.410347
0.407407
0.404509
0.401652
0.398838
0.396066
0.393337
0.390653
0.388014
0.385423
0.382883
0.380395
0.377966
0.3756
0.373305
0.371091
0.368969
0.366958
0.365079
0.363364
0.361854
0.360606
0.3597
0.359243
0.359349
0.35993
0.360965
0.362531
0.623748
0.617446
0.61126
0.605186
0.599222
0.593363
0.587609
0.581955
0.5764
0.57094
0.565574
0.560299
0.555113
0.550014
0.545
0.540068
0.535216
0.530443
0.525747
0.521126
0.516578
0.512102
0.507696
0.503358
0.499086
0.49488
0.490738
0.486658
0.482639
0.47868
0.474779
0.470936
0.467148
0.463415
0.459735
0.456108
0.452533
0.449008
0.445532
0.442105
0.438725
0.435393
0.432106
0.428864
0.425667
0.422514
0.419404
0.416337
0.413312
0.410329
0.407388
0.404489
0.401632
0.398818
0.396046
0.393318
0.390634
0.387997
0.385409
0.382871
0.380389
0.377967
0.37561
0.373328
0.371131
0.369033
0.367055
0.365223
0.363575
0.362163
0.361061
0.360374
0.360245
0.360689
0.361614
0.363129
0.365366
0.623748
0.617446
0.61126
0.605186
0.599222
0.593363
0.587609
0.581955
0.576399
0.57094
0.565574
0.560299
0.555113
0.550014
0.544999
0.540067
0.535215
0.530442
0.525746
0.521125
0.516577
0.512101
0.507694
0.503356
0.499084
0.494878
0.490735
0.486655
0.482636
0.478676
0.474775
0.470931
0.467142
0.463409
0.459729
0.456101
0.452525
0.448999
0.445523
0.442095
0.438715
0.435381
0.432094
0.428851
0.425653
0.422499
0.419388
0.41632
0.413295
0.410311
0.40737
0.40447
0.401613
0.398798
0.396026
0.393298
0.390616
0.38798
0.385394
0.38286
0.380383
0.377966
0.375619
0.373348
0.371167
0.369092
0.367145
0.365356
0.36377
0.36245
0.361487
0.361015
0.361205
0.361883
0.363155
0.365182
0.368182
0.623748
0.617446
0.61126
0.605186
0.599222
0.593363
0.587609
0.581955
0.576399
0.57094
0.565574
0.560299
0.555113
0.550013
0.544999
0.540066
0.535215
0.530442
0.525745
0.521124
0.516576
0.512099
0.507692
0.503354
0.499082
0.494875
0.490732
0.486652
0.482632
0.478672
0.474771
0.470926
0.467137
0.463403
0.459723
0.456095
0.452518
0.448991
0.445514
0.442086
0.438705
0.435371
0.432082
0.428839
0.42564
0.422485
0.419373
0.416304
0.413278
0.410294
0.407351
0.404451
0.401594
0.398778
0.396007
0.393279
0.390598
0.387963
0.385379
0.382849
0.380375
0.377965
0.375626
0.373366
0.371199
0.369143
0.367221
0.365468
0.363933
0.362688
0.36184
0.361547
0.3619
0.36279
0.364385
0.366925
0.623748
0.617446
0.61126
0.605186
0.599222
0.593363
0.587609
0.581955
0.576399
0.57094
0.565574
0.560299
0.555112
0.550013
0.544998
0.540066
0.535214
0.530441
0.525744
0.521123
0.516574
0.512098
0.507691
0.503352
0.49908
0.494873
0.49073
0.486649
0.482629
0.478668
0.474766
0.470921
0.467132
0.463398
0.459716
0.456088
0.45251
0.448983
0.445506
0.442077
0.438695
0.43536
0.43207
0.428826
0.425627
0.422471
0.419358
0.416289
0.413261
0.410276
0.407333
0.404433
0.401575
0.398759
0.395987
0.39326
0.39058
0.387947
0.385365
0.382837
0.380368
0.377963
0.37563
0.373379
0.371223
0.369181
0.367277
0.365549
0.364046
0.362847
0.36207
0.361888
0.362323
0.363347
0.365177
0.368134
0.623748
0.617446
0.61126
0.605186
0.599222
0.593363
0.587609
0.581955
0.576399
0.57094
0.565573
0.560298
0.555112
0.550013
0.544998
0.540065
0.535213
0.53044
0.525743
0.521122
0.516573
0.512096
0.507689
0.50335
0.499078
0.49487
0.490727
0.486646
0.482625
0.478665
0.474762
0.470917
0.467127
0.463392
0.45971
0.456081
0.452503
0.448976
0.445497
0.442067
0.438685
0.435349
0.432059
0.428814
0.425614
0.422457
0.419344
0.416273
0.413245
0.410259
0.407316
0.404415
0.401556
0.39874
0.395969
0.393242
0.390562
0.38793
0.38535
0.382825
0.380359
0.377958
0.37563
0.373386
0.371237
0.369204
0.367309
0.365589
0.364095
0.362904
0.362133
0.36196
0.362392
0.363433
0.36533
0.368483
0.623748
0.617446
0.61126
0.605186
0.599222
0.593363
0.587608
0.581955
0.576399
0.570939
0.565573
0.560298
0.555112
0.550012
0.544997
0.540065
0.535212
0.530439
0.525742
0.521121
0.516572
0.512095
0.507687
0.503348
0.499075
0.494868
0.490724
0.486643
0.482622
0.478661
0.474758
0.470912
0.467122
0.463387
0.459705
0.456075
0.452496
0.448968
0.445489
0.442059
0.438675
0.435339
0.432048
0.428802
0.425601
0.422444
0.41933
0.416258
0.413229
0.410243
0.407299
0.404397
0.401538
0.398722
0.395951
0.393224
0.390545
0.387914
0.385336
0.382812
0.380349
0.377952
0.375627
0.373386
0.371241
0.369209
0.367313
0.365585
0.364072
0.362844
0.362006
0.36172
0.362051
0.362958
0.364699
0.367709
0.623748
0.617446
0.61126
0.605186
0.599222
0.593363
0.587608
0.581955
0.576399
0.570939
0.565573
0.560298
0.555111
0.550012
0.544997
0.540064
0.535212
0.530438
0.525741
0.521119
0.516571
0.512093
0.507686
0.503346
0.499073
0.494866
0.490722
0.48664
0.482619
0.478658
0.474754
0.470908
0.467118
0.463382
0.459699
0.456069
0.45249
0.448961
0.445481
0.44205
0.438666
0.435329
0.432038
0.428791
0.425589
0.422431
0.419316
0.416244
0.413214
0.410227
0.407282
0.40438
0.401521
0.398705
0.395933
0.393207
0.390528
0.387898
0.385321
0.382799
0.380338
0.377943
0.37562
0.37338
0.371234
0.369198
0.36729
0.365538
0.363981
0.362673
0.3617
0.36119
0.361311
0.361927
0.363272
0.365765
0.623748
0.617446
0.61126
0.605186
0.599222
0.593363
0.587608
0.581954
0.576399
0.570939
0.565573
0.560298
0.555111
0.550011
0.544996
0.540063
0.535211
0.530438
0.525741
0.521118
0.516569
0.512092
0.507684
0.503345
0.499072
0.494864
0.490719
0.486637
0.482616
0.478654
0.474751
0.470904
0.467113
0.463377
0.459694
0.456063
0.452483
0.448954
0.445474
0.442042
0.438657
0.43532
0.432027
0.42878
0.425577
0.422419
0.419303
0.41623
0.4132
0.410212
0.407267
0.404364
0.401504
0.398688
0.395916
0.39319
0.390512
0.387883
0.385307
0.382786
0.380326
0.377932
0.37561
0.373368
0.371218
0.369171
0.367243
0.365455
0.363833
0.362415
0.361257
0.360446
0.36012
0.360345
0.361134
0.362843
0.623748
0.617446
0.61126
0.605186
0.599222
0.593363
0.587608
0.581954
0.576399
0.570939
0.565573
0.560297
0.555111
0.550011
0.544996
0.540063
0.535211
0.530437
0.52574
0.521118
0.516568
0.512091
0.507683
0.503343
0.49907
0.494862
0.490717
0.486635
0.482613
0.478651
0.474747
0.4709
0.467109
0.463372
0.459688
0.456057
0.452477
0.448947
0.445467
0.442034
0.438649
0.435311
0.432018
0.42877
0.425566
0.422407
0.41929
0.416217
0.413186
0.410198
0.407252
0.404349
0.401488
0.398672
0.3959
0.393174
0.390496
0.387868
0.385292
0.382773
0.380313
0.377919
0.375596
0.373352
0.371194
0.369132
0.367178
0.365345
0.363647
0.362104
0.360743
0.359606
0.358771
0.358377
0.358557
0.359394
0.623748
0.617446
0.61126
0.605186
0.599222
0.593363
0.587608
0.581954
0.576399
0.570939
0.565572
0.560297
0.555111
0.550011
0.544995
0.540062
0.53521
0.530436
0.525739
0.521117
0.516567
0.512089
0.507681
0.503341
0.499068
0.49486
0.490715
0.486632
0.48261
0.478648
0.474744
0.470896
0.467105
0.463368
0.459684
0.456052
0.452471
0.448941
0.44546
0.442027
0.438641
0.435302
0.432009
0.42876
0.425556
0.422396
0.419279
0.416205
0.413173
0.410184
0.407238
0.404334
0.401474
0.398657
0.395885
0.393159
0.390482
0.387854
0.385279
0.382759
0.3803
0.377905
0.37558
0.373331
0.371164
0.369086
0.367103
0.365222
0.363445
0.361778
0.360221
0.358782
0.357489
0.356415
0.355744
0.355839
0.623748
0.617446
0.61126
0.605186
0.599222
0.593363
0.587608
0.581954
0.576399
0.570939
0.565572
0.560297
0.55511
0.55001
0.544995
0.540062
0.53521
0.530436
0.525738
0.521116
0.516566
0.512088
0.50768
0.50334
0.499066
0.494858
0.490713
0.48663
0.482608
0.478645
0.474741
0.470893
0.467101
0.463363
0.459679
0.456047
0.452466
0.448935
0.445454
0.44202
0.438634
0.435294
0.432
0.428751
0.425547
0.422386
0.419268
0.416193
0.413161
0.410172
0.407225
0.404321
0.40146
0.398643
0.395871
0.393146
0.390468
0.38784
0.385265
0.382746
0.380287
0.377891
0.375564
0.373309
0.371132
0.369037
0.367025
0.365097
0.363247
0.361466
0.35974
0.358051
0.356397
0.354811
0.353425
0.352562
0.623748
0.617446
0.61126
0.605186
0.599222
0.593363
0.587608
0.581954
0.576399
0.570939
0.565572
0.560297
0.55511
0.55001
0.544995
0.540062
0.535209
0.530435
0.525738
0.521115
0.516566
0.512087
0.507679
0.503339
0.499065
0.494856
0.490711
0.486628
0.482606
0.478643
0.474738
0.47089
0.467098
0.46336
0.459675
0.456043
0.452461
0.44893
0.445448
0.442014
0.438627
0.435287
0.431993
0.428743
0.425538
0.422376
0.419258
0.416183
0.41315
0.41016
0.407213
0.404309
0.401447
0.39863
0.395858
0.393133
0.390455
0.387828
0.385253
0.382734
0.380274
0.377877
0.375547
0.373287
0.3711
0.368989
0.36695
0.36498
0.363067
0.361193
0.359331
0.357455
0.355546
0.353624
0.3518
0.350352
0.623748
0.617446
0.61126
0.605186
0.599222
0.593363
0.587608
0.581954
0.576398
0.570939
0.565572
0.560297
0.55511
0.55001
0.544994
0.540061
0.535209
0.530434
0.525737
0.521114
0.516565
0.512086
0.507678
0.503337
0.499064
0.494855
0.490709
0.486626
0.482604
0.47864
0.474735
0.470887
0.467095
0.463356
0.459671
0.456039
0.452457
0.448925
0.445443
0.442008
0.438621
0.435281
0.431986
0.428736
0.42553
0.422368
0.419249
0.416173
0.41314
0.41015
0.407202
0.404297
0.401436
0.398619
0.395847
0.393121
0.390444
0.387816
0.385242
0.382723
0.380262
0.377864
0.375531
0.373266
0.371071
0.368944
0.366884
0.364879
0.362915
0.360969
0.35901
0.357008
0.354941
0.352833
0.350795
0.349092
0.623748
0.617446
0.61126
0.605186
0.599222
0.593363
0.587608
0.581954
0.576398
0.570938
0.565572
0.560296
0.55511
0.55001
0.544994
0.540061
0.535208
0.530434
0.525736
0.521114
0.516564
0.512086
0.507677
0.503336
0.499062
0.494853
0.490708
0.486624
0.482602
0.478638
0.474733
0.470885
0.467092
0.463353
0.459668
0.456035
0.452453
0.448921
0.445438
0.442003
0.438616
0.435275
0.431979
0.428729
0.425523
0.42236
0.419241
0.416165
0.413132
0.410141
0.407193
0.404288
0.401426
0.398609
0.395836
0.393111
0.390433
0.387806
0.385231
0.382712
0.380251
0.377852
0.375516
0.373247
0.371044
0.368906
0.366828
0.364797
0.362796
0.360801
0.358781
0.356706
0.354564
0.352391
0.350314
0.348601
0.623748
0.617446
0.61126
0.605186
0.599222
0.593363
0.587608
0.581954
0.576398
0.570938
0.565572
0.560296
0.55511
0.55001
0.544994
0.540061
0.535208
0.530434
0.525736
0.521113
0.516563
0.512085
0.507676
0.503336
0.499061
0.494852
0.490706
0.486623
0.4826
0.478637
0.474731
0.470882
0.467089
0.463351
0.459665
0.456032
0.45245
0.448917
0.445434
0.441999
0.438611
0.43527
0.431974
0.428723
0.425517
0.422354
0.419234
0.416158
0.413124
0.410133
0.407184
0.404279
0.401417
0.3986
0.395827
0.393102
0.390424
0.387797
0.385223
0.382703
0.380242
0.377841
0.375504
0.373231
0.371023
0.368876
0.366784
0.364734
0.36271
0.360685
0.358634
0.356533
0.354385
0.352246
0.350269
0.348746
0.623748
0.617446
0.61126
0.605186
0.599222
0.593363
0.587608
0.581954
0.576398
0.570938
0.565572
0.560296
0.55511
0.550009
0.544994
0.54006
0.535208
0.530433
0.525736
0.521113
0.516563
0.512084
0.507676
0.503335
0.49906
0.494851
0.490705
0.486622
0.482599
0.478635
0.474729
0.470881
0.467087
0.463348
0.459663
0.456029
0.452447
0.448914
0.445431
0.441995
0.438607
0.435266
0.431969
0.428718
0.425511
0.422348
0.419228
0.416152
0.413118
0.410126
0.407177
0.404272
0.40141
0.398592
0.39582
0.393094
0.390417
0.38779
0.385215
0.382696
0.380234
0.377833
0.375494
0.373218
0.371005
0.368852
0.366751
0.364691
0.362653
0.360616
0.358558
0.356468
0.354367
0.352338
0.350574
0.349406
0.623748
0.617446
0.61126
0.605186
0.599222
0.593363
0.587608
0.581954
0.576398
0.570938
0.565572
0.560296
0.555109
0.550009
0.544994
0.54006
0.535207
0.530433
0.525735
0.521112
0.516562
0.512084
0.507675
0.503334
0.49906
0.49485
0.490705
0.486621
0.482598
0.478634
0.474728
0.470879
0.467086
0.463347
0.459661
0.456027
0.452444
0.448912
0.445428
0.441992
0.438604
0.435262
0.431966
0.428714
0.425507
0.422344
0.419224
0.416147
0.413112
0.410121
0.407172
0.404266
0.401404
0.398586
0.395814
0.393088
0.390411
0.387783
0.385209
0.38269
0.380228
0.377826
0.375486
0.373208
0.370993
0.368835
0.366729
0.364663
0.362619
0.360582
0.358534
0.356479
0.354458
0.623748
0.617446
0.61126
0.605186
0.599222
0.593363
0.587608
0.581954
0.576398
0.570938
0.565572
0.560296
0.555109
0.550009
0.544993
0.54006
0.535207
0.530433
0.525735
0.521112
0.516562
0.512084
0.507675
0.503334
0.499059
0.49485
0.490704
0.48662
0.482597
0.478633
0.474727
0.470878
0.467085
0.463345
0.459659
0.456026
0.452443
0.44891
0.445426
0.44199
0.438602
0.43526
0.431963
0.428711
0.425504
0.422341
0.41922
0.416143
0.413108
0.410117
0.407168
0.404262
0.401399
0.398582
0.395809
0.393083
0.390406
0.387779
0.385205
0.382685
0.380223
0.377821
0.37548
0.373201
0.370984
0.368825
0.366716
0.364647
0.362604
0.360572
0.358544
0.623748
0.617446
0.61126
0.605186
0.599221
0.593363
0.587608
0.581954
0.576398
0.570938
0.565572
0.560296
0.555109
0.550009
0.544993
0.54006
0.535207
0.530433
0.525735
0.521112
0.516562
0.512083
0.507674
0.503333
0.499059
0.494849
0.490703
0.48662
0.482596
0.478632
0.474726
0.470877
0.467084
0.463344
0.459658
0.456024
0.452442
0.448909
0.445425
0.441989
0.4386
0.435258
0.431961
0.42871
0.425502
0.422338
0.419218
0.416141
0.413106
0.410114
0.407165
0.404259
0.401397
0.398579
0.395806
0.39308
0.390403
0.387776
0.385201
0.382682
0.38022
0.377817
0.375476
0.373196
0.370978
0.368817
0.366707
0.364637
0.362595
0.36057
0.358559
0.623748
0.617446
0.61126
0.605186
0.599221
0.593363
0.587608
0.581954
0.576398
0.570938
0.565572
0.560296
0.555109
0.550009
0.544993
0.54006
0.535207
0.530433
0.525735
0.521112
0.516562
0.512083
0.507674
0.503333
0.499059
0.494849
0.490703
0.486619
0.482596
0.478632
0.474726
0.470877
0.467083
0.463344
0.459658
0.456024
0.452441
0.448908
0.445424
0.441988
0.438599
0.435257
0.43196
0.428709
0.425501
0.422337
0.419217
0.416139
0.413105
0.410113
0.407164
0.404258
0.401395
0.398577
0.395805
0.393079
0.390402
0.387775
0.3852
0.382681
0.380219
0.377816
0.375475
0.373195
0.370977
0.368816
0.366705
0.364636
0.362597
0.360577
0.358578
0.623748
0.617446
0.61126
0.605186
0.599221
0.593363
0.587608
0.581954
0.576398
0.570938
0.565572
0.560296
0.555109
0.550009
0.544993
0.54006
0.535207
0.530433
0.525735
0.521112
0.516562
0.512083
0.507674
0.503333
0.499059
0.494849
0.490703
0.486619
0.482596
0.478632
0.474726
0.470877
0.467083
0.463344
0.459658
0.456024
0.452441
0.448908
0.445424
0.441988
0.438599
0.435257
0.43196
0.428709
0.425501
0.422337
0.419217
0.416139
0.413105
0.410113
0.407164
0.404258
0.401395
0.398577
0.395805
0.393079
0.390402
0.387775
0.3852
0.382681
0.380219
0.377816
0.375475
0.373195
0.370977
0.368816
0.366705
0.364636
0.362596
0.360576
0.358577
0.623748
0.617446
0.61126
0.605186
0.599221
0.593363
0.587608
0.581954
0.576398
0.570938
0.565572
0.560296
0.555109
0.550009
0.544993
0.54006
0.535207
0.530433
0.525735
0.521112
0.516562
0.512083
0.507674
0.503333
0.499059
0.494849
0.490703
0.48662
0.482596
0.478632
0.474727
0.470877
0.467084
0.463345
0.459659
0.456025
0.452442
0.448909
0.445425
0.441989
0.4386
0.435258
0.431961
0.42871
0.425502
0.422339
0.419218
0.416141
0.413106
0.410114
0.407165
0.404259
0.401397
0.398579
0.395806
0.393081
0.390403
0.387776
0.385202
0.382682
0.38022
0.377818
0.375476
0.373197
0.370978
0.368817
0.366707
0.364637
0.623748
0.617446
0.61126
0.605186
0.599222
0.593363
0.587608
0.581954
0.576398
0.570938
0.565572
0.560296
0.555109
0.550009
0.544993
0.54006
0.535207
0.530433
0.525735
0.521112
0.516562
0.512084
0.507675
0.503334
0.499059
0.49485
0.490704
0.48662
0.482597
0.478633
0.474727
0.470878
0.467085
0.463346
0.45966
0.456026
0.452443
0.44891
0.445426
0.44199
0.438602
0.43526
0.431963
0.428712
0.425504
0.422341
0.419221
0.416143
0.413109
0.410117
0.407168
0.404262
0.4014
0.398582
0.39581
0.393084
0.390407
0.38778
0.385205
0.382686
0.380224
0.377822
0.375481
0.373202
0.370985
0.368825
0.366716
0.623748
0.617446
0.61126
0.605186
0.599222
0.593363
0.587608
0.581954
0.576398
0.570938
0.565572
0.560296
0.555109
0.550009
0.544994
0.54006
0.535207
0.530433
0.525735
0.521112
0.516563
0.512084
0.507675
0.503334
0.49906
0.49485
0.490705
0.486621
0.482598
0.478634
0.474728
0.470879
0.467086
0.463347
0.459661
0.456027
0.452445
0.448912
0.445428
0.441993
0.438604
0.435263
0.431966
0.428715
0.425508
0.422344
0.419224
0.416147
0.413113
0.410121
0.407173
0.404267