/*--------------------------------*- C++ -*----------------------------------*\
  =========                 |
  \\      /  F ield         | OpenFOAM: The Open Source CFD Toolbox
   \\    /   O peration     | Website:  https://openfoam.org
    \\  /    A nd           | Version:  13
     \\/     M anipulation  |
\*---------------------------------------------------------------------------*/
FoamFile
{
    format      ascii;
    class       volScalarField;
    location    "200";
    object      p;
}
// * * * * * * * * * * * * * * * * * * * * * * * * * * * * * * * * * * * * * //

dimensions      [0 2 -2 0 0 0 0];

internalField   nonuniform List<scalar> 
172290
(
14.076
14.0763
14.0769
14.078
14.0794
14.0811
14.0833
14.0858
14.0887
14.0919
14.0955
14.0994
14.1037
14.1083
14.1131
14.1183
14.1238
14.1295
14.1354
14.1416
14.1479
14.1544
14.161
14.1677
14.1744
14.1811
14.1877
14.1941
14.2004
14.2063
14.2118
14.2169
14.2213
14.225
14.2277
14.2295
14.23
14.2292
14.2267
14.2224
14.216
14.2072
14.1956
14.181
14.163
14.1411
14.1149
14.0839
14.0477
14.0056
13.957
13.9013
13.8376
13.7654
13.6837
13.5916
13.4883
13.3729
13.2442
13.1014
12.9432
12.7687
12.5767
12.3663
12.1363
11.8858
11.614
11.3202
11.0039
10.6648
10.3028
9.91836
9.51194
9.0845
8.63733
8.17213
7.69095
14.0763
14.0766
14.0773
14.0783
14.0797
14.0815
14.0837
14.0862
14.0891
14.0923
14.096
14.0999
14.1042
14.1088
14.1138
14.119
14.1245
14.1302
14.1362
14.1425
14.1489
14.1555
14.1621
14.1689
14.1757
14.1825
14.1892
14.1958
14.2022
14.2083
14.214
14.2192
14.2238
14.2277
14.2307
14.2327
14.2335
14.233
14.2308
14.2269
14.2208
14.2124
14.2012
14.1871
14.1696
14.1482
14.1226
14.0922
14.0566
14.0151
13.9673
13.9123
13.8494
13.778
13.6971
13.6059
13.5035
13.389
13.2612
13.1192
12.9618
12.7881
12.5968
12.3869
12.1574
11.9072
11.6355
11.3415
11.0247
10.6847
10.3216
9.9356
9.52722
9.09741
8.64749
8.17918
7.6946
14.077
14.0773
14.078
14.079
14.0805
14.0823
14.0845
14.087
14.0899
14.0932
14.0969
14.1009
14.1053
14.11
14.115
14.1203
14.1259
14.1318
14.1379
14.1442
14.1508
14.1575
14.1644
14.1713
14.1783
14.1854
14.1923
14.1992
14.2058
14.2122
14.2183
14.2238
14.2288
14.2332
14.2366
14.2391
14.2405
14.2405
14.239
14.2357
14.2304
14.2227
14.2125
14.1992
14.1827
14.1624
14.1379
14.1087
14.0743
14.0343
13.9878
13.9343
13.873
13.8033
13.7241
13.6347
13.5341
13.4213
13.2954
13.1552
12.9996
12.8275
12.6377
12.4291
12.2006
11.9511
11.6796
11.3854
11.0678
10.7264
10.3612
9.97223
9.56008
9.12568
8.67036
8.19591
7.70454
14.078
14.0783
14.079
14.0801
14.0815
14.0834
14.0856
14.0882
14.0912
14.0946
14.0983
14.1024
14.1069
14.1117
14.1168
14.1223
14.128
14.134
14.1403
14.1469
14.1537
14.1606
14.1677
14.175
14.1823
14.1896
14.1969
14.2042
14.2113
14.2181
14.2246
14.2308
14.2364
14.2413
14.2455
14.2487
14.2509
14.2518
14.2512
14.2489
14.2447
14.2383
14.2293
14.2174
14.2023
14.1836
14.1608
14.1334
14.101
14.0629
14.0186
13.9674
13.9085
13.8412
13.7646
13.6779
13.5801
13.4701
13.3469
13.2095
13.0566
12.887
12.6995
12.4929
12.266
12.0176
11.7466
11.4522
11.1335
10.7901
10.4216
10.0283
9.61043
9.16904
8.70546
8.22156
7.71973
14.0794
14.0797
14.0804
14.0815
14.083
14.0849
14.0871
14.0898
14.0929
14.0963
14.1002
14.1044
14.109
14.114
14.1192
14.1249
14.1308
14.1371
14.1436
14.1504
14.1574
14.1647
14.1722
14.1798
14.1875
14.1953
14.2031
14.2108
14.2184
14.2259
14.2331
14.2399
14.2463
14.2521
14.2572
14.2615
14.2647
14.2667
14.2674
14.2665
14.2637
14.2588
14.2515
14.2415
14.2284
14.2117
14.1912
14.1662
14.1364
14.101
14.0596
14.0114
13.9557
13.8918
13.8187
13.7356
13.6415
13.5353
13.4159
13.2822
13.133
12.9669
12.7826
12.5789
12.3543
12.1076
11.8375
11.5429
11.2229
10.8769
10.5043
10.1051
9.67968
9.22885
8.75404
8.25722
7.74099
14.081
14.0813
14.0821
14.0832
14.0848
14.0867
14.089
14.0918
14.095
14.0985
14.1025
14.1069
14.1116
14.1168
14.1223
14.1281
14.1343
14.1408
14.1476
14.1547
14.1621
14.1698
14.1777
14.1857
14.1939
14.2022
14.2106
14.219
14.2274
14.2356
14.2436
14.2513
14.2587
14.2655
14.2717
14.2772
14.2818
14.2853
14.2875
14.2883
14.2873
14.2844
14.2792
14.2715
14.2608
14.2468
14.229
14.2071
14.1804
14.1485
14.1107
14.0663
14.0147
13.955
13.8863
13.8078
13.7184
13.617
13.5025
13.3737
13.2292
13.0676
12.8876
12.6877
12.4662
12.2219
11.9532
11.6588
11.3375
10.9883
10.6107
10.2043
9.7693
9.30647
8.81721
8.30365
7.76864
14.083
14.0833
14.0841
14.0852
14.0869
14.0889
14.0913
14.0942
14.0974
14.1011
14.1053
14.1098
14.1148
14.1201
14.1258
14.1319
14.1384
14.1452
14.1524
14.1599
14.1677
14.1758
14.1842
14.1928
14.2016
14.2105
14.2196
14.2288
14.2379
14.2471
14.2561
14.2648
14.2733
14.2814
14.289
14.296
14.3021
14.3074
14.3115
14.3142
14.3154
14.3149
14.3122
14.3072
14.2994
14.2885
14.2742
14.2558
14.233
14.2052
14.1717
14.132
14.0852
14.0306
13.9674
13.8944
13.8108
13.7153
13.6068
13.484
13.3455
13.1897
13.0151
12.82
12.6029
12.3618
12.0952
11.8014
11.4789
11.1264
10.743
10.328
9.8815
9.40397
8.89681
8.36229
7.80356
14.0853
14.0856
14.0864
14.0876
14.0893
14.0914
14.0939
14.0969
14.1003
14.1041
14.1084
14.1132
14.1183
14.1239
14.1299
14.1363
14.1431
14.1503
14.1579
14.1658
14.1741
14.1828
14.1917
14.2009
14.2104
14.2201
14.23
14.24
14.2501
14.2603
14.2704
14.2804
14.2903
14.2998
14.309
14.3176
14.3256
14.3328
14.3391
14.3442
14.3479
14.35
14.3503
14.3484
14.3441
14.3368
14.3264
14.3123
14.294
14.2709
14.2426
14.2083
14.1673
14.1187
14.0618
13.9955
13.9187
13.8304
13.7291
13.6136
13.4823
13.3336
13.1658
12.977
12.7653
12.5286
12.2651
11.9726
11.6493
11.2935
10.9038
10.4791
10.0191
9.52403
8.99522
8.43502
7.84693
14.0878
14.0881
14.089
14.0903
14.092
14.0942
14.0968
14.0999
14.1035
14.1075
14.112
14.117
14.1224
14.1282
14.1345
14.1413
14.1485
14.1561
14.1641
14.1725
14.1814
14.1906
14.2002
14.2101
14.2203
14.2309
14.2417
14.2527
14.2639
14.2752
14.2866
14.298
14.3093
14.3205
14.3314
14.342
14.3521
14.3616
14.3702
14.378
14.3846
14.3898
14.3934
14.3951
14.3946
14.3915
14.3856
14.3762
14.3631
14.3456
14.3231
14.295
14.2606
14.2191
14.1695
14.111
14.0423
13.9622
13.8695
13.7627
13.6401
13.5
13.3405
13.1595
12.9548
12.724
12.4649
12.1748
11.8515
11.4927
11.0964
10.661
10.1857
9.67019
9.11569
8.52451
7.90056
14.0906
14.091
14.0918
14.0932
14.095
14.0973
14.1
14.1033
14.107
14.1112
14.116
14.1212
14.1268
14.133
14.1396
14.1468
14.1544
14.1624
14.1709
14.1799
14.1894
14.1992
14.2095
14.2202
14.2313
14.2428
14.2546
14.2667
14.2791
14.2917
14.3045
14.3175
14.3305
14.3435
14.3563
14.369
14.3814
14.3934
14.4048
14.4155
14.4252
14.4339
14.4412
14.4469
14.4508
14.4524
14.4514
14.4475
14.4401
14.4288
14.413
14.392
14.3651
14.3315
14.2904
14.2407
14.1813
14.1109
14.0282
13.9316
13.8193
13.6895
13.5401
13.3687
13.1728
12.9498
12.6967
12.4107
12.0886
11.7276
11.3249
10.8782
10.3858
9.84706
9.2625
8.63443
7.96706
14.0937
14.0941
14.095
14.0964
14.0983
14.1007
14.1036
14.107
14.1109
14.1153
14.1203
14.1257
14.1317
14.1382
14.1452
14.1527
14.1608
14.1693
14.1784
14.188
14.1981
14.2086
14.2197
14.2313
14.2433
14.2558
14.2687
14.282
14.2957
14.3097
14.3241
14.3387
14.3535
14.3685
14.3835
14.3986
14.4135
14.4282
14.4426
14.4565
14.4698
14.4822
14.4936
14.5037
14.5124
14.5191
14.5237
14.5258
14.5248
14.5204
14.5119
14.4988
14.4804
14.4558
14.4242
14.3845
14.3357
14.2764
14.2051
14.1204
14.0203
13.9027
13.7654
13.6057
13.421
13.2079
12.9632
12.6832
12.3643
12.0025
11.5942
11.1361
10.6254
10.0606
9.44139
8.76981
8.05026
14.097
14.0974
14.0983
14.0998
14.1018
14.1043
14.1073
14.1109
14.115
14.1197
14.1249
14.1306
14.1369
14.1438
14.1512
14.1592
14.1677
14.1768
14.1864
14.1967
14.2074
14.2188
14.2307
14.2432
14.2562
14.2698
14.2839
14.2985
14.3136
14.3292
14.3452
14.3616
14.3784
14.3955
14.4129
14.4304
14.4481
14.4658
14.4834
14.5008
14.5179
14.5344
14.5503
14.5652
14.5791
14.5915
14.6021
14.6107
14.6168
14.62
14.6197
14.6153
14.6062
14.5916
14.5706
14.5422
14.5052
14.4585
14.4004
14.3293
14.2432
14.14
14.0171
13.8718
13.7007
13.5004
13.2669
12.9958
12.6826
12.3223
11.9101
11.4412
10.9117
10.3183
9.65988
8.93758
8.15571
14.1005
14.1009
14.1019
14.1034
14.1055
14.1082
14.1114
14.1151
14.1194
14.1243
14.1298
14.1359
14.1425
14.1497
14.1576
14.166
14.1751
14.1847
14.195
14.2059
14.2174
14.2296
14.2424
14.2559
14.2699
14.2847
14.3
14.316
14.3326
14.3499
14.3677
14.386
14.4049
14.4243
14.4442
14.4645
14.4851
14.506
14.5271
14.5482
14.5694
14.5903
14.611
14.6311
14.6506
14.6691
14.6863
14.702
14.7157
14.7272
14.7357
14.7409
14.7421
14.7384
14.7292
14.7133
14.6897
14.657
14.6138
14.5582
14.4884
14.4019
14.296
14.1678
14.0136
13.8294
13.6106
13.352
13.0481
12.6927
12.2793
11.8016
11.2535
10.63
9.92795
9.14717
8.29139
14.1042
14.1046
14.1057
14.1073
14.1095
14.1122
14.1156
14.1195
14.1241
14.1292
14.135
14.1414
14.1484
14.156
14.1643
14.1732
14.1828
14.1931
14.204
14.2156
14.228
14.241
14.2547
14.2692
14.2844
14.3004
14.3171
14.3346
14.3528
14.3717
14.3914
14.4118
14.433
14.4548
14.4773
14.5005
14.5242
14.5485
14.5733
14.5984
14.6239
14.6496
14.6754
14.7011
14.7266
14.7515
14.7758
14.7992
14.8212
14.8415
14.8597
14.8752
14.8875
14.8959
14.8995
14.8974
14.8885
14.8715
14.845
14.807
14.7557
14.6885
14.6026
14.4947
14.361
14.1968
13.997
13.7556
13.4658
13.1199
12.7097
12.2266
11.6619
11.0079
10.2587
9.41151
8.46878
14.1081
14.1085
14.1096
14.1113
14.1136
14.1165
14.12
14.1242
14.1289
14.1343
14.1404
14.1471
14.1545
14.1626
14.1713
14.1808
14.1909
14.2018
14.2134
14.2258
14.239
14.2529
14.2677
14.2832
14.2996
14.3169
14.335
14.354
14.3739
14.3946
14.4163
14.4389
14.4624
14.4868
14.5121
14.5382
14.5653
14.5931
14.6218
14.6512
14.6813
14.712
14.7432
14.7748
14.8066
14.8385
14.8703
14.9018
14.9326
14.9625
14.991
15.0177
15.042
15.0634
15.081
15.0939
15.1012
15.1016
15.0935
15.0753
15.0448
14.9997
14.9369
14.853
14.7439
14.6044
14.4289
14.2103
13.9407
13.6108
13.2101
12.7272
12.1502
11.4675
10.669
9.74818
8.70432
14.1121
14.1126
14.1137
14.1155
14.1179
14.1209
14.1246
14.129
14.134
14.1397
14.146
14.1531
14.1609
14.1694
14.1786
14.1886
14.1994
14.2109
14.2232
14.2364
14.2504
14.2653
14.2811
14.2978
14.3154
14.334
14.3536
14.3742
14.3958
14.4184
14.4422
14.467
14.493
14.52
14.5482
14.5776
14.6081
14.6397
14.6724
14.7062
14.7411
14.7771
14.814
14.8517
14.8903
14.9295
14.9693
15.0093
15.0495
15.0895
15.129
15.1676
15.2049
15.2402
15.2729
15.3021
15.327
15.3463
15.3586
15.3623
15.3553
15.3351
15.2989
15.2429
15.1629
15.0535
14.9083
14.7195
14.4779
14.1723
13.7899
13.3159
12.7342
12.0279
11.1811
10.181
9.02142
14.1162
14.1167
14.1179
14.1198
14.1223
14.1255
14.1294
14.1339
14.1392
14.1451
14.1518
14.1593
14.1674
14.1764
14.1861
14.1967
14.208
14.2202
14.2333
14.2473
14.2622
14.2781
14.2949
14.3128
14.3317
14.3517
14.3727
14.395
14.4184
14.443
14.4689
14.4961
14.5246
14.5544
14.5856
14.6182
14.6523
14.6878
14.7248
14.7632
14.8031
14.8445
14.8874
14.9316
14.9772
15.0241
15.0722
15.1213
15.1713
15.222
15.2731
15.3243
15.3752
15.4254
15.4742
15.521
15.5649
15.6047
15.6393
15.6671
15.686
15.6939
15.6877
15.6639
15.618
15.5445
15.4366
15.2858
15.0816
14.8111
14.4588
14.0062
13.4318
12.7122
11.8229
10.7418
9.45442
14.1205
14.1209
14.1222
14.1242
14.1268
14.1301
14.1342
14.139
14.1445
14.1507
14.1578
14.1656
14.1742
14.1836
14.1938
14.2049
14.2169
14.2298
14.2437
14.2585
14.2743
14.2911
14.3091
14.3281
14.3483
14.3697
14.3924
14.4163
14.4416
14.4682
14.4963
14.5259
14.557
14.5896
14.624
14.66
14.6977
14.7372
14.7786
14.8218
14.8669
14.914
14.963
15.0139
15.0668
15.1217
15.1784
15.237
15.2972
15.3591
15.4224
15.4869
15.5523
15.6182
15.6841
15.7495
15.8137
15.8756
15.9343
15.9882
16.0357
16.0746
16.1021
16.1147
16.1082
16.0771
16.0142
15.9106
15.755
15.5329
15.2261
14.8119
14.2631
13.5475
12.6296
11.4753
10.0556
14.1247
14.1253
14.1266
14.1286
14.1314
14.1349
14.1391
14.1441
14.1499
14.1564
14.1638
14.172
14.181
14.1909
14.2016
14.2133
14.2259
14.2396
14.2542
14.2698
14.2866
14.3044
14.3235
14.3438
14.3653
14.3881
14.4124
14.438
14.4652
14.4939
14.5242
14.5562
14.59
14.6256
14.6631
14.7026
14.7441
14.7877
14.8336
14.8817
14.9321
14.985
15.0403
15.0982
15.1587
15.2217
15.2874
15.3557
15.4267
15.5002
15.5762
15.6545
15.735
15.8174
15.9013
15.9864
16.0721
16.1576
16.242
16.3241
16.4025
16.4752
16.5399
16.5933
16.6315
16.6492
16.6396
16.5936
16.4993
16.3413
16.099
15.746
15.2483
14.5641
13.6453
12.4398
10.8924
14.1291
14.1296
14.131
14.1331
14.136
14.1397
14.1441
14.1493
14.1553
14.1622
14.1699
14.1784
14.1879
14.1982
14.2095
14.2218
14.2351
14.2494
14.2648
14.2813
14.299
14.3179
14.3381
14.3596
14.3824
14.4068
14.4326
14.46
14.4891
14.5199
14.5525
14.587
14.6235
14.662
14.7027
14.7457
14.7911
14.8389
14.8894
14.9425
14.9984
15.0572
15.119
15.184
15.2521
15.3236
15.3985
15.4769
15.5588
15.6443
15.7334
15.8261
15.9223
16.0218
16.1246
16.2302
16.3384
16.4487
16.5604
16.6725
16.7839
16.8932
16.9983
17.0966
17.1846
17.2576
17.3095
17.3316
17.3125
17.2362
17.0812
16.8177
16.4058
15.7943
14.9207
13.7043
12.0517
14.1334
14.134
14.1354
14.1376
14.1406
14.1444
14.1491
14.1545
14.1608
14.1679
14.176
14.1849
14.1948
14.2056
14.2174
14.2303
14.2442
14.2593
14.2754
14.2928
14.3114
14.3314
14.3527
14.3754
14.3997
14.4255
14.4529
14.4821
14.5131
14.546
14.5809
14.6179
14.6571
14.6987
14.7427
14.7892
14.8385
14.8906
14.9456
15.0038
15.0652
15.1301
15.1985
15.2706
15.3467
15.4268
15.5111
15.5997
15.6929
15.7907
15.8933
16.0007
16.113
16.2302
16.3524
16.4794
16.611
16.7471
16.8872
17.0309
17.1772
17.3253
17.4736
17.6202
17.7625
17.8968
18.0179
18.1185
18.1883
18.2125
18.1697
18.0293
17.7473
17.2661
16.5041
15.345
13.6475
14.1377
14.1383
14.1398
14.1421
14.1453
14.1492
14.154
14.1597
14.1662
14.1737
14.182
14.1914
14.2017
14.213
14.2254
14.2388
14.2534
14.2691
14.2861
14.3043
14.3239
14.3449
14.3673
14.3913
14.4169
14.4442
14.4732
14.5042
14.5371
14.5721
14.6093
14.6489
14.6908
14.7354
14.7827
14.8328
14.886
14.9423
15.002
15.0653
15.1323
15.2032
15.2783
15.3577
15.4417
15.5305
15.6244
15.7234
15.828
15.9383
16.0546
16.177
16.3058
16.4411
16.5832
16.7321
16.8878
17.0506
17.2201
17.3964
17.579
17.7676
17.9613
18.159
18.3592
18.5594
18.7561
18.944
19.1152
19.2575
19.3522
19.3707
19.2712
18.9917
18.4321
17.4436
15.8255
14.142
14.1426
14.1442
14.1466
14.1498
14.154
14.1589
14.1648
14.1716
14.1794
14.1881
14.1978
14.2085
14.2203
14.2332
14.2472
14.2624
14.2789
14.2966
14.3157
14.3362
14.3582
14.3818
14.407
14.4339
14.4627
14.4934
14.5261
14.561
14.5981
14.6376
14.6796
14.7243
14.7719
14.8224
14.8761
14.9332
14.9938
15.0582
15.1266
15.1991
15.2762
15.3579
15.4447
15.5367
15.6342
15.7376
15.8472
15.9633
16.0862
16.2163
16.3539
16.4994
16.6531
16.8153
16.9865
17.1668
17.3566
17.5562
17.7658
17.9856
18.2157
18.4561
18.7066
18.9669
19.236
19.5126
19.7941
20.0758
20.3502
20.604
20.8153
20.951
20.9518
20.7122
20.0645
14.1463
14.1469
14.1485
14.151
14.1544
14.1586
14.1638
14.1699
14.1769
14.185
14.194
14.2041
14.2152
14.2275
14.2409
14.2555
14.2714
14.2885
14.307
14.327
14.3484
14.3714
14.3961
14.4225
14.4508
14.481
14.5133
14.5477
14.5845
14.6237
14.6655
14.71
14.7574
14.8079
14.8617
14.919
14.9799
15.0448
15.1138
15.1872
15.2654
15.3485
15.4369
15.5309
15.6308
15.7371
15.8501
15.9702
16.0978
16.2334
16.3773
16.5302
16.6924
16.8646
17.0471
17.2406
17.4456
17.6628
17.8926
18.1358
18.393
18.665
18.9524
19.2562
19.577
19.916
20.2737
20.6508
21.047
21.4604
21.8862
22.3137
22.7244
23.0756
23.2819
23.1896
14.1504
14.151
14.1527
14.1553
14.1588
14.1632
14.1685
14.1748
14.1821
14.1905
14.1998
14.2103
14.2218
14.2345
14.2485
14.2636
14.2801
14.2979
14.3172
14.338
14.3603
14.3843
14.4101
14.4377
14.4673
14.4989
14.5328
14.5689
14.6076
14.6488
14.6928
14.7398
14.7899
14.8433
14.9003
14.961
15.0258
15.0948
15.1684
15.2469
15.3305
15.4196
15.5146
15.6158
15.7236
15.8386
15.9611
16.0916
16.2306
16.3787
16.5365
16.7045
16.8835
17.074
17.2767
17.4925
17.7221
17.9665
18.2264
18.5029
18.7972
19.1106
19.4444
19.8004
20.1806
20.5876
21.0243
21.4943
22.0017
22.5511
23.1468
23.7928
24.4891
25.2231
25.9553
26.5953
14.1544
14.1551
14.1568
14.1594
14.1631
14.1676
14.1731
14.1796
14.1872
14.1958
14.2055
14.2163
14.2282
14.2414
14.2558
14.2715
14.2886
14.3071
14.3271
14.3487
14.3719
14.3969
14.4237
14.4525
14.4833
14.5164
14.5517
14.5896
14.63
14.6733
14.7194
14.7688
14.8215
14.8778
14.9379
15.002
15.0705
15.1437
15.2218
15.3051
15.3941
15.4891
15.5905
15.6988
15.8144
15.9379
16.0697
16.2105
16.3608
16.5213
16.6927
16.8757
17.0711
17.2797
17.5024
17.7401
17.994
18.265
18.5545
18.8637
19.1941
19.5476
19.9262
20.3322
20.7688
21.2397
21.7495
22.3045
22.9124
23.5832
24.3295
25.1678
26.117
27.1954
28.4179
29.7818
14.1583
14.159
14.1607
14.1635
14.1672
14.1719
14.1776
14.1843
14.1921
14.2009
14.2109
14.2221
14.2344
14.248
14.2629
14.2791
14.2968
14.3159
14.3366
14.359
14.3831
14.409
14.4368
14.4668
14.4988
14.5332
14.5701
14.6095
14.6517
14.6969
14.7452
14.7969
14.8521
14.9111
14.9743
15.0417
15.1139
15.191
15.2734
15.3615
15.4558
15.5565
15.6642
15.7794
15.9026
16.0344
16.1753
16.3261
16.4874
16.66
16.8447
17.0423
17.2538
17.4801
17.7223
17.9815
18.2589
18.5559
18.874
19.2147
19.5799
19.9717
20.3925
20.8453
21.3336
21.8621
22.4365
23.0644
23.7555
24.5232
25.3847
26.3634
27.4898
28.8006
30.3418
32.1666
14.162
14.1627
14.1645
14.1673
14.1711
14.176
14.1818
14.1887
14.1967
14.2058
14.2161
14.2276
14.2403
14.2543
14.2697
14.2864
14.3046
14.3244
14.3458
14.3689
14.3938
14.4206
14.4494
14.4804
14.5137
14.5494
14.5876
14.6286
14.6725
14.7196
14.7699
14.8238
14.8814
14.9432
15.0092
15.0799
15.1555
15.2364
15.3231
15.4158
15.5151
15.6213
15.7351
15.857
15.9875
16.1273
16.2771
16.4376
16.6095
16.7939
16.9914
17.2032
17.4303
17.6737
17.9347
18.2146
18.5148
18.8368
19.1822
19.5529
19.951
20.3787
20.8386
21.334
21.8687
22.4473
23.0757
23.7617
24.5153
25.3497
26.2824
27.3363
28.5418
29.9352
31.5586
33.4589
14.1655
14.1662
14.168
14.171
14.1749
14.1798
14.1858
14.1929
14.2011
14.2105
14.2211
14.2328
14.2459
14.2603
14.2761
14.2933
14.3121
14.3324
14.3544
14.3783
14.4039
14.4316
14.4614
14.4934
14.5278
14.5647
14.6043
14.6468
14.6923
14.7411
14.7934
14.8494
14.9094
14.9736
15.0425
15.1162
15.1951
15.2797
15.3704
15.4675
15.5716
15.6831
15.8027
15.931
16.0685
16.216
16.3742
16.544
16.7262
16.9218
17.1317
17.3571
17.5991
17.8589
18.1379
18.4376
18.7595
19.1052
19.4765
19.8755
20.3043
20.7651
21.2608
21.7944
22.3694
22.9901
23.6617
24.3908
25.1856
26.0567
27.0176
28.0847
29.2781
30.6185
32.1225
33.793
14.1688
14.1695
14.1714
14.1744
14.1784
14.1835
14.1896
14.1969
14.2053
14.2149
14.2257
14.2378
14.2512
14.2659
14.2821
14.2998
14.3191
14.34
14.3626
14.3871
14.4135
14.442
14.4727
14.5056
14.5411
14.5792
14.62
14.6639
14.711
14.7614
14.8155
14.8735
14.9357
15.0023
15.0738
15.1504
15.2325
15.3206
15.415
15.5163
15.6249
15.7415
15.8666
16.0009
16.1451
16.2999
16.4661
16.6448
16.8367
17.0429
17.2645
17.5028
17.7589
18.0343
18.3304
18.6488
18.991
19.3591
19.7547
20.1799
20.637
21.1282
21.656
22.2232
22.8327
23.488
24.1928
24.9515
25.7693
26.652
27.6064
28.6391
29.7556
30.9563
32.2275
33.5294
14.1718
14.1726
14.1745
14.1776
14.1817
14.1868
14.1931
14.2005
14.2091
14.219
14.23
14.2424
14.2561
14.2712
14.2878
14.3059
14.3256
14.347
14.3702
14.3953
14.4224
14.4516
14.4831
14.517
14.5535
14.5926
14.6347
14.6798
14.7283
14.7803
14.8361
14.896
14.9602
15.0291
15.103
15.1823
15.2674
15.3587
15.4566
15.5618
15.6747
15.796
15.9263
16.0662
16.2166
16.3783
16.5521
16.739
16.94
17.1562
17.3888
17.6392
17.9086
18.1985
18.5106
18.8464
19.2077
19.5964
20.0145
20.4639
20.9469
21.4655
22.022
22.6186
23.2574
23.9407
24.6704
25.4481
26.2751
27.1518
28.0772
29.0473
30.0529
31.0758
32.08
32.9991
14.1746
14.1754
14.1774
14.1805
14.1847
14.1899
14.1963
14.2039
14.2127
14.2227
14.234
14.2466
14.2606
14.276
14.2929
14.3114
14.3316
14.3534
14.3772
14.4028
14.4306
14.4605
14.4927
14.5275
14.5648
14.605
14.6481
14.6945
14.7443
14.7977
14.8551
14.9167
14.9828
15.0537
15.1299
15.2117
15.2995
15.3937
15.495
15.6038
15.7207
15.8463
15.9813
16.1265
16.2826
16.4506
16.6314
16.8259
17.0354
17.2608
17.5037
17.7652
18.0469
18.3502
18.677
19.0289
19.4077
19.8154
20.254
20.7255
21.2319
21.7751
22.357
22.9792
23.6429
24.349
25.0974
25.8868
26.7146
27.5755
28.4611
29.3578
30.2441
31.0873
31.8368
32.4158
14.1772
14.178
14.18
14.1831
14.1874
14.1927
14.1993
14.207
14.2159
14.2261
14.2376
14.2504
14.2646
14.2804
14.2976
14.3164
14.337
14.3593
14.3835
14.4097
14.438
14.4685
14.5015
14.5369
14.5751
14.6162
14.6603
14.7077
14.7587
14.8135
14.8723
14.9354
15.0032
15.0761
15.1543
15.2383
15.3286
15.4256
15.5298
15.6419
15.7623
15.8919
16.0313
16.1812
16.3426
16.5164
16.7035
16.905
17.1221
17.356
17.6081
17.8798
18.1726
18.4883
18.8284
19.1949
19.5896
20.0145
20.4716
20.9629
21.4902
22.0553
22.6596
23.3041
23.9891
24.7141
25.4771
26.2741
27.0987
27.9408
28.7854
29.6108
30.3862
31.0686
31.5987
31.8961
14.1794
14.1802
14.1822
14.1855
14.1898
14.1952
14.2018
14.2097
14.2187
14.2291
14.2407
14.2538
14.2683
14.2842
14.3017
14.3209
14.3418
14.3645
14.3891
14.4157
14.4446
14.4757
14.5092
14.5453
14.5842
14.6261
14.6711
14.7195
14.7716
14.8275
14.8875
14.9521
15.0214
15.0959
15.176
15.262
15.3545
15.4539
15.5608
15.6758
15.7995
15.9326
16.0758
16.23
16.3961
16.575
16.7678
16.9756
17.1995
17.441
17.7014
17.9822
18.285
18.6115
18.9636
19.3431
19.752
20.1922
20.6657
21.1745
21.7203
22.3046
22.9285
23.5924
24.2959
25.037
25.8121
26.615
27.436
28.261
29.0698
29.8343
30.5168
31.067
31.42
31.4947
14.1814
14.1822
14.1842
14.1875
14.1919
14.1974
14.2041
14.212
14.2212
14.2317
14.2435
14.2567
14.2714
14.2876
14.3053
14.3248
14.3459
14.369
14.394
14.421
14.4503
14.4819
14.5159
14.5526
14.5922
14.6348
14.6805
14.7298
14.7827
14.8397
14.9008
14.9666
15.0372
15.1132
15.1949
15.2827
15.3771
15.4786
15.5878
15.7053
15.8318
15.968
16.1146
16.2725
16.4427
16.6261
16.8239
17.0371
17.267
17.5151
17.7827
18.0714
18.3829
18.719
19.0815
19.4724
19.8935
20.3471
20.8349
21.3589
21.9207
22.5217
23.1626
23.8433
24.5626
25.3177
26.1036
26.9122
27.7313
28.5437
29.3252
30.0432
30.6545
31.1037
31.322
31.2269
14.183
14.1838
14.1859
14.1892
14.1936
14.1992
14.206
14.214
14.2233
14.2339
14.2458
14.2592
14.274
14.2904
14.3084
14.328
14.3494
14.3728
14.398
14.4254
14.4551
14.4871
14.5216
14.5588
14.5989
14.642
14.6885
14.7384
14.7921
14.8499
14.912
14.9788
15.0506
15.1278
15.2108
15.3001
15.3961
15.4994
15.6106
15.7302
15.8591
15.9979
16.1474
16.3084
16.4821
16.6693
16.8712
17.089
17.324
17.5777
17.8514
18.1469
18.4657
18.8099
19.1812
19.5816
20.0132
20.478
20.9778
21.5147
22.0901
22.7051
23.3603
24.0553
24.7882
25.5556
26.3514
27.166
27.9857
28.7908
29.5544
30.2406
30.8023
31.1804
31.3021
31.083
14.1843
14.1852
14.1872
14.1905
14.195
14.2006
14.2075
14.2156
14.2249
14.2356
14.2477
14.2612
14.2761
14.2926
14.3108
14.3306
14.3523
14.3758
14.4013
14.429
14.4589
14.4913
14.5261
14.5638
14.6043
14.6479
14.6949
14.7454
14.7997
14.8582
14.9211
14.9887
15.0614
15.1395
15.2236
15.3141
15.4114
15.5162
15.629
15.7504
15.8811
16.022
16.1738
16.3375
16.5139
16.7042
16.9095
17.1311
17.3702
17.6283
17.907
18.2079
18.5327
18.8834
19.2618
19.67
20.11
20.5839
21.0935
21.6407
22.2271
22.8535
23.5205
24.2271
24.9714
25.7492
26.5538
27.3748
28.197
28.9995
29.7535
30.4207
30.9517
14.1853
14.1861
14.1882
14.1916
14.1961
14.2017
14.2086
14.2167
14.2262
14.2369
14.2491
14.2626
14.2777
14.2943
14.3126
14.3326
14.3544
14.3781
14.4038
14.4317
14.4618
14.4944
14.5296
14.5675
14.6083
14.6523
14.6997
14.7506
14.8055
14.8644
14.9279
14.9961
15.0695
15.1484
15.2333
15.3247
15.423
15.5289
15.6428
15.7656
15.8978
16.0403
16.1938
16.3594
16.5379
16.7306
16.9384
17.1628
17.405
17.6666
17.949
18.254
18.5834
18.939
19.3228
19.7368
20.1832
20.6639
21.1809
21.736
22.3306
22.9658
23.6416
24.3572
25.1103
25.8965
26.7084
27.5351
28.3609
29.1639
29.9141
14.1859
14.1868
14.1889
14.1922
14.1967
14.2024
14.2093
14.2175
14.227
14.2378
14.25
14.2636
14.2788
14.2955
14.3138
14.3339
14.3558
14.3796
14.4055
14.4335
14.4638
14.4965
14.5318
14.57
14.611
14.6553
14.7029
14.7541
14.8093
14.8686
14.9324
15.001
15.0749
15.1543
15.2398
15.3318
15.4308
15.5373
15.6521
15.7757
15.9089
16.0524
16.2072
16.374
16.554
16.7482
16.9578
17.184
17.4283
17.6922
17.9771
18.2849
18.6172
18.9761
19.3635
19.7815
20.2321
20.7174
21.2393
21.7997
22.3999
23.0409
23.7227
24.4444
25.2036
25.9955
26.8127
27.6439
28.473
29.2776
30.0271
14.1862
14.1871
14.1892
14.1925
14.1971
14.2028
14.2097
14.2179
14.2274
14.2382
14.2504
14.2641
14.2793
14.296
14.3144
14.3345
14.3565
14.3803
14.4062
14.4343
14.4647
14.4975
14.533
14.5712
14.6123
14.6567
14.7044
14.7558
14.8111
14.8706
14.9346
15.0035
15.0775
15.1572
15.243
15.3353
15.4346
15.5415
15.6567
15.7807
15.9144
16.0585
16.2138
16.3813
16.5619
16.7569
16.9674
17.1945
17.4399
17.7048
17.991
18.3001
18.634
18.9945
19.3837
19.8036
20.2563
20.7438
21.2682
21.8311
22.434
23.0778
23.7625
24.4872
25.2492
26.0439
26.8636
27.697
28.5277
29.3331
30.0825
14.1862
14.187
14.1891
14.1925
14.197
14.2027
14.2096
14.2178
14.2273
14.2381
14.2504
14.264
14.2792
14.2959
14.3143
14.3345
14.3564
14.3803
14.4062
14.4343
14.4646
14.4975
14.5329
14.5711
14.6123
14.6566
14.7044
14.7558
14.8111
14.8705
14.9345
15.0034
15.0775
15.1571
15.2429
15.3352
15.4345
15.5414
15.6566
15.7806
15.9143
16.0583
16.2136
16.3811
16.5618
16.7567
16.9672
17.1943
17.4397
17.7046
17.9908
18.2999
18.6337
18.9942
19.3834
19.8032
20.2559
20.7434
21.2677
21.8306
22.4335
23.0772
23.7619
24.4865
25.2485
26.0431
26.8627
27.696
28.5266
29.3318
30.081
14.1858
14.1866
14.1887
14.1921
14.1966
14.2023
14.2092
14.2174
14.2268
14.2376
14.2498
14.2635
14.2786
14.2953
14.3137
14.3337
14.3556
14.3794
14.4053
14.4333
14.4636
14.4963
14.5317
14.5698
14.6108
14.655
14.7026
14.7539
14.809
14.8683
14.9321
15.0008
15.0746
15.154
15.2395
15.3314
15.4304
15.537
15.6517
15.7753
15.9085
16.052
16.2067
16.3735
16.5535
16.7477
16.9572
17.1834
17.4277
17.6915
17.9764
18.2841
18.6164
18.9752
19.3626
19.7805
20.231
20.7162
21.2381
21.7983
22.3984
23.0392
23.7209
24.4424
25.2014
25.993
26.81
27.6408
14.1851
14.1859
14.188
14.1913
14.1958
14.2015
14.2084
14.2165
14.2259
14.2367
14.2488
14.2624
14.2775
14.2941
14.3123
14.3323
14.3541
14.3778
14.4035
14.4314
14.4615
14.4941
14.5292
14.5671
14.608
14.652
14.6993
14.7502
14.8051
14.864
14.9274
14.9956
15.069
15.1479
15.2328
15.3242
15.4225
15.5283
15.6422
15.7649
15.8971
16.0395
16.1931
16.3586
16.5371
16.7297
16.9375
17.1618
17.404
17.6654
17.9478
18.2527
18.582
18.9375
19.3212
19.7351
20.1813
20.6619
21.1787
21.7336
22.3281
22.963
23.6385
24.3539
25.1067
25.8924
26.7038
14.184
14.1848
14.1869
14.1902
14.1947
14.2003
14.2071
14.2152
14.2246
14.2353
14.2473
14.2608
14.2758
14.2923
14.3104
14.3302
14.3519
14.3754
14.4009
14.4286
14.4585
14.4908
14.5257
14.5633
14.6038
14.6474
14.6943
14.7448
14.7992
14.8576
14.9204
14.988
15.0607
15.1389
15.2229
15.3134
15.4107
15.5154
15.6281
15.7495
15.8802
16.021
16.1728
16.3364
16.5127
16.703
16.9082
17.1297
17.3687
17.6267
17.9053
18.2061
18.5308
18.8814
19.2597
19.6677
20.1075
20.5811
21.0905
21.6375
22.2236
22.8497
23.5163
24.2225
24.9664
25.7437
26.5476
14.1826
14.1834
14.1855
14.1888
14.1932
14.1988
14.2055
14.2135
14.2228
14.2334
14.2454
14.2587
14.2735
14.2899
14.3079
14.3275
14.3489
14.3722
14.3975
14.4249
14.4545
14.4865
14.521
14.5582
14.5982
14.6414
14.6878
14.7377
14.7914
14.8492
14.9112
14.978
15.0497
15.1269
15.2099
15.2991
15.3951
15.4983
15.6095
15.7291
15.8579
15.9966
16.146
16.307
16.4806
16.6677
16.8696
17.0873
17.3222
17.5757
17.8493
18.1446
18.4633
18.8073
19.1784
19.5786
20.01
20.4745
20.9741
21.5106
22.0856
22.7003
23.3551
24.0495
24.782
25.5487
26.3437
14.1809
14.1817
14.1837
14.187
14.1913
14.1969
14.2036
14.2115
14.2207
14.2311
14.2429
14.2562
14.2708
14.287
14.3047
14.3242
14.3453
14.3683
14.3933
14.4203
14.4496
14.4811
14.5152
14.5519
14.5914
14.634
14.6797
14.7289
14.7819
14.8387
14.8999
14.9656
15.0362
15.1121
15.1937
15.2815
15.3758
15.4773
15.5865
15.7039
15.8303
15.9664
16.113
16.2708
16.4409
16.6242
16.8218
17.0349
17.2648
17.5127
17.7801
18.0687
18.38
18.7159
19.0782
19.4688
19.8897
20.3429
20.8304
21.354
21.9155
22.516
23.1563
23.8365
24.5552
25.3096
26.0946
14.1788
14.1796
14.1816
14.1848
14.1892
14.1946
14.2012
14.209
14.2181
14.2284
14.2401
14.2531
14.2676
14.2835
14.301
14.3202
14.341
14.3637
14.3883
14.415
14.4438
14.4748
14.5084
14.5445
14.5833
14.6252
14.6702
14.7185
14.7705
14.8264
14.8864
14.9509
15.0202
15.0947
15.1747
15.2606
15.3531
15.4524
15.5592
15.6741
15.7977
15.9307
16.0739
16.228
16.394
16.5728
16.7655
16.9731
17.1969
17.4382
17.6984
17.979
18.2816
18.6079
18.9598
19.339
19.7475
20.1874
20.6606
21.1689
21.7143
22.2981
22.9215
23.5848
24.2875
25.0279
14.1765
14.1773
14.1793
14.1824
14.1867
14.192
14.1985
14.2062
14.2152
14.2253
14.2368
14.2496
14.2639
14.2796
14.2968
14.3156
14.3361
14.3584
14.3826
14.4088
14.4371
14.4676
14.5005
14.5359
14.5741
14.6151
14.6592
14.7066
14.7575
14.8122
14.871
14.9341
15.0018
15.0746
15.1528
15.2367
15.3269
15.4238
15.528
15.64
15.7604
15.8898
16.0291
16.1789
16.3402
16.5138
16.7008
16.9022
17.1191
17.3529
17.6048
17.8762
18.1688
18.4842
18.8241
19.1902
19.5846
20.0092
20.4659
20.9567
21.4835
22.0481
22.6518
23.2957
23.9801
14.1739
14.1746
14.1766
14.1797
14.1839
14.1891
14.1955
14.2031
14.2119
14.2219
14.2331
14.2457
14.2597
14.2751
14.292
14.3105
14.3306
14.3525
14.3762
14.4018
14.4295
14.4594
14.4916
14.5263
14.5636
14.6038
14.6469
14.6932
14.7429
14.7963
14.8536
14.9152
14.9812
15.0521
15.1282
15.2099
15.2976
15.3918
15.493
15.6017
15.7184
15.844
15.9789
16.1239
16.28
16.4478
16.6284
16.8228
17.032
17.2573
17.4999
17.7612
18.0426
18.3458
18.6722
19.0238
19.4022
19.8096
20.2477
20.7187
21.2246
21.7673
22.3486
22.9702
23.6333
14.171
14.1717
14.1736
14.1767
14.1808
14.186
14.1922
14.1996
14.2082
14.218
14.2291
14.2414
14.2551
14.2702
14.2868
14.3048
14.3245
14.3459
14.3691
14.3942
14.4213
14.4505
14.4819
14.5158
14.5522
14.5913
14.6333
14.6784
14.7268
14.7788
14.8345
14.8943
14.9585
15.0273
15.1011
15.1803
15.2653
15.3565
15.4544
15.5595
15.6723
15.7935
15.9236
16.0634
16.2137
16.3752
16.5488
16.7355
16.9363
17.1523
17.3848
17.6349
17.904
18.1936
18.5054
18.8408
19.2018
19.5901
20.0077
20.4567
20.9392
21.4572
22.0132
22.6092
23.2474
14.1678
14.1686
14.1704
14.1734
14.1774
14.1825
14.1886
14.1959