/*--------------------------------*- C++ -*----------------------------------*\
  =========                 |
  \\      /  F ield         | OpenFOAM: The Open Source CFD Toolbox
   \\    /   O peration     | Website:  https://openfoam.org
    \\  /    A nd           | Version:  13
     \\/     M anipulation  |
\*---------------------------------------------------------------------------*/
FoamFile
{
    format      ascii;
    class       volScalarField;
    location    "300";
    object      k;
}
// * * * * * * * * * * * * * * * * * * * * * * * * * * * * * * * * * * * * * //

dimensions      [0 2 -2 0 0 0 0];

internalField   nonuniform List<scalar> 
169916
(
0.36468
0.367527
0.371086
0.375301
0.379951
0.384654
0.388994
0.392643
0.395424
0.397301
0.398321
0.398419
0.397614
0.396254
0.368455
0.372606
0.377943
0.384456
0.391704
0.398874
0.405452
0.410996
0.4152
0.417988
0.419497
0.419901
0.419291
0.418345
0.37241
0.378252
0.386058
0.395832
0.406701
0.417505
0.427685
0.436503
0.443104
0.447288
0.449441
0.450123
0.450365
0.450928
0.451951
0.453375
0.455118
0.457083
0.459146
0.461149
0.462919
0.464274
0.37073
0.376297
0.384275
0.395321
0.409186
0.424777
0.429983
0.446253
0.464141
0.478622
0.487631
0.491881
0.50425
0.502894
0.504788
0.507558
0.510082
0.512242
0.513342
0.513136
0.511064
0.506699
0.500235
0.372701
0.379665
0.390202
0.4051
0.423833
0.432647
0.461571
0.498275
0.532322
0.556542
0.566267
0.56446
0.561896
0.563373
0.566529
0.567909
0.566475
0.558194
0.544671
0.527501
0.508301
0.488449
0.468981
0.37355
0.381725
0.394896
0.4144
0.425015
0.460915
0.50748
0.575696
0.614652
0.68034
0.702937
0.705596
0.693242
0.721004
0.80272
0.726318
0.659453
0.605263
0.562809
0.52802
0.499934
0.477454
0.459587
0.445446
0.372774
0.381422
0.395862
0.405876
0.440123
0.502139
0.551622
0.680728
0.803726
0.993692
1.10059
1.35437
1.31251
1.00119
0.882535
0.782363
0.698755
0.640101
0.597024
0.564351
0.539496
0.520589
0.506464
0.495816
0.486334
0.370195
0.378212
0.392673
0.403201
0.445047
0.531081
0.624236
0.859159
1.06855
1.32738
1.34555
1.16254
0.908178
0.791777
0.672491
0.634061
0.602355
0.577684
0.560479
0.549128
0.542058
0.538088
0.536319
0.536038
0.366133
0.372401
0.384335
0.390537
0.421406
0.482705
0.537291
0.665895
0.720559
0.755184
0.749086
0.710551
0.668633
0.636399
0.61748
0.621428
0.611265
0.605046
0.602205
0.601742
0.602824
0.604969
0.607855
0.611265
0.615095
0.619372
0.361391
0.365414
0.373047
0.384895
0.390827
0.412351
0.442238
0.473775
0.498765
0.524141
0.545328
0.558408
0.566389
0.570337
0.557007
0.559504
0.561245
0.563165
0.565652
0.568774
0.57245
0.576611
0.581214
0.58622
0.591619
0.597449
0.356752
0.359001
0.3632
0.369726
0.379011
0.388807
0.39371
0.408904
0.425428
0.442606
0.459112
0.473132
0.476849
0.48144
0.484039
0.484831
0.484892
0.484963
0.485466
0.486644
0.48861
0.491386
0.494949
0.499271
0.504344
0.510209
0.352755
0.353934
0.356418
0.360385
0.365983
0.372958
0.381052
0.389941
0.398959
0.407167
0.413999
0.4193
0.423475
0.425973
0.427052
0.42729
0.42717
0.427017
0.427049
0.427409
0.428184
0.429428
0.431185
0.433497
0.436412
0.439983
0.349781
0.350411
0.352082
0.354896
0.35888
0.363966
0.369994
0.376495
0.382797
0.388155
0.392259
0.395107
0.396857
0.397714
0.397991
0.397959
0.397818
0.397711
0.397762
0.398051
0.398635
0.399545
0.400806
0.402436
0.404453
0.406875
0.348166
0.348539
0.349823
0.352048
0.355185
0.359119
0.363656
0.368453
0.372976
0.376696
0.37936
0.38098
0.381832
0.382174
0.382195
0.382021
0.38178
0.381664
0.381723
0.382022
0.382584
0.383415
0.384513
0.38587
0.387476
0.3893
0.34766
0.348003
0.349174
0.35116
0.353863
0.357125
0.36071
0.364304
0.367557
0.370176
0.372001
0.373018
0.373412
0.373255
0.372802
0.372305
0.371943
0.371851
0.372108
0.372581
0.373253
0.37411
0.375131
0.376294
0.377568
0.348065
0.348561
0.349827
0.351807
0.354348
0.357233
0.360214
0.363037
0.3655
0.367476
0.368868
0.369627
0.369789
0.369437
0.368963
0.368583
0.368418
0.368529
0.368913
0.369435
0.370081
0.370829
0.371655
0.372525
0.373403
0.349212
0.349994
0.351512
0.353659
0.356227
0.358955
0.361586
0.363926
0.365882
0.367433
0.36854
0.369167
0.369226
0.368888
0.368487
0.368193
0.368071
0.36813
0.368348
0.368678
0.369076
0.369493
0.369912
0.37029
0.370584
0.351913
0.353788
0.356227
0.358952
0.36166
0.364112
0.366185
0.367868
0.369193
0.370166
0.370769
0.370898
0.370647
0.370278
0.369926
0.369626
0.369364
0.369104
0.36881
0.368468
0.368089
0.367677
0.367236
0.366778
0.356074
0.35888
0.36185
0.364634
0.367021
0.36896
0.370505
0.371723
0.372642
0.373256
0.373452
0.3732
0.372698
0.372072
0.371373
0.370606
0.369761
0.368833
0.367843
0.366834
0.365842
0.36488
0.363969
0.357957
0.361088
0.364308
0.367209
0.369596
0.371478
0.372955
0.374118
0.37501
0.375626
0.375818
0.375462
0.37472
0.373755
0.372658
0.371468
0.370197
0.368855
0.367476
0.366114
0.364809
0.363578
0.36244
0.362316
0.365693
0.368676
0.37108
0.372942
0.374389
0.375526
0.376409
0.377033
0.377228
0.376818
0.375954
0.37482
0.373535
0.37215
0.370686
0.369159
0.367609
0.366091
0.364646
0.363294
0.362055
0.362312
0.365683
0.36866
0.371059
0.372917
0.37436
0.375493
0.37637
0.376989
0.377172
0.376754
0.375881
0.374741
0.37345
0.37206
0.370591
0.36906
0.367508
0.365988
0.364542
0.363189
0.36195
0.361082
0.364292
0.367179
0.369552
0.37142
0.372884
0.37403
0.374903
0.375497
0.375643
0.375248
0.374472
0.373478
0.372357
0.371145
0.369856
0.368501
0.367113
0.365744
0.364435
0.363202
0.362064
0.361053
0.358879
0.36184
0.364612
0.366983
0.368906
0.370434
0.371631
0.372524
0.373107
0.373238
0.372929
0.372374
0.371702
0.37096
0.370156
0.369282
0.368331
0.367324
0.366303
0.365303
0.364337
0.363424
0.362594
0.356234
0.358953
0.361652
0.364091
0.366146
0.367806
0.369103
0.370047
0.370618
0.370687
0.370384
0.369968
0.369573
0.369232
0.368932
0.368642
0.368323
0.367963
0.36757
0.367148
0.3667
0.366236
0.36578
0.353673
0.356239
0.358961
0.36158
0.363899
0.365826
0.36734
0.368407
0.368995
0.368991
0.368607
0.36817
0.367847
0.367698
0.367736
0.367939
0.368259
0.36865
0.36906
0.369475
0.369854
0.370146
0.370337
0.354364
0.357246
0.360218
0.363022
0.365455
0.367393
0.368743
0.369467
0.369575
0.369188
0.368689
0.36829
0.368108
0.368205
0.368581
0.369095
0.369733
0.370473
0.371288
0.372148
0.373015
0.373873
0.37469
0.353874
0.357134
0.360707
0.364286
0.367518
0.370113
0.371919
0.37293
0.373329
0.373202
0.372778
0.372308
0.371973
0.371901
0.372169
0.37264
0.373308
0.37416
0.375175
0.376331
0.377599
0.378935
0.380368
0.355185
0.35911
0.363628
0.368422
0.372945
0.376667
0.379364
0.381047
0.38198
0.382411
0.382519
0.382447
0.382323
0.382266
0.382376
0.382716
0.383311
0.384169
0.385289
0.386668
0.388299
0.390159
0.392153
0.358867
0.363939
0.369914
0.376548
0.382949
0.388382
0.392584
0.395579
0.397502
0.398542
0.398991
0.399119
0.399127
0.399167
0.399355
0.399778
0.400493
0.401535
0.402932
0.404711
0.406898
0.409519
0.412608
0.398919
0.407147
0.414078
0.419591
0.424064
0.426905
0.428352
0.428956
0.429187
0.429373
0.42974
0.430442
0.431575
0.4332
0.435365
0.438121
0.441523
0.445634
0.450534
0.413443
0.425964
0.43706
0.445929
0.475831
0.480401
0.4832
0.484368
0.484884
0.485422
0.486368
0.487948
0.490272
0.493365
0.497209
0.501778
0.507065
0.513101
0.519983
0.482477
0.500891
0.514634
0.521696
0.523794
0.552511
0.554342
0.55576
0.557553
0.55981
0.562484
0.565604
0.569206
0.573315
0.577771
0.582583
0.587791
0.593501
0.583532
0.614367
0.607527
0.604147
0.59831
0.617834
0.607655
0.601139
0.597682
0.596331
0.596285
0.597071
0.598421
0.60015
0.602185
0.604566
0.607459
0.769323
0.829779
0.738715
0.670117
0.676844
0.638786
0.608088
0.58308
0.564636
0.551891
0.543419
0.538024
0.534818
0.533147
0.53252
0.532663
1.50529
1.18676
1.01192
0.799084
0.709271
0.647594
0.602854
0.569549
0.54407
0.524483
0.509522
0.498363
0.490058
0.482357
0.475645
0.797685
0.721589
0.654126
0.599721
0.557525
0.523462
0.496058
0.474177
0.456794
0.443067
0.432279
0.423618
0.416571
0.365016
0.368025
0.371797
0.376216
0.380934
0.385537
0.389647
0.393007
0.395525
0.397231
0.398211
0.398583
0.398297
0.397612
0.369114
0.373657
0.379558
0.386552
0.393839
0.400895
0.407194
0.412289
0.415987
0.418365
0.419668
0.420247
0.420518
0.420493
0.373642
0.380375
0.389469
0.400206
0.411356
0.422758
0.433025
0.440959
0.446157
0.448996
0.4503
0.451156
0.451832
0.452417
0.452984
0.453542
0.454124
0.454793
0.455628
0.456454
0.457219
0.457888
0.371923
0.378479
0.388303
0.401869
0.418279
0.423836
0.442982
0.463699
0.479892
0.488967
0.491545
0.48978
0.487656
0.490046
0.490309
0.490753
0.490928
0.491158
0.491209
0.490675
0.489494
0.487717
0.485484
0.374525
0.383274
0.396984
0.41681
0.426557
0.462546
0.507837
0.546833
0.564326
0.557345
0.539813
0.522756
0.510853
0.503657
0.512251
0.510818
0.509311
0.508282
0.506067
0.501081
0.494779
0.487538
0.479773
0.376051
0.386977
0.40464
0.415472
0.459543
0.531497
0.596891
0.711176
0.772246
0.766334
0.758454
0.679888
0.630259
0.678527
0.655206
0.720698
0.678413
0.641706
0.6105
0.583638
0.561227
0.543707
0.530647
0.521321
0.375828
0.387324
0.395232
0.427329
0.498635
0.577688
0.853815
1.14788
1.25093
1.07306
0.942779
0.799554
0.754054
0.725706
0.709689
0.701603
0.69888
0.699592
0.702296
0.705805
0.373371
0.38449
0.392605
0.428825
0.487493
0.663515
1.05186
0.864109
0.791043
0.861855
0.861492
0.869131
0.879137
0.889821
0.899941
0.908737
0.91577
0.920083
0.36879
0.378173
0.395326
0.408242
0.470463
0.57516
0.774903
1.11526
0.957624
0.837425
0.880962
0.882968
0.895343
0.909602
0.920582
0.926719
0.92969
0.930497
0.929835
0.928377
0.926749
0.36335
0.369114
0.379637
0.386868
0.412594
0.455826
0.498286
0.54708
0.567153
0.562873
0.568403
0.593609
0.598652
0.617481
0.637222
0.679467
0.697571
0.716814
0.735954
0.75377
0.769629
0.783382
0.795144
0.805212
0.814062
0.822238
0.358097
0.361159
0.36683
0.375307
0.380615
0.395317
0.413067
0.430809
0.449207
0.467837
0.485575
0.502223
0.516124
0.525044
0.525168
0.527669
0.531219
0.537273
0.545941
0.557015
0.569471
0.582828
0.596672
0.610704
0.624842
0.639224
0.353654
0.355177
0.358179
0.362881
0.369197
0.376705
0.385558
0.396391
0.408789
0.420176
0.429219
0.435708
0.439314
0.440374
0.440052
0.439019
0.438008
0.437392
0.4376
0.43876
0.440991
0.444409
0.449109
0.455086
0.462391
0.471074
0.350442
0.351209
0.35307
0.356147
0.360417
0.365892
0.372481
0.380158
0.38794
0.394406
0.399039
0.401936
0.4035
0.403884
0.403397
0.402414
0.401464
0.400816
0.400662
0.400935
0.401707
0.40302
0.404923
0.407468
0.410706
0.414692
0.348757
0.349217
0.350613
0.352983
0.356319
0.360581
0.365618
0.371044
0.376159
0.380293
0.383023
0.38459
0.385297
0.385255
0.384656
0.383889
0.383224
0.382847
0.382905
0.383416
0.384255
0.385435
0.386962
0.388843
0.391081
0.393623
0.348429
0.348889
0.350202
0.35236
0.355281
0.358848
0.362785
0.366763
0.370403
0.373383
0.375384
0.376408
0.376595
0.376085
0.375351
0.374675
0.374244
0.374189
0.374581
0.375351
0.376361
0.377596
0.379037
0.380656
0.382435
0.34919
0.349883
0.351383
0.353632
0.356477
0.359689
0.363014
0.366145
0.368895
0.371125
0.372682
0.373484
0.373452
0.372964
0.372468
0.372185
0.372233
0.372653
0.373383
0.374293
0.375369
0.376588
0.377911
0.379293
0.380697
0.350794
0.351869
0.353747
0.356303
0.359299
0.362434
0.365413
0.368006
0.370166
0.371935
0.373268
0.374041
0.374067
0.373726
0.373425
0.37334
0.373525
0.373964
0.3746
0.375316
0.376088
0.376901
0.377719
0.378491
0.379193
0.354217
0.356629
0.359671
0.362996
0.366224
0.369076
0.371427
0.373326
0.374879
0.376098
0.37691
0.37712
0.376943
0.376701
0.37653
0.376448
0.376415
0.376364
0.376231
0.376015
0.375742
0.375417
0.375037
0.374643
0.359574
0.363194
0.36696
0.370395
0.373247
0.375503
0.377297
0.378754
0.37992
0.380744
0.381007
0.380742
0.380195
0.379518
0.378752
0.377897
0.376935
0.375846
0.374675
0.373493
0.37234
0.371224
0.370177
0.361863
0.366029
0.37025
0.373949
0.376882
0.37911
0.380844
0.38223
0.383332
0.384113
0.384282
0.383744
0.382722
0.381449
0.380036
0.378528
0.376931
0.375249
0.373536
0.371869
0.370285
0.368785
0.367404
0.367633
0.37214
0.376025
0.379038
0.381276
0.382976
0.38431
0.385379
0.386154
0.386295
0.385642
0.384404
0.382861
0.381167
0.379379
0.377511
0.375576
0.373633
0.371754
0.369969
0.368287
0.366732
0.367625
0.372124
0.375999
0.379002
0.381235
0.382931
0.384261
0.385325
0.386092
0.386223
0.385562
0.384316
0.382766
0.381064
0.379269
0.377396
0.375456
0.37351
0.371628
0.369842
0.368157
0.3666
0.366018
0.370222
0.373897
0.376806
0.379015
0.380729
0.382092
0.383164
0.383908
0.384019
0.383434
0.382371
0.38106
0.379616
0.378081
0.376464
0.374768
0.373046
0.371373
0.369786
0.368288
0.366911
0.365699
0.363192
0.366945
0.37036
0.373191
0.375428
0.377202
0.378632
0.379764
0.380538
0.380714
0.380373
0.379757
0.379014
0.378189
0.377285
0.376284
0.375168
0.373977
0.372783
0.371628
0.370513
0.369475
0.368566
0.359681
0.363
0.366217
0.369054
0.371387
0.37326
0.374779
0.375965
0.376735
0.376871
0.37663
0.376328
0.376096
0.375953
0.375867
0.375772
0.375606
0.375368
0.375084
0.374753
0.374374
0.373981
0.373625
0.356324
0.359318
0.362448
0.365415
0.367986
0.370108
0.371828
0.373107
0.373831
0.37378
0.373385
0.373041
0.372915
0.373062
0.37347
0.374087
0.374793
0.37556
0.376372
0.377194
0.377969
0.378676
0.379265
0.356504
0.359719
0.363038
0.366151
0.368864
0.371046
0.37255
0.373303
0.373192
0.372644
0.372095
0.371766
0.371767
0.372151
0.372865
0.373758
0.374819
0.376023
0.377332
0.378701
0.380095
0.381467
0.382745
0.355303
0.358869
0.362799
0.366768
0.370391
0.373339
0.375317
0.37633
0.376524
0.376021
0.375283
0.374592
0.374139
0.374054
0.37441
0.37515
0.376128
0.377328
0.378732
0.380311
0.382054
0.383955
0.386002
0.356323
0.360573
0.365596
0.371102
0.376279
0.380445
0.383218
0.38485
0.385627
0.38573
0.385229
0.384534
0.383919
0.383578
0.383646
0.384126
0.384936
0.386089
0.387599
0.389476
0.391733
0.394328
0.397266
0.360407
0.365853
0.372543
0.380208
0.388179
0.394694
0.399397
0.402371
0.404086
0.404653
0.404444
0.403815
0.403196
0.402877
0.402892
0.403362
0.404356
0.405933
0.408153
0.411085
0.414799
0.419363
0.424784
0.408509
0.419952
0.429227
0.436254
0.440501
0.442114
0.44239
0.441947
0.441582
0.441693
0.442698
0.444745
0.447941
0.452356
0.458045
0.46507
0.47348
0.483342
0.494773
0.426284
0.44252
0.456877
0.468917
0.478086
0.482915
0.520346
0.523229
0.527359
0.53377
0.542595
0.553718
0.566428
0.580069
0.59424
0.608599
0.623032
0.637647
0.652776
0.500778
0.515196
0.529624
0.545253
0.558847
0.565983
0.666521
0.684518
0.702473
0.719601
0.735165
0.748871
0.760788
0.771145
0.78023
0.78842
0.796171
0.804052
0.965766
1.04192
0.868054
0.750267
0.78314
0.762168
0.903033
0.894519
0.89769
0.90422
0.9098
0.912419
0.912691
0.911471
0.909381
0.906948
0.904676
0.903107
1.11245
0.979692
0.863367
0.823535
0.897389
0.885844
0.883267
0.884717
0.888469
0.892952
0.897262
0.900988
0.904018
0.905711
0.90684
1.17801
1.03958
0.889723
0.831913
0.781558
0.746642
0.726313
0.715527
0.710822
0.70982
0.711177
0.713924
0.717277
0.720868
0.839478
0.70283
0.666387
0.634258
0.605552
0.579366
0.557855
0.541304
0.529151
0.520605
0.514907
0.511405
0.509658
0.363106
0.365566
0.368826
0.372865
0.377393
0.382002
0.386281
0.389919
0.392775
0.394881
0.396349
0.3973
0.397855
0.398279
0.398464
0.366448
0.370214
0.375379
0.381887
0.389
0.396186
0.402827
0.408393
0.412575
0.415435
0.417254
0.418422
0.419535
0.420439
0.421093
0.370115
0.375746
0.383805
0.393928
0.405066
0.41717
0.428242
0.436924
0.44261
0.445564
0.446806
0.447714
0.448708
0.449876
0.45124
0.45227
0.453043
0.453648
0.454131
0.454528
0.454866
0.455169
0.455456
0.373976
0.382227
0.394311
0.410139
0.416606
0.43812
0.46065
0.47768
0.486823
0.487901
0.483535
0.479099
0.476617
0.476449
0.480473
0.481658
0.482277
0.482459
0.482104
0.48145
0.480598
0.479595
0.478478
0.377658
0.389194
0.406475
0.416297
0.456683
0.510665
0.548385
0.56656
0.561113
0.543543
0.522821
0.504877
0.491509
0.48783
0.488425
0.509935
0.509605
0.507606
0.504151
0.499717
0.494766
0.489577
0.484339
0.380352
0.394894
0.404121
0.444377
0.531163
0.625835
0.737112
0.909408
1.0236
1.15431
1.1973
1.07885
0.843545
0.699917
0.712353
0.667762
0.669777
0.6368
0.608839
0.584502
0.564204
0.547203
0.533069
0.521405
0.381071
0.397444
0.410832
0.470587
0.567821
1.00551
1.04971
0.938099
0.81918
0.772983
0.740099
0.715624
0.697572
0.684221
0.674071
0.66592
0.658098
0.378721
0.394393
0.40906
0.476033
0.63188
0.872724
1.17234
1.34663
1.1479
1.05476
0.997792
0.958062
0.9267
0.90026
0.876382
0.853575
0.373203
0.385671
0.396233
0.45125
0.561046
0.97884
1.29621
1.38303
1.35079
1.31461
1.27582
1.2363
1.19935
1.16468
1.1321
1.10171
1.07422
1.04974
0.366456
0.375403
0.390709
0.403818
0.45521
0.540199
0.574788
0.646417
0.693989
0.848138
0.80826
0.774046
0.775083
0.871906
0.978594
0.985384
1.02986
1.07293
1.10121
1.11268
1.11187
1.10266
1.08887
1.07322
1.05874
1.04609
0.360319
0.364635
0.372615
0.384117
0.39297
0.413381
0.430522
0.44818
0.476044
0.505642
0.528436
0.564363
0.612024
0.657781
0.695314
0.70853
0.728908
0.753762
0.780119
0.805627
0.828351
0.846514
0.86058
0.871215
0.879611
0.887217
0.355243
0.357322
0.361152
0.36694
0.374058
0.382079
0.391422
0.398402
0.420084
0.445343
0.463291
0.472719
0.469843
0.464672
0.460983
0.458141
0.4567
0.459454
0.465953
0.47503
0.486689
0.500753
0.516684
0.533917
0.552462
0.572231
0.351725
0.352748
0.354954
0.358492
0.363203
0.369217
0.376391
0.381049
0.393721
0.407212
0.416814
0.421722
0.421358
0.419176
0.416569
0.414573
0.412951
0.411407
0.411348
0.412854
0.415877
0.42
0.425238
0.431651
0.439282
0.350015
0.35068
0.352332
0.355023
0.358777
0.3636
0.369633
0.376728
0.383848
0.389932
0.393794
0.395543
0.395959
0.395185
0.393936
0.39278
0.392061
0.391784
0.392195
0.39352
0.395499
0.398064
0.401247
0.405027
0.409327
0.350119
0.350864
0.35252
0.355093
0.358532
0.362652
0.36742
0.372324
0.37679
0.380674
0.383403
0.384702
0.384768
0.384201
0.383499
0.383012
0.382969
0.383476
0.384567
0.386166
0.388139
0.390471
0.393125
0.395993
0.399076
0.351633
0.352762
0.354799
0.35768
0.361229
0.365162
0.369207
0.372833
0.375952
0.378757
0.380835
0.381868
0.381825
0.381496
0.381397
0.381773
0.382721
0.384156
0.385914
0.387909
0.390117
0.392508
0.395025
0.397594
0.400186
0.353902
0.355661
0.358383
0.361913
0.365912
0.369927
0.373574
0.376554
0.379014
0.381184
0.382954
0.383999
0.384028
0.383906
0.384124
0.384764
0.385805
0.387136
0.388639
0.390274
0.39206
0.39397
0.395894
0.397679
0.399289
0.358995
0.362639
0.367092
0.371807
0.376134
0.37971
0.382456
0.384654
0.386534
0.388135
0.389215
0.389402
0.389284
0.389277
0.389465
0.389816
0.39024
0.390613
0.390836
0.390977
0.391075
0.391102
0.390998
0.390877
0.366836
0.372456
0.378152
0.383088
0.38689
0.389599
0.391561
0.393115
0.394406
0.395151
0.395067
0.394383
0.393488
0.392527
0.391506
0.390403
0.389157
0.387717
0.386209
0.384755
0.383343
0.381934
0.380631
0.370204
0.376927
0.383606
0.389131
0.393096
0.395634
0.397314
0.398524
0.399385
0.399739
0.399239
0.397788
0.395862
0.393781
0.391637
0.389444
0.387165
0.384786
0.382441
0.380224
0.378108
0.376061
0.374164
0.379443
0.386783
0.392749
0.396895
0.399402
0.400957
0.401936
0.402719
0.403016
0.402383
0.400633
0.398279
0.395728
0.393159
0.390586
0.387964
0.385284
0.382708
0.380277
0.377937
0.375647
0.373483
0.379426
0.386746
0.39269
0.39682
0.399324
0.400879
0.401856
0.402628
0.40291
0.402264
0.400502
0.398138
0.395572
0.392988
0.3904
0.387765
0.385076
0.382496
0.380059
0.377713
0.375419
0.373257
0.376904
0.383541
0.389007
0.392917
0.395417
0.397066
0.398225
0.39902
0.399295
0.398729
0.397226
0.395251
0.393122
0.390936
0.388708
0.386403
0.384007
0.381651
0.379427
0.377309
0.375268
0.373379
0.37172
0.37245
0.378117
0.383011
0.386769
0.389448
0.391381
0.392899
0.394128
0.394739
0.394534
0.393745
0.39275
0.391691
0.390579
0.389403
0.388099
0.386619
0.385084
0.383612
0.382193
0.380787
0.379492
0.378399
0.367107
0.371814
0.376127
0.379684
0.382413
0.384582
0.38646
0.388038
0.389013
0.3891
0.38889
0.388784
0.388861
0.389101
0.389429
0.389723
0.389884
0.38998
0.390045
0.390052
0.389944
0.389822
0.389734
0.361944
0.365937
0.369947
0.373583
0.376534
0.378946
0.381042
0.382738
0.383717
0.383659
0.383486
0.383659
0.384246
0.385228
0.38654
0.388038
0.389675
0.391481
0.393428
0.395396
0.397239
0.398892
0.400277
0.361277
0.36522
0.369269
0.372879
0.37595
0.378677
0.380669
0.381626
0.381498
0.381093
0.380919
0.381221
0.38206
0.383466
0.385205
0.38718
0.389373
0.391756
0.394273
0.39686
0.399477
0.401977
0.404095
0.358574
0.3627
0.367468
0.372411
0.376882
0.380711
0.383372
0.384635
0.384671
0.384033
0.383218
0.382596
0.382395
0.38275
0.383697
0.385219
0.387114
0.389351
0.391913
0.394698
0.397721
0.400977
0.404369
0.358797
0.363594
0.369713
0.376896
0.384142
0.390255
0.394148
0.395922
0.396367
0.39556
0.394214
0.392917
0.392049
0.391703
0.392088
0.393431
0.395397
0.397978
0.401209
0.40512
0.409657
0.414639
0.420373
0.36322
0.369208
0.377223
0.387418
0.390181
0.397373
0.403342
0.420918
0.421032
0.41918
0.416926
0.415378
0.414038
0.413288
0.414182
0.416731
0.420541
0.425572
0.43184
0.43942
0.448418
0.458679
0.469952
0.409912
0.426857
0.438811
0.474383
0.473502
0.469695
0.466543
0.463832
0.465268
0.470762
0.479013
0.48994
0.503562
0.518579
0.534944
0.552677
0.5716
0.591833
0.613689
0.448777
0.477562
0.499732
0.522931
0.542212
0.551947
0.661653
0.674155
0.694331
0.719427
0.746575
0.773099
0.797475
0.818563
0.835784
0.848902
0.859288
0.868462
0.877962
0.520304
0.558071
0.567786
0.651364
0.716734
0.760935
1.03586
1.05528
1.07647
1.0886
1.08972
1.08244
1.0703
1.05584
1.04082
1.02684
1.015
1.00599
1.16799
1.17727
1.09064
1.09974
1.33602
1.31342
1.44535
1.37802
1.31907
1.26505
1.2178
1.17644
1.13955
1.10705
1.0783
1.05295
1.03109
1.35295
1.92691
1.54804
1.3011
1.17858
1.09966
1.04144
0.995172
0.956928
0.924024
0.894632
0.867569
0.842068
0.89492
0.978785
0.87594
0.826105
0.790373
0.762775
0.741769
0.725738
0.713108
0.701403
0.690296
0.679839
0.670244
0.863261
0.777956
0.656486
0.626607
0.601285
0.578993
0.560393
0.544807
0.531877
0.521243
0.512612
0.50578
0.500654
0.363542
0.366202
0.369703
0.373873
0.378371
0.382747
0.386615
0.389721
0.392049
0.393738
0.394963
0.395892
0.396737
0.39759
0.398287
0.36725
0.371487
0.377175
0.383837
0.391058
0.398069
0.404201
0.408911
0.412055
0.413942
0.415052
0.415982
0.417234
0.418581
0.419809
0.371527
0.378135
0.386934
0.397438
0.410201
0.422604
0.432658
0.439921
0.442897
0.442588
0.441507
0.442118
0.44349
0.44526
0.447068
0.448724
0.449936
0.450833
0.451523
0.452065
0.452505
0.452883
0.453237
0.376318
0.386196
0.399434
0.405762
0.428176
0.45407
0.474048
0.503353
0.496645
0.486441
0.475204
0.470376
0.464889
0.464386
0.465873
0.47413
0.477137
0.478889
0.47981
0.480135
0.480042
0.479746
0.479377
0.381193
0.395104
0.402849
0.435571
0.493334
0.541945
0.572381
0.57821
0.566112
0.545454
0.523078
0.505152
0.49098
0.488288
0.489513
0.493778
0.528612
0.528207
0.525366
0.521185
0.5165
0.511755
0.507171
0.385162
0.403648
0.41856
0.481861
0.591481
0.740906
1.01906
1.09797
1.08919
1.07149
1.04957
1.06073
1.05619
0.844537
0.769521
0.709197
0.693825
0.654683
0.623854
0.598165
0.5768
0.559138
0.544568
0.5326
0.385367
0.39408
0.433997
0.500752
0.704911
0.926159
0.838925
0.788492
0.726788
0.692477
0.663219
0.638744
0.6187
0.602316
0.588962
0.578101
0.382889
0.391897
0.434416
0.520896
0.52084
1.14226
1.23138
1.04009
0.935154
0.867303
0.818453
0.781444
0.752374
0.728921
0.709747
0.376992
0.384143
0.417144
0.520699
0.670458
0.636028
1.18581
1.37784
1.24979
1.11483
1.05496
1.02404
0.985556
0.944798
0.903946
0.866195
0.83156
0.370371
0.38121
0.390716
0.432004
0.505667
0.603538
0.675268
0.711615
0.757126
0.763617
0.933467
1.26485
1.28993
1.27091
1.09246
1.07254
1.19844
1.22774
1.21717
1.17785
1.13225
1.08842
1.04916
1.01531
0.986519
0.963767
0.362856
0.368808
0.378611
0.387151
0.411206
0.432914
0.446547
0.472077
0.534628
0.606559
0.81027
1.02896
1.09749
1.09739
1.06098
0.958294
0.982087
1.00591
1.02402
1.03367
1.03382
1.0286
1.0184
1.0034
0.987388
0.973549
0.357274
0.360022
0.364859
0.371464
0.378927
0.386652
0.39289
0.414863
0.463233
0.525632
0.56098
0.579061
0.637052
0.622132
0.610276
0.606421
0.608297
0.614086
0.62318
0.634997
0.648749
0.664035
0.680602
0.698801
0.718074
0.736302
0.353601
0.354996
0.357673
0.361675
0.366726
0.372605
0.377156
0.392473
0.417454
0.442848
0.452649
0.450368
0.45566
0.45049
0.446605
0.445896
0.448416
0.454036
0.462522
0.473669
0.48393
0.492516
0.500267
0.50791
0.515985
0.352164
0.353194
0.355291
0.358471
0.362714
0.367711
0.37105
0.381389
0.394421
0.406398
0.41519
0.417556
0.416889
0.416871
0.416939
0.416803
0.417819
0.420036
0.4234
0.427837
0.433247
0.439559
0.446631
0.453731
0.459823
0.353058
0.354307
0.356588
0.359902
0.364139
0.368718
0.370831
0.377822
0.385169
0.392025
0.398582
0.401889
0.405888
0.405716
0.405548
0.405479
0.406237
0.408011
0.410883
0.414595
0.419356
0.42488
0.43075
0.436209
0.441532
0.355493
0.357418
0.360451
0.364508
0.369217
0.374432
0.379977
0.384772
0.388106
0.388963
0.392307
0.394973
0.400242
0.401649
0.402894
0.405107
0.408278
0.41221
0.416848
0.421558
0.426431
0.431522
0.43686
0.442411
0.448058
0.358737
0.361696
0.365984
0.371342
0.377017
0.38264
0.387514
0.390987
0.393751
0.396602
0.399472
0.401247
0.401528
0.4028
0.404884
0.407578
0.410597
0.414107
0.418265
0.423196
0.428863
0.434871
0.440647
0.445677
0.449975
0.366447
0.372454
0.379551
0.38668
0.393066
0.397843
0.400901
0.403175
0.405313
0.407415
0.408853
0.408909
0.408953
0.409736
0.411348
0.413564
0.416081
0.418579
0.420745
0.422702
0.42457
0.426174
0.427317
0.379083
0.388633
0.397922
0.405447
0.410403
0.412692
0.413786
0.414393
0.415154
0.415404
0.414509
0.412956
0.411566
0.410383
0.40924
0.408043
0.406657
0.405019
0.403487
0.402192
0.400926
0.399572
0.384507
0.396479
0.4079
0.416238
0.420739
0.421629
0.421642
0.421264
0.421044
0.420587
0.419009
0.415874
0.412418
0.409118
0.405946
0.402829
0.399639
0.396386
0.393389
0.390648
0.387893
0.385129
0.400981
0.413914
0.422995
0.427493
0.427914
0.42742
0.427345
0.427935
0.428162
0.426637
0.423226
0.419334
0.415747
0.412461
0.409355
0.4062
0.402977
0.400072
0.397506
0.394848
0.392011
0.389279
0.400944
0.41383
0.422867
0.427346
0.427766
0.427247
0.42711
0.427607
0.427788
0.426222
0.422783
0.418858
0.415239
0.411928
0.408805
0.405637
0.402405
0.399498
0.396932
0.394281
0.391453
0.388731
0.396438
0.407736
0.415921
0.42029
0.421106
0.421078
0.420655
0.420361
0.419813
0.418168
0.414984
0.41147
0.408122
0.404914
0.401761
0.398534
0.395252
0.392231
0.389465
0.386687
0.383903
0.381351
0.388624
0.397831
0.405238
0.410059
0.412291
0.413371
0.413926
0.414572
0.414643
0.41358
0.411882
0.410343
0.409013
0.407742
0.406448
0.404991
0.403286
0.401681
0.400303
0.398951
0.397518
0.396296
0.395727
0.379577
0.386688
0.393047
0.397786
0.40084
0.403176
0.405273
0.407509
0.408799
0.408674
0.408545
0.409113
0.410454
0.412364
0.414562
0.416726
0.418568
0.420236
0.421883
0.423338
0.424421
0.425392
0.426254
0.371374
0.377028
0.382643
0.387515
0.390964
0.393671
0.396403
0.399131
0.400825
0.401063
0.402349
0.404424
0.407096
0.41008
0.413594
0.417814
0.422842
0.42871
0.434953
0.440974
0.446258
0.450772
0.454254
0.369284
0.374519
0.380101
0.384917
0.388198
0.388559
0.391028
0.393452
0.399983
0.401325
0.402573
0.40475
0.4077
0.411546
0.416111
0.420786
0.425735
0.430998
0.436589
0.442486
0.448509
0.453884
0.457138
0.364211
0.36881
0.370986
0.376784
0.382325
0.387537
0.392756
0.39616
0.405767
0.405415
0.405012
0.404671
0.405031
0.406455
0.408959
0.412419
0.416979
0.422134
0.428064
0.433732
0.439342
0.444776
0.449914
0.362756
0.367759
0.370481
0.378693
0.388183
0.396919
0.403979
0.407013
0.417215
0.416859
0.416683
0.415963
0.416469
0.418341
0.421602
0.426256
0.431994
0.43875
0.446561
0.455013
0.462648
0.469292
0.478164
0.366749
0.372709
0.375963
0.387376
0.404975
0.42188
0.431853
0.432808
0.45558
0.450769
0.447578
0.447531
0.451125
0.458337
0.46897
0.482819
0.494469
0.504327
0.51326
0.522079
0.531292
0.542185
0.555673
0.439452
0.464345
0.487253
0.487138
0.641719
0.625665
0.613475
0.607772
0.608025
0.612778
0.621447
0.63321
0.64706
0.662448
0.679056
0.697392
0.714328
0.732919
0.753325
0.497651
0.55518
0.712526
0.872122
0.885141
0.833728
0.776525
0.826206
0.870794
0.913068
0.945689
0.963652
0.974064
0.97581
0.969552
0.959233
0.948269
0.938856
0.932103
0.651313
1.00471
1.07368
1.17878
1.11491
1.03595
0.965322
1.17432
1.18741
1.17514
1.14229
1.10215
1.06161
1.02457
0.992818
0.966744
0.941904
0.910329
0.92456
0.937891
1.00306
1.23101
1.12123
1.45516
1.29109
1.30272
1.21199
1.09423
1.03762
1.01126
0.983597
0.949805
0.913742
0.87808
0.844359
0.812778
0.811969
1.43323
1.69761
1.18737
1.04354
0.952086
0.886895
0.837989
0.799896
0.769346
0.744381
0.723841
0.706985
0.696473
0.833225
0.860878
0.749399
0.714162
0.683964
0.658642
0.637903
0.62101
0.607192
0.595944
0.58693
0.579998
0.92146
0.801571
0.667842
0.633396
0.606136
0.583187
0.56397
0.548036
0.534895
0.524131
0.515447
0.508643
0.503625
0.363964
0.366756
0.370432
0.374735
0.379227
0.383412
0.386883
0.389492
0.391371
0.392738
0.393775
0.394673
0.395702
0.396866
0.39796
0.367975
0.372545
0.37871
0.385775
0.393108
0.399847
0.405278
0.408935
0.411085
0.412244
0.412876
0.413646
0.414946
0.416623
0.418321
0.372767
0.380098
0.390014
0.401656
0.414853
0.426444
0.435847
0.440321
0.440772
0.439045
0.436844
0.436965
0.438593
0.440923
0.443274
0.445637
0.447435
0.448869
0.450063
0.451104
0.452058
0.452976
0.453899
0.378393
0.389559
0.405421
0.413082
0.438968
0.464083
0.501729
0.496434
0.487544
0.477133
0.466246
0.456317
0.453484
0.453725
0.456183
0.465314
0.469185
0.473372
0.477185
0.479809
0.481798
0.48347
0.485015
0.384409
0.400088
0.410356
0.455946
0.519402
0.559057
0.575802
0.575163
0.558695
0.537921
0.517469
0.498654
0.487022
0.482491
0.48478
0.487791
0.523612
0.525612
0.52561
0.524271
0.522437
0.520613
0.51904
0.38887
0.397536
0.436101
0.533072
0.685932
0.838055
1.03686
1.02283
0.997602
0.972853
0.94134
0.903693
0.974209
0.894936
0.691701
0.683774
0.646749
0.638356
0.618475
0.601537
0.587075
0.574934
0.56484
0.556519
0.390999
0.402918
0.45595
0.581433
0.851714
0.761726
0.695083
0.665157
0.64219
0.622719
0.606251
0.592309
0.580462