/*--------------------------------*- C++ -*----------------------------------*\
  =========                 |
  \\      /  F ield         | OpenFOAM: The Open Source CFD Toolbox
   \\    /   O peration     | Website:  https://openfoam.org
    \\  /    A nd           | Version:  13
     \\/     M anipulation  |
\*---------------------------------------------------------------------------*/
FoamFile
{
    format      ascii;
    class       volScalarField;
    location    "300";
    object      omega;
}
// * * * * * * * * * * * * * * * * * * * * * * * * * * * * * * * * * * * * * //

dimensions      [0 0 -1 0 0 0 0];

internalField   nonuniform List<scalar> 
169916
(
18.8081
18.9965
19.2699
19.6359
20.0774
20.5471
20.9891
21.3589
21.6331
21.8083
21.8947
21.9116
21.8773
21.8136
19.0689
19.4165
19.9418
20.6801
21.5924
22.5464
23.4586
24.2482
24.8455
25.2269
25.4176
25.4694
25.44
25.3935
19.408
20.0114
20.983
22.4195
24.2347
26.1344
28.1184
30.012
31.4884
32.4047
32.8308
33.0179
33.0987
33.2335
33.5689
34.1578
35.0351
36.2223
37.7221
39.5137
41.5584
43.8093
19.2629
19.8234
20.8242
22.5424
25.1628
28.6529
29.6344
33.6605
38.8593
43.4507
46.5045
48.0972
63.4485
63.349
64.9793
67.683
71.27
75.5649
80.2812
85.1379
89.84
94.1413
97.9069
19.4636
20.2724
21.8517
24.7019
29.2892
31.3832
40.8603
57.6636
77.1867
93.5322
102.585
105.959
107.436
109.516
164.824
171.418
177.03
180.43
181.602
180.713
178.111
174.204
169.387
19.5793
20.6343
22.9144
27.4704
30.0834
43.0034
67.0826
131.575
162.958
229.794
265.705
321.06
318.764
326.832
382.914
345.442
311.47
281.974
256.817
234.975
216.135
199.897
185.871
173.697
19.534
20.6936
23.3487
25.5728
36.6658
68.8278
105.472
272.372
462.622
677.132
733.492
823.397
661.728
511.378
430.793
345.567
297.585
261.679
233.63
211.102
192.719
177.503
164.787
154.004
144.52
19.308
20.336
22.9686
25.3146
40.5379
94.0096
186.016
782.392
1041.53
959.169
757.048
632.641
428.607
330.973
254.442
223.922
199.703
180.406
165.244
153.112
143.202
134.97
128.03
122.108
18.9761
19.6702
21.5669
22.52
31.4303
59.7661
93.9183
241.835
332.112
347.051
339.316
266.72
218.582
176.649
153.052
161.167
149.579
140.113
132.344
125.851
120.336
115.605
111.521
107.979
104.906
102.257
18.6584
19.0044
19.9258
21.7551
22.6929
27.5257
36.5985
48.9186
58.9008
70.4439
80.2454
83.548
84.2574
82.8047
84.7157
84.1809
83.1691
82.1007
81.0951
80.1761
79.3458
78.61
77.979
77.4606
77.0634
76.802
18.4255
18.5619
18.9216
19.6296
20.8667
22.242
22.9686
25.7431
29.1677
33.0608
36.9027
39.9714
40.5759
41.2205
41.7895
41.9439
41.964
42.0122
42.1629
42.449
42.8787
43.4433
44.1292
44.9254
45.828
46.8437
18.277
18.3157
18.4714
18.7967
19.3518
20.1358
21.1515
22.3683
23.663
24.8165
25.723
26.3779
26.8638
27.0962
27.1459
27.1101
27.0544
27.0194
27.0294
27.1019
27.2491
27.4803
27.8045
28.2315
28.7713
29.4342
18.188
18.1847
18.2624
18.4533
18.7849
19.2741
19.9215
20.666
21.393
21.9665
22.3493
22.565
22.6545
22.6564
22.6106
22.545
22.4782
22.4226
22.3887
22.384
22.4153
22.4884
22.609
22.7831
23.0167
23.3161
18.1408
18.1204
18.1656
18.2973
18.5296
18.8649
19.2885
19.7564
20.1884
20.5089
20.6965
20.7728
20.7805
20.7504
20.7008
20.6433
20.5865
20.5382
20.5048
20.4917
20.5022
20.5394
20.6054
20.7021
20.8311
20.9909
18.1254
18.1027
18.1383
18.2463
18.4304
18.6822
18.977
19.2749
19.5304
19.7103
19.8065
19.831
19.8111
19.7692
19.7183
19.6664
19.6198
19.5833
19.5602
19.5525
19.5612
19.5869
19.6296
19.6886
19.762
18.1362
18.1223
18.1643
18.2702
18.4348
18.64
18.858
19.0582
19.2183
19.3276
19.383
19.3891
19.3627
19.3215
19.277
19.2359
19.2024
19.1785
19.1654
19.1629
19.1707
19.1882
19.2144
19.2474
19.2848
18.1686
18.1733
18.2353
18.3559
18.5212
18.7053
18.8799
19.024
19.1296
19.1978
19.2298
19.2281
19.2028
19.1665
19.1293
19.0961
19.0691
19.0486
19.0342
19.0247
19.0191
19.0168
19.0167
19.0175
19.0193
18.2482
18.342
18.4916
18.6725
18.8524
19.0055
19.1207
19.2
19.2495
19.2726
19.2716
19.252
19.2225
19.1908
19.1607
19.1333
19.1083
19.0844
19.0606
19.0362
19.0116
18.9871
18.9624
18.9375
18.4668
18.655
18.8623
19.0493
19.1947
19.2971
19.3654
19.4082
19.4303
19.4338
19.4212
19.3967
19.3662
19.3333
19.2993
19.2645
19.2283
19.1903
19.1509
19.1114
19.0725
19.0341
18.9963
18.5781
18.8035
19.0399
19.2401
19.3864
19.485
19.5499
19.5916
19.6158
19.6241
19.6165
19.5939
19.5609
19.5222
19.4805
19.4371
19.3919
19.3451
19.2975
19.2505
19.2049
19.1608
19.1183
18.8938
19.1487
19.3585
19.5073
19.6055
19.6699
19.7123
19.7391
19.7519
19.7489
19.7293
19.6969
19.6571
19.6137
19.5681
19.5209
19.472
19.4226
19.374
19.3274
19.2828
19.2403
18.8933
19.1477
19.3568
19.505
19.6028
19.6668
19.7089
19.7353
19.7476
19.7442
19.7242
19.6915
19.6514
19.6077
19.5619
19.5144
19.4654
19.4158
19.3673
19.3206
19.276
19.2335
18.8027
19.038
19.2367
19.3816
19.479
19.5427
19.5833
19.6062
19.6131
19.6041
19.5803
19.5463
19.5066
19.4642
19.42
19.3742
19.327
19.2789
19.2316
19.1858
19.1416
19.099
19.0587
18.6547
18.861
19.0467
19.1906
19.2916
19.3585
19.3997
19.4201
19.4218
19.4073
19.3811
19.349
19.3147
19.2795
19.2435
19.2063
19.1676
19.1275
19.0875
19.0482
19.0096
18.9717
18.935
18.4921
18.6724
18.8513
19.003
19.1166
19.1938
19.2411
19.2622
19.2594
19.2381
19.2072
19.1742
19.143
19.1145
19.0884
19.0638
19.0393
19.0144
18.9895
18.9646
18.9396
18.9145
18.8898
18.3569
18.5219
18.7053
18.8785
19.0204
19.1232
19.1882
19.2172
19.2131
19.1859
19.1484
19.1101
19.0761
19.0484
19.0273
19.0124
19.0026
18.9968
18.9944
18.9942
18.995
18.9965
18.9982
18.4361
18.641
18.8578
19.0559
19.2127
19.3183
19.3702
19.3739
19.3459
19.3036
19.2582
19.2165
19.1823
19.1578
19.1441
19.1408
19.1478
19.1643
19.1893
19.2209
19.2566
19.2966
19.3387
18.4316
18.6831
18.9764
19.2723
19.5252
19.7023
19.7968
19.8209
19.8014
19.7602
19.71
19.6589
19.613
19.577
19.5543
19.5468
19.5556
19.5813
19.6237
19.6821
19.7549
19.8387
19.9385
18.5304
18.8645
19.2851
19.7528
20.1846
20.5057
20.6974
20.78
20.7944
20.7703
20.7259
20.6728
20.6202
20.5756
20.5456
20.5357
20.5494
20.5896
20.6586
20.7584
20.8908
21.0554
21.243
18.7852
19.272
19.9105
20.6796
21.4251
22.0122
22.4104
22.6448
22.7528
22.7702
22.7364
22.6808
22.6232
22.5774
22.5538
22.5611
22.6064
22.6959
22.8359
23.0332
23.2952
23.6294
24.044
23.6629
24.8227
25.7525
26.4555
27.0039
27.2978
27.402
27.4146
27.4055
27.419
27.4834
27.6191
27.8405
28.1586
28.5836
29.1261
29.7972
30.6086
31.5743
26.1472
28.4498
30.487
31.9965
40.2062
40.8282
41.464
41.7356
41.8948
42.0896
42.3878
42.8188
43.3884
44.0869
44.8992
45.8135
46.8255
47.9405
49.1772
45.7701
51.6796
55.5538
56.5433
55.7963
81.4254
80.5366
79.4152
78.38
77.4518
76.6154
75.8769
75.2501
74.7465
74.349
74.0615
73.8949
73.8698
106.324
157.946
137.118
123.187
113.842
158.467
146.358
136.563
128.578
121.943
116.328
111.522
107.38
103.79
100.674
97.9815
95.6844
351.993
384.235
294.023
231.729
258.904
226.861
201.663
181.451
165.409
152.576
142.123
133.462
126.186
120
114.69
110.107
841
577.365
458.855
351
301.265
264.302
235.516
212.5
193.677
178.06
164.967
153.911
144.471
136.091
128.687
385.62
347.395
312.668
282.642
257.156
235.153
216.182
199.833
185.703
173.44
162.736
153.298
144.906
18.8325
19.0397
19.3439
19.748
20.2175
20.7034
21.1539
21.5284
21.8059
21.9832
22.0688
22.0812
22.0493
22.0049
19.1283
19.5329
20.1611
21.0258
22.0198
23.0906
24.1394
25.0393
25.6999
26.0944
26.2528
26.2577
26.2362
26.1852
19.5434
20.307
21.5825
23.4068
25.5211
28.1821
31.0444
33.546
35.2832
36.1448
36.3098
36.3123
36.2692
36.185
36.1067
36.0604
36.0651
36.174
36.5377
37.0998
37.8379
38.7318
19.3854
20.113
21.5207
24.0249
27.9752
29.1947
35.2786
44.2117
53.1383
59.3896
62.2789
62.4332
61.7421
77.021
75.4445
74.2068
73.3544
73.2135
74.0093
75.3215
76.9554
78.7623
80.6372
19.6758
20.8368
23.2726
28.122
30.6271
45.644
78.3623
124.825
156.174
168.194
166.787
159.786
151.427
142.687
173.65
167.398
163.762
162.258
161.319
160.164
158.678
156.75
154.383
19.8955
21.5604
25.3427
27.9561
45.3834
100.925
193.451
455.166
523.183
508.293
497.046
428.405
364.39
360.886
328.665
344.219
316.263
291.271
268.969
248.983
231.208
215.587
201.911
189.928
19.93
21.7391
23.2247
32.9449
71.7612
172.514
1013.72
962.259
667.876
509.338
430.557
358.783
316.56
284.195
258.708
238.042
220.964
206.625
194.427
183.936
19.6947
21.4032
22.897
34.486
64.1169
363.625
659.698
505.333
412.633
342.905
305.994
277.566
254.541
235.343
219.245
205.655
194.122
184.304
19.241
20.5403
23.9079
27.1343
54.6195
160.558
1014.33
895.815
573.495
412.93
320.046
281.867
253.709
231.963
214.579
200.391
188.639
178.776
170.41
163.267
157.157
18.8033
19.4047
20.9145
22.1413
28.5544
45.8088
87.146
230.186
306.016
312.238
301.947
283.846
220.989
204.575
192.861
177.735
171.552
165.738
160.304
155.214
150.481
146.138
142.2
138.667
135.539
132.825
18.4948
18.7179
19.2876
20.3448
21.0573
23.5861
27.8376
33.7025
40.5903
47.3963
54.386
61.1808
66.6456
69.8668
75.1416
76.0812
76.7268
77.588
78.7777
80.2801
81.8801
83.5038
85.1003
86.6466
88.1564
89.6738
18.3093
18.3758
18.5852
19.0019
19.6562
20.5201
21.6833
23.3834
25.6502
27.8541
29.6516
31.6289
32.989
33.7468
34.2284
34.5674
34.9198
35.3892
36.0541
36.9503
38.1047
39.5312
41.2415
43.2278
45.4782
47.9766
18.2062
18.2115
18.3045
18.5197
18.8795
19.4117
20.1323
21.0849
22.094
22.8908
23.3999
23.7703
24.0078
24.1282
24.1854
24.2257
24.29
24.4103
24.6122
24.9133
25.3342
25.8898
26.599
27.4821
28.5581
29.8424
18.1567
18.1403
18.1923
18.3346
18.584
18.9535
19.4379
19.9905
20.5066
20.8926
21.1063
21.2011
21.2327
21.229
21.2108
21.1956
21.1997
21.238
21.3247
21.4707
21.6835
21.9736
22.3504
22.8221
23.3957
24.0609
18.1463
18.1289
18.1725
18.2921
18.4937
18.7739
19.104
19.442
19.7385
19.9572
20.0722
20.1029
20.0878
20.0533
20.0158
19.987
19.9765
19.9933
20.0452
20.1379
20.2751
20.4619
20.7012
20.9933
21.3343
18.1673
18.1637
18.2204
18.3457
18.5341
18.7665
19.014
19.2397
19.4236
19.5537
19.6226
19.6352
19.6147
19.5837
19.5571
19.5443
19.5518
19.5845
19.6452
19.7366
19.8613
20.021
20.2149
20.4373
20.6838
18.2138
18.2372
18.3256
18.4794
18.681
18.8995
19.1023
19.2654
19.3866
19.474
19.5278
19.5451
19.5363
19.5198
19.5094
19.5118
19.5302
19.5656
19.6177
19.6857
19.7696
19.8695
19.9834
20.1076
20.2385
18.3413
18.4787
18.6823
18.9191
19.1469
19.3361
19.4775
19.5806
19.6587
19.7158
19.7505
19.7657
19.773
19.7828
19.7998
19.8252
19.8583
19.8965
19.937
19.9789
20.0231
20.0695
20.1147
20.1579
18.6575
18.9286
19.2205
19.4787
19.6798
19.8291
19.9448
20.0404
20.1221
20.1882
20.2362
20.27
20.2967
20.3216
20.3462
20.3699
20.391
20.4071
20.4186
20.4285
20.4362
20.4393
20.4368
18.8208
19.1607
19.5148
19.8155
20.0425
20.2117
20.3489
20.4692
20.579
20.6766
20.7544
20.8075
20.8409
20.8635
20.8806
20.8933
20.901
20.9017
20.8968
20.889
20.8788
20.8635
20.8423
19.3012
19.6976
20.031
20.282
20.4715
20.629
20.7719
20.9098
21.0412
21.1528
21.233
21.2843
21.3187
21.3443
21.3633
21.3754
21.3788
21.3747
21.367
21.3562
21.3394
21.3148
19.3003
19.6954
20.0274
20.2771
20.4656
20.6223
20.7645
20.9015
21.0318
21.1424
21.2218
21.2724
21.3061
21.3311
21.3496
21.3613
21.3643
21.3603
21.3528
21.3422
21.3256
21.3014
19.1594
19.5113
19.8092
20.0338
20.2013
20.337
20.4556
20.5634
20.6587
20.7342
20.7855
20.8171
20.8381
20.8536
20.865
20.8715
20.8713
20.8654
20.8568
20.8461
20.8306
20.8094
20.783
18.9282
19.2186
19.4748
19.6739
19.8217
19.9359
20.0298
20.1094
20.1727
20.2177
20.2488
20.273
20.2954
20.3175
20.339
20.3583
20.3728
20.3829
20.3916
20.3984
20.4009
20.3981
20.3908
18.683
18.9192
19.1459
19.3338
19.4736
19.5746
19.6503
19.7057
19.7387
19.7525
19.7587
19.7674
19.7833
19.8076
19.8394
19.8765
19.9159
19.9566
19.9995
20.0443
20.088
20.1296
20.169
18.4808
18.6822
18.9001
19.1017
19.2625
19.3801
19.4631
19.5127
19.5267
19.5154
19.4971
19.4853
19.4865
19.5036
19.538
19.5896
19.6572
19.7411
19.8415
19.9564
20.0816
20.2131
20.3458
18.5362
18.7688
19.0157
19.2394
19.4194
19.5447
19.6092
19.6184
19.5949
19.5612
19.5318
19.5159
19.5195
19.5478
19.6036
19.6892
19.8071
19.9589
20.1438
20.3571
20.5941
20.8481
21.1042
18.4957
18.7758
19.1047
19.4418
19.7361
19.9513
20.0639
20.0938
20.0784
20.0436
20.0051
19.9747
19.9619
19.9755
20.0231
20.1107
20.2416
20.4205
20.6505
20.9316
21.2608
21.6405
22.071
18.585
18.9526
19.4356
20.0005
20.5264
20.9167
21.1355
21.2363
21.2731
21.2738
21.2592
21.2476
21.2552
21.297
21.386
21.5337
21.748
22.0394
22.4175
22.8913
23.4686
24.1409
24.9081
18.8801
19.4079
20.1473
21.0896
22.1405
22.9472
23.4674
23.8514
24.1119
24.2596
24.3478
24.4247
24.5296
24.6952
24.9432
25.297
25.7758
26.4006
27.1926
28.1748
29.3702
30.7979
32.4504
25.6046
27.8283
29.7142
31.9747
33.6434
34.6688
35.3815
35.9339
36.5078
37.2112
38.1328
39.3227
40.8038
42.5794
44.6406
46.9779
49.5759
52.4187
55.5005
29.7129
33.703
37.4922
41.0228
44.0105
45.8829
74.0207
75.6811
77.0116
78.4403
80.0816
81.9416
83.8814
85.7757
87.5803
89.2813
90.9
92.4851
94.1097
85.4079
95.7312
103.08
107.949
109.992
109.58
166.303
161.25
156.545
152.141
147.992
144.113
140.535
137.274
134.333
131.714
129.428
127.5
553.145
567.696
462.069
351.343
348.529
297.543
317.568
277.568
248.511
226.445
209.094
195.134
183.705
174.202
166.203
159.412
153.626
148.712
1190.33
668.352
499.17
393.303
345.786
306.276
276.1
252.07
232.294
215.912
202.234
190.735
181.019
172.786
165.811
670.579
544.176
446.272
363.115
319.468
285.659
259.327
238.209
220.875
206.376
194.098
183.592
174.526
166.653
451.838
340.322
313.74
289.621
267.664
247.643
229.877
214.296
200.671
188.742
178.262
169.017
160.831
18.7241
18.8721
19.1106
19.4557
19.8873
20.3671
20.8439
21.2691
21.6123
21.8633
22.0226
22.0978
22.1044
22.1018
22.0796
18.9333
19.2317
19.7334
20.4853
21.4187
22.5199
23.6807
24.7509
25.61
26.2071
26.534
26.6312
26.6857
26.691
26.6565
19.2229
19.7926
20.8199
22.4104
24.4671
27.4224
30.7511
33.8032
36.1299
37.5534
38.0734
38.1528
38.1109
37.9561
37.8274
37.6546
37.476
37.3154
37.18
37.08
37.0219
37.0093
37.0445
19.6117
20.6619
22.6581
26.1149
27.5745
35.0106
45.8632
56.2945
64.1546
68.6638
69.9426
69.1804
67.519
65.6966
78.2288
75.9076
73.8848
72.1905
70.8347
69.7906
69.0179
68.4757
68.1288
20.0791
21.8799
25.5586
27.9237
44.3775
87.8984
132.797
177.108
198.642
201.767
194.122
183.477
169.71
155.535
143.972
160.027
152.354
146.16
141.103
136.904
133.339
130.229
127.444
20.5176
23.1417
25.0991
39.1968
101.305
269.673
515.93
1314.98
663.162
750.521
712.879
555.528
441.523
343.58
328.069
290.478
289.795
265.383
245.448
228.627
214.279
201.832
190.92
181.273
20.7335
23.9292
27.4143
53.3476
152.391
893.744
642.541
477.434
373.182
325.875
291.292
264.564
243.243
225.796
211.218
198.828
188.055
20.4759
23.436
27.3697
57.5318
319.712
655.766
465.279
322.781
268.22
234.643
210.937
193.613
180.164
169.29
160.168
152.265
19.7637
21.7935
24.0496
45.7703
129.437
782.132
559.364
418.172
302.869
268.256
242.724
223.078
207.521
194.77
184.031
174.801
166.773
159.7
19.0625
20.2513
22.9949
26.1949
47.0448
141.583
355.189
662.456
808.914
469.217
664.529
474.599
425.261
409.105
360.516
294.381
270.281
250.012
232.448
217.113
203.837
192.351
182.425
173.822
166.419
159.998
18.6161
18.9952
19.9568
21.6814
23.3833
29.0626
38.3192
49.9881
68.1417
92.2047
115.991
143.402
166.773
180.109
184.892
178.206
172.55
167.857
163.853
160.296
156.962
153.763
150.673
147.705
144.926
142.411
18.3663
18.4825
18.7875
19.3579
20.1419
21.1417
22.5531
23.8725
29.4547
38.6123
47.1464
62.694
66.6862
68.1757
68.8374
69.2393
69.9571
71.3853
73.5235
76.2577
79.47
83.0359
86.77
90.462
94.0498
97.4847
18.2402
18.263
18.3858
18.648
19.0552
19.6546
20.4757
21.0663
23.127
25.732
27.7279
30.6834
32.0188
32.8068
33.3585
33.9392
34.6845
35.6708
37.0102
38.7209
40.8013
43.2271
45.998
49.1194
52.5809
18.1893
18.1835
18.2526
18.4211
18.7105
19.142
19.7724
20.6205
21.5383
22.3791
22.8986
23.1725
23.6204
24.0006
24.3732
24.8042
25.3486
26.0448
26.9313
28.0396
29.3827
30.9617
32.7753
34.8196
37.0784
18.1912
18.1885
18.2545
18.4062
18.6546
18.9897
19.4239
19.8872
20.3036
20.6644
20.8999
21.0035
21.1398
21.2942
21.4786
21.7238
22.063
22.5262
23.1378
23.9132
24.8655
25.993
27.2846
28.7067
30.2253
18.2352
18.2587
18.3552
18.534
18.7878
19.0911
19.4137
19.6917
19.9217
20.1221
20.2558
20.3126
20.384
20.4855
20.6437
20.8842
21.2301
21.6964
22.2935
23.0281
23.8812
24.8592
25.9433
27.0881
28.2812
18.3147
18.3868
18.547
18.794
19.0979
19.4079
19.6803
19.886
20.0547
20.2096
20.3451
20.4403
20.5091
20.6066
20.7596
20.9732
21.252
21.6006
22.0218
22.5162
23.0878
23.7416
24.4616
25.2146
25.9752
18.5646
18.8248
19.1855
19.5877
19.9526
20.2427
20.4594
20.6495
20.8347
21.0182
21.1838
21.3286
21.4776
21.6507
21.8575
22.1035
22.3896
22.7087
23.046
23.3973
23.7691
24.157
24.5311
24.895
19.1601
19.6901
20.2596
20.7684
21.1829
21.5219
21.8212
22.1091
22.3999
22.6789
22.9292
23.1563
23.3748
23.5942
23.8161
24.0396
24.257
24.4528
24.6319
24.8048
24.9674
25.1024
25.209
19.4733
20.1888
20.9611
21.6462
22.2053
22.6677
23.0887
23.4967
23.9095
24.3152
24.6756
24.9621
25.1871
25.3823
25.5601
25.7233
25.8664
25.9759
26.0579
26.13
26.1881
26.2174
26.2172
20.4971
21.4211
22.2544
22.9457
23.5262
24.0727
24.6307
25.2268
25.8338
26.3723
26.7843
27.0823
27.3226
27.5317
27.7169
27.8725
27.9828
28.0606
28.1257
28.1715
28.1793
28.1473
20.4944
21.4143
22.2424
22.9292
23.5069
24.0511
24.6065
25.1996
25.8034
26.3394
26.7497
27.0465
27.2856
27.4939
27.6787
27.8339
27.9457
28.0257
28.0927
28.1405
28.1503
28.1204
20.1855
20.9524
21.6314
22.1863
22.6471
23.0676
23.4747
23.8859
24.289
24.6472
24.9313
25.1535
25.3456
25.5204
25.6811
25.8213
25.9272
26.0064
26.0757
26.1317
26.1589
26.157
26.1363
19.6893
20.2556
20.7606
21.1723
21.5106
21.8098
22.0972
22.386
22.6607
22.9062
23.1287
23.3419
23.5557
23.7714
23.9886
24.1998
24.3892
24.5617
24.728
24.8842
25.0132
25.1136
25.1956
19.1869
19.5884
19.9522
20.2409
20.457
20.6458
20.8363
21.0271
21.1975
21.3456
21.4971
21.6713
21.8771
22.1193
22.399
22.7085
23.0326
23.368
23.7208
24.0859
24.4398
24.786
25.1196
18.7964
19.0997
19.4089
19.6799
19.8825
20.0456
20.1926
20.3203
20.4098
20.4745
20.5699
20.7219
20.9349
21.2124
21.5612
21.9845
22.4822
23.0608
23.7264
24.4599
25.226
25.9959
26.7441
18.7917
19.0962
19.4193
19.696
19.921
20.113
20.238
20.2878
20.3471
20.4328
20.572
20.7898
21.1058
21.5405
22.1057
22.8063
23.6217
24.5609
25.6068
26.7195
27.8852
29.0583
30.1376
18.6581
18.9937
19.4279
19.8973
20.3149
20.6675
20.893
20.99
21.115
21.2535
21.4185
21.6411
21.9524
22.3832
22.9583
23.6953
24.6048
25.6841
26.925
28.2955
29.7639
31.354
33.0031
18.7125
19.1402
19.7863
20.6443
21.5819
22.4205
22.9463
23.2251
23.6794
24.0633
24.4372
24.8675
25.4093
26.104
26.9895
28.0952
29.4275
30.9956
32.7997
34.8392
37.1043
39.493
42.0863
19.0591
19.6542
20.6322
22.1504
22.4872
23.5396
24.4762
30.5889
32.0519
33.0043
33.7342
34.4933
35.4004
36.5591
38.0698
39.9607
42.2231
44.856
47.857
51.2308
54.9764
59.0163
63.124
26.0838
30.6075
34.6105
65.4389
70.9955
73.6704
75.0426
75.8898
77.0647
78.8441
81.2816
84.3063
87.7969
91.3477
94.8649
98.2907
101.562
104.668
107.646
41.2904
56.9016
73.8142
93.358
109.212
117.353
182.906
177.524
172.852
168.862
165.348
162.072
158.898
155.741
152.601
149.542
146.646
143.993
141.654
151.77
201.291
204.577
236.793
244.72
241.945
287.872
264.959
245.644
228.892
214.253
201.504
190.452
180.866
172.529
165.268
158.938
153.406
1842.65
1006.35
597.353
541.246
496.036
393.133
307.601
271.546
245.032
224.597
208.431
195.272
184.261
174.899
166.794
159.674
153.356
605.804
436.022
322.928
270.65
237.982
214.521
196.993
183.19
171.935
162.476
154.316
147.121
140.659
654.223
488.243
373.36
325.323
289.872
262.29
240.295
222.365
207.462
194.729
183.737
174.187
165.846
522.649
412.016
291.728
267.354
247.52
230.779
216.501
204.102
193.216
183.574
174.979
167.291
160.412
18.7437
18.9131
19.1827
19.5498
19.9936
20.4668
20.9142
21.3008
21.6073
21.8303
21.9702
22.0368
22.0659
22.0915
22.0988
18.989
19.3508
19.9388
20.7353
21.7741
22.9553
24.1096
25.195
26.0341
26.5802
26.8293
26.8885
26.9516
26.9828
26.9772
19.354
20.0895
21.2896
23.0152
25.8632
29.3304
32.6413
36.8685
39.4066
40.5973
40.5318
40.6099
40.5454
40.3205
39.9797
39.588
39.1891
38.808
38.4617
38.153
37.8808
37.6443
37.4426
19.8846
21.2883
23.682
24.9128
31.6908
43.1241
54.6094
86.6958
89.5543
89.3029
87.4915
85.5366
81.0329
75.6805
70.809
73.4735
71.0999
68.9735
67.1033
65.4744
64.0585
62.8277
61.7583
20.5792
23.0479
24.5743
35.0151
72.125
122.943
173.771
194.809
201.058
197.958
188.91
176.938
162.748
147.48
133.67
123.568
134.441
127.885
122.147
117.127
112.729
108.854
105.415
21.3054
25.3382
29.6343
59.5712
179.437
488.01
550.781
514.271
433.238
416.297
446.169
548.835
547.423
396.192
340.634
281.159
271.69
241.932
219.432
201.583
187.001
174.827
164.483
155.574
21.3661
23.0774
36.7319
71.2275
715.264
940.19
501.885
384.855
310.273
275.73
249.172
228.016
210.761
196.395
184.235
173.804
21.0368
22.7994
37.5678
88.1441
1003.38
451.722
374.956
288.788
259.574
238.207
221.295
207.358
195.536
185.275
176.226
20.2023
21.3931
31.0548
87.5086
739.5
341.839
278.825
259.179
232.7
212.209
200.143
191.688
183.556
176.001
169.062
162.74
156.892
19.4653
21.0559
22.9444
36.2203
88.6197
353.175
1009.24
441.743
490.335
612.711
666.417
732.67
552.941
523.623
385.622
324.358
274.159
253.465
235.726
219.858
206.138
194.267
183.924
174.841
166.84
159.869
18.7705
19.391
20.7082
22.2255
28.1783
39.5758
53.711
70.4196
112.158
249.367
409.822
445.063
425.345
386.754
345.689
281.687
262.505
246.218
232.07
219.489
208.055
197.813
188.548
180.077
172.473
165.746
18.4392
18.6228
19.0574
19.7487
20.6187
21.7086
22.8742
28.4567
51.9234
129.918
211.455
225.163
249.048
232.69
216.714
203.22
192.318
183.71
177.039
171.84
167.639
164.122
161.089
158.403
155.89
153.326
18.2886
18.3388
18.5063
18.8186
19.2638
19.841
20.3872
23.1291
30.2004
46.0669
57.0459
63.3164
91.463
92.0992
91.8521
91.7429
92.2313
93.4392
95.315
97.7459
100.303
102.828
105.323
107.791
110.209
18.2419
18.2577
18.3607
18.5738
18.9127
19.3606
19.7246
21.2559
23.8823
27.5558
31.0392
32.7442
42.8859
46.0479
48.7491
51.2032
53.7523
56.5216
59.5319
62.7719
66.2102
69.7677
73.3871
76.9818
80.4141
18.2675
18.2968
18.4112
18.6304
18.9601
19.3482
19.5486
20.4066
21.427
22.6376
24.1143
25.0354
28.4456
30.2124
32.0218
33.9701
36.205
38.7881
41.735
44.9763
48.5141
52.2163
55.9794
59.5715
63.0298
18.3537
18.4354
18.6201
18.9186
19.2992
19.7601
20.2953
20.7728
21.1678
21.248
21.6466
22.0256
24.1039
25.639
27.391
29.4628
31.9172
34.7443
37.9353
41.177
44.4588
47.8203
51.1976
54.4876
57.751
18.4963
18.6748
19.0013
19.4694
19.9921
20.5216
20.9691
21.2782
21.7142
22.1666
22.6613
23.0778
23.4756
24.5477
25.9162
27.3303
28.8881
30.6659
32.723
35.0666
37.722
40.6469
43.7208
46.6892
49.4611
19.0146
19.5765
20.3208
21.124
21.8513
22.4062
22.8211
23.4236
24.0096
24.6153
25.2044
25.7605
26.3921
27.1833
28.1901
29.4553
30.9788
32.6957
34.4615
36.2192
37.9984
39.7721
41.3407
20.3248
21.5595
22.9474
24.279
25.4396
26.4084
27.2347
28.0048
28.8364
29.6945
30.4927
31.2676
32.0625
32.8975
33.7651
34.6756
35.5898
36.3777
37.1005
37.8377
38.5373
39.094
21.056
22.8737
25.0216
27.034
28.7353
30.1477
31.3676
32.4687
33.6123
34.7951
35.8526
36.6435
37.2392
37.7548
38.2169
38.6467
39.018
39.2398
39.3966
39.5655
39.6992
39.7354
23.6931
26.4597
29.1123
31.3579
33.2603
35.1361
37.1179
39.2862
41.3156
42.8953
43.924
44.5678
45.069
45.4903
45.8626
46.1549
46.2891
46.3467
46.4213
46.4489
46.3527
46.1607
23.6848
26.4358
29.0686
31.2975
33.191
35.0595
37.0308
39.1875
41.2103
42.7886
43.819
44.4645
44.9693
45.3967
45.7835
46.0898
46.2352
46.3047
46.3924
46.4328
46.3458
46.1624
22.8663
25.008
27.0194
28.7217
30.1463
31.3804
32.4927
33.6449
34.8344
35.8945
36.6832
37.27
37.7784
38.2359
38.6584
39.0195
39.2295
39.375
39.5317
39.6538
39.6768
39.6361
21.5593
22.9431
24.273
25.4328
26.4109
27.2497
28.028
28.8667
29.7251
30.515
31.2768
32.053
32.8676
33.7109
34.592
35.4799
36.2378
36.9245
37.6175
38.2732
38.7875
39.21
39.6485
20.3242
21.1269
21.8535
22.4081
22.8277
23.4445
24.127
24.8213
25.4465
26.01
26.6365
27.4097
28.3824
29.5854
31.0156
32.6077
34.2251
35.8363
37.4833
39.1257
40.6024
42.0048
43.363
19.4709
19.9895
20.5168
20.9632
21.2685
21.6887
22.1192
22.5862
22.989
23.38
24.4697
25.8662
27.3047
28.8774
30.6758
32.7708
35.1594
37.8776
40.8885
44.0421
47.0848
49.9092
52.4898
19.3043
19.7678
20.3091
20.7922
21.1795
21.1949
21.4274
21.7305
23.8621
25.2226
26.8183
28.7599
31.0557
33.7691
36.883
40.0533
43.285
46.6194
49.9986
53.3361
56.6727
59.8185
62.3666
18.966
19.357
19.5512
20.1595
20.7711
21.4222
22.1953
22.7344
28.1407
29.7403
31.4004
33.2146
35.301
37.7525
40.5739
43.7173
47.1742
50.8011
54.5286
58.0929
61.5376
64.9092
68.0368
18.9162
19.3654
19.6457
20.7396
22.3047
24.2669
26.3743
27.6307
43.0219
45.9857
48.5888
50.985
53.5029
56.2604
59.2755
62.5279
65.9742
69.5428
73.1859
76.8597
80.4001
83.5988
87.1123
19.2676
19.8599
20.2381
22.1017
26.6807
33.7276
39.9042
42.9909
90.8377
92.0732
92.4333
92.8508
93.8004
95.4123
97.6465
100.408
103.117
105.727
108.256
110.733
113.141
115.484
117.481
38.5145
57.6681
100.882
117.305
258.264
241.524
225.084
210.821
199.125
189.788
182.475
176.667
171.887
167.816
164.273
161.137
157.994
155.102
152.456
73.2748
171.534
334.655
381.473
371.259
335.199
298.174
278.145
259.838
244.177
230.341
217.605
206.312
196.083
186.708
178.278
170.803
164.198
158.315
318.25
535.231
510.732
467.163
410.052
358.438
311.11
274.046
251.998
233.764
218.04
204.454
192.628
182.314
173.295
165.354
158.049
150.767
824.205
764.394
1122.64
1362.9
703.813
477.331
323.473
275.834
227.671
207.525
195.017
186.405
178.812
171.611
164.931
158.832
153.242
148.041
445.382
281.766
272.369
285.426
256.721
235.705
219.024
205.265
193.599
183.486
174.574
166.629
159.488
1058.94
485.818
396.863
311.521
277.136
250.582
229.381
212.08
197.686
185.508
175.071
166.037
158.167
873.383
425.724
277.616
247.292
224.389
206.226
191.39
179.001
168.471
159.397
151.503
144.596
138.549
18.7446
18.9289
19.2233
19.6189
20.083
20.5553
20.9853
21.3402
21.6154
21.813
21.9341
21.9904
22.033
22.08
22.1141
19.0201
19.4294
20.1083
21.0207
22.1741
23.3953
24.6233
25.6308
26.3524
26.7911
26.9562
27.0052
27.0615
27.1101
27.1313
19.4507
20.3197
21.8114
23.9673
27.3381
30.9269
35.7167
38.9315
40.7061
41.3869
41.2537
41.1404
41.0657
40.8595
40.5078
40.0999
39.6209
39.1481
38.7186
38.3292
37.9809
37.6725
37.4021
20.1167
21.8313
25.1305
26.9759
36.6817
49.3368
82.8037
86.8135
87.7747
87.0651
85.239
82.6079
80.2497
75.2279
70.0021
71.056
68.5171
66.1729
64.0744
62.2145
60.5697
59.113
57.8203
21.0403
24.0972
26.5622
45.3484
96.6729
152.315
182.844
195.15
193.399
186.845
178.315
165.839
154.196
140.302
126.526
113.798
125.766
117.844
111.039
105.164
100.066
95.6136
91.7011
21.8677
23.5992
36.5119
102.5
370.233
984.002
467.631
378.154
384.62
382.356
369.46
387.258
540.89
465.766
305.061
273.357
224.013
215.977
194.22
176.987
162.929
151.226
141.323
132.836
22.3901
25.2237
46.0761
142.349
558.862
394.39
301.414
261.603
232.993
210.905
193.149
178.483
166.119
155.541
21.9968
25.0233
49.8255
243.43
560.424
393.123
301.886
265.449
239.035
218.367
201.583
187.609
175.703
165.342
20.8626
22.922
40.7324
123.433
357.867
353.399
286.916
257.71
235.357
217.057
201.805
188.828
177.6
167.775
159.051
19.8603
22.0772
25.251
47.8552
236.805
619.399
219.179
261.176
478.674
573.688
640.952
696.279
580.743
441.954
321.843
280.277
254.482
240.579
226.262
212.727
200.356
189.151
179.037
169.909
161.601
18.9172
19.7721
21.5946
23.9332
33.2194
51.4303
64.3585
81.1125
125.344
880.766
559.35
433.508
362.204
319.695
300.29
280.133
260.194
242.482
227.342
214.78
203.835
191.632
180.347
170.967
162.783
18.5124
18.7705
19.3474
20.1964
21.1742
22.4538
23.9958
32.5711
142.082
999.148
551.518
422.656
366.025
322.475
289.622
264.281
244.602
229.447
217.094
206.73
198.019
190.46
183.439
176.639
169.655
18.3457
18.4358
18.67
19.0499
19.4876
19.8686
21.2828
28.2238
114.567
265.818
352.12
452.22
386.633
334.617
295.231
264.989
241.324
222.444
207.114
194.463
183.951
175.242
168.082
162.25
157.373
18.3142
18.3698
18.5349
18.8251
19.1856
19.4658
20.679
26.461
62.4465
86.2696
124.769
177.376
178.459
256.313
236.33
218.875
204.031
191.555
181.111
172.285
164.77
158.228
152.429
148.024
143.957
18.3817
18.4737
18.6849
19.0368
19.448
19.6957
20.8165
24.3931
32.5099
49.1939
60.9137
73.3837
74.8604
127.957
125.599
124.266
123.963
124.576
125.895
126.896
128.954
130.175
130.64
128.288
124.811
18.5415
18.7412
19.1147
19.6638
20.2345
20.4566
21.3899
23.1035
24.9969
28.3898
34.3487
39.2478
42.9799
78.3247
83.613
89.1543
95.3059
101.761
108.506
106.983
106.067
107.235
109.859
113.597
117.822
18.8006
19.2066
19.9157
20.8882
21.8697
22.0127
22.8233
23.7425
28.1085
28.2092
29.85
32.1732
33.8375
50.6155
57.52
57.5614
59.7416
64.2385
70.7656
79.3845
89.2868
99.411
108.893
116.681
122.435
19.9006
21.1599
22.8208
24.724
24.8475
25.6575
26.5142
32.8904
32.6663
33.0507
34.1584
35.3907
37.3077
40.3875
44.9773
50.9898
58.2547
66.543
74.9164
82.5543
89.3226
95.2567
100.111
22.9517
26.0941
30.3107
34.563
38.1777
40.907
40.591
40.7444
41.7954
43.8948
46.1573
48.7209
52.0895
56.2553
60.8916
65.8102
70.8178
75.1965
78.5845
81.8836
84.9769
87.4204
36.9865
43.608
48.8242
52.7459
52.2529
52.341
53.4965
55.7465
58.3106
60.3884
61.8315
62.9879
63.9545
64.8583
65.7772
66.4054
66.5453
66.9061
67.3825
67.7566
41.7275
50.8776
57.9678
63.5068
69.1501
74.9037
81.0955
80.1647
80.17
80.7195
80.7646
80.712
80.6846
80.7785
81.0089
80.9602
80.4871
80.1856
80.0187
79.6807
78.9646
41.6472
50.7252
57.7416
63.2488
68.8587
74.5706
80.7277
80.2692
81.2232
82.7011
83.5838
84.3063
85.0373
85.9005
86.8753
87.467
87.6135
87.9044
88.3435
88.4846
88.1523
37.0758
43.7984
49.0562
53.0698
52.9949
53.9441
56.0174
59.4152
63.1282
65.8777
67.3954
68.4219
69.2039
69.8907
70.5503
70.8276
70.5989
70.5272
70.5348
70.3508
69.8128
26.1112
30.3653
34.6619
38.2851
41.0719
41.2291
42.1823
43.9319
46.6052
49.3391
51.7976
54.1347
56.4454
58.7116
61.0474
63.5771
65.765
67.3165
69.0342
70.8046
72.3244
73.2411
74.2992
22.8322
24.7411
25.3663
26.8588
28.3088
33.1375
35.2407
35.4757
36.9951
38.9363
41.4182
44.8425
49.5207
55.449
62.3083
69.5623
75.9444
81.0123
85.3847
89.2463