/*--------------------------------*- C++ -*----------------------------------*\
  =========                 |
  \\      /  F ield         | OpenFOAM: The Open Source CFD Toolbox
   \\    /   O peration     | Website:  https://openfoam.org
    \\  /    A nd           | Version:  13
     \\/     M anipulation  |
\*---------------------------------------------------------------------------*/
FoamFile
{
    format      ascii;
    class       volScalarField;
    location    "300";
    object      p;
}
// * * * * * * * * * * * * * * * * * * * * * * * * * * * * * * * * * * * * * //

dimensions      [0 2 -2 0 0 0 0];

internalField   nonuniform List<scalar> 
169916
(
11.0347
8.2919
4.9994
1.30617
-2.47533
-5.89931
-8.55243
-10.2291
-10.9846
-10.9719
-10.3238
-9.15306
-7.60484
-5.8883
12.4161
9.21274
5.14489
0.352389
-4.72394
-9.3481
-12.8884
-14.8881
-15.5037
-15.0464
-13.7438
-11.7745
-9.34115
-6.79825
14.4791
10.8256
5.80731
-0.527658
-7.48316
-13.7611
-18.5091
-20.9704
-21.4164
-20.3068
-18.0055
-14.8842
-11.1769
-7.48884
-4.46164
-2.21336
-0.638158
0.396007
1.00672
1.30026
1.36938
1.28975
19.8949
17.5344
13.6049
7.52835
-0.982099
-11.2157
-17.6226
-24.3911
-27.6474
-28.1385
-26.2742
-22.7226
-17.6151
-12.1754
-7.19643
-3.6252
-1.14868
0.480319
1.45716
1.95118
2.10794
2.0476
1.8608
23.6653
21.9537
18.3918
11.8376
1.14269
-10.4072
-24.9089
-36.8359
-42.2919
-41.6201
-36.5493
-29.3334
-21.0447
-13.1448
-5.27597
-1.99679
0.174754
1.54982
2.29675
2.55596
2.48687
2.23029
1.88787
28.083
27.7401
25.8397
21.0099
10.1724
-6.98453
-32.9911
-58.1478
-64.805
-63.5828
-51.2569
-35.4621
-22.6422
-10.8131
-1.46742
1.08935
2.00936
2.42895
2.54842
2.40289
2.08089
1.67752
1.25888
0.873851
32.3684
33.7584
34.6702
30.7724
25.5614
9.78426
-18.1228
-67.0668
-91.1726
-127.652
-75.8062
-41.4293
-22.3105
-8.96693
-3.59751
-1.55297
0.289924
1.23718
1.53655
1.43568
1.11379
0.707039
0.295437
-0.0695148
-0.336761
35.4453
37.9324
40.6345
40.709
40.8335
35.3471
17.2973
-26.8972
-49.0583
-90.9722
-44.0529
-25.9254
-11.3606
-5.76478
-4.07633
-2.16225
-0.729052
0.0286275
0.240692
0.11773
-0.16023
-0.486144
-0.794493
-1.02116
36.7886
39.2811
41.8409
43.3326
44.0146
40.1139
30.2195
8.3211
-17.1972
-68.6424
-79.5323
-58.3097
-29.2632
-14.6501
-9.10908
-5.55015
-3.47608
-1.70465
-0.61624
-0.19208
-0.175986
-0.36581
-0.653119
-0.965364
-1.22978
-1.37003
36.7061
38.4767
39.8504
40.0277
39.5479
34.0187
23.1153
6.89304
-11.2933
-28.1881
-37.3974
-34.7492
-25.0019
-15.8138
-9.40485
-6.86373
-4.44207
-2.36053
-1.0552
-0.46256
-0.326104
-0.454261
-0.735245
-1.08685
-1.43268
-1.69804
35.8848
36.8596
37.1874
36.2549
33.2348
27.7868
21.1867
10.1704
-1.46327
-12.9066
-20.8272
-22.6096
-17.3289
-13.5725
-10.5045
-7.79193
-5.24159
-3.17546
-1.82495
-1.12254
-0.889778
-0.975987
-1.27083
-1.68484
-2.13886
-2.5612
34.835
35.1659
34.8038
33.3415
30.3305
25.5781
18.9824
11.1173
2.4799
-5.88129
-11.9934
-14.5778
-14.2923
-12.1926
-9.78743
-7.4465
-5.33758
-3.65073
-2.50642
-1.88508
-1.68665
-1.80135
-2.13521
-2.61167
-3.16751
-3.74751
33.8239
33.6707
32.8494
31.1004
28.1774
23.9569
18.4538
11.8712
4.70559
-2.13865
-7.39079
-10.1992
-10.7297
-9.82605
-8.36253
-6.7735
-5.27929
-4.04418
-3.18284
-2.72369
-2.62494
-2.81851
-3.23688
-3.8211
-4.52004
-5.28784
32.9674
32.4526
31.3026
29.361
26.4907
22.6224
17.7939
12.1833
6.20519
0.534263
-4.02146
-6.87863
-8.01154
-7.91982
-7.18388
-6.20004
-5.20857
-4.37501
-3.80973
-3.55854
-3.61223
-3.93278
-4.47573
-5.19715
-6.05526
-7.0101
32.3051
31.5121
30.1085
28.0039
25.1312
21.4735
17.0951
12.1782
7.0732
2.27501
-1.70214
-4.46385
-5.91249
-6.31889
-6.11024
-5.62852
-5.09407
-4.65415
-4.40612
-4.39943
-4.64201
-5.1189
-5.80694
-6.67676
-7.69211
31.836
30.8232
29.2123
26.9527
24.0298
20.4835
16.4212
12.0351
7.61393
3.50072
0.00763951
-2.61055
-4.24112
-5.01317
-5.23077
-5.17515
-5.03871
-4.95069
-4.99796
-5.22832
-5.6576
-6.28697
-7.11166
-8.11393
-9.26175
31.539
30.3529
28.5674
26.1561
23.1482
19.6428
15.7969
11.808
7.9021
4.30053
1.18338
-1.29708
-3.04086
-4.09108
-4.64598
-4.92996
-5.11433
-5.31584
-5.61178
-6.04571
-6.63676
-7.39559
-8.33043
-9.43378
-10.68
30.0626
28.1313
25.5748
22.461
18.9487
15.2473
11.5576
8.04174
4.81953
1.98059
-0.386189
-2.20129
-3.46248
-4.28375
-4.83318
-5.26378
-5.68707
-6.17511
-6.76776
-7.48311
-8.33532
-9.34285
-10.5118
-11.8212
27.8603
25.1757
21.9521
18.4035
14.7898
11.313
8.07659
5.11962
2.47089
0.181354
-1.68811
-3.11013
-4.1327
-4.87177
-5.46812
-6.03729
-6.65116
-7.34675
-8.14047
-9.04922
-10.1015
-11.3129
-12.662
27.711
24.9309
21.617
18.0256
14.4572
11.1143
8.05759
5.2704
2.74215
0.499138
-1.41045
-2.94302
-4.09849
-4.95186
-5.63889
-6.28643
-6.97078
-7.72687
-8.56882
-9.51457
-10.5975
-11.8366
-13.2106
24.8061
21.442
17.8238
14.2738
10.9956
8.0269
5.32373
2.85663
0.637847
-1.29135
-2.87874
-4.09892
-5.00547
-5.73313
-6.41679
-7.13529
-7.92141
-8.78738
-9.75163
-10.8493
-12.1008
-13.4857
24.7979
21.4327
17.8142
14.2648
10.9874
8.01934
5.31675
2.85069
0.63344
-1.294
-2.87987
-4.09915
-5.00538
-5.73292
-6.41655
-7.13529
-7.922
-8.78885
-9.75415
-10.8531
-12.1061
-13.4929
24.9073
21.5902
17.9972
14.4291
11.0877
8.03221
5.24669
2.72161
0.483109
-1.42123
-2.9491
-4.1016
-4.95374
-5.64025
-6.28768
-6.97278
-7.73074
-8.57553
-9.52479
-10.6117
-11.8555
-13.2352
-14.7156
25.1394
21.9108
18.3592
14.7449
11.2691
8.03489
5.0818
2.43937
0.157271
-1.70435
-3.11936
-4.13714
-4.87394
-5.4693
-6.03818
-6.6532
-7.35197
-8.1506
-9.06542
-10.1246
-11.3438
-12.7022
-14.1653
25.5285
22.4084
18.8914
15.1873
11.4972
7.98412
4.7689
1.94128
-0.413239
-2.21778
-3.47104
-4.28739
-4.83501
-5.26556
-5.68977
-6.18065
-6.77891
-7.5021
-8.36333
-9.3808
-10.5606
-11.8822
-13.3142
26.1023
23.0869
19.5751
15.7246
11.7338
7.83031
4.23724
1.13514
-1.32826
-3.05753
-4.09746
-4.64585
-4.92721
-5.11198
-5.31585
-5.6168
-6.0595
-6.66195
-7.43309
-8.38098
-9.49841
-10.7597
-12.1377
23.9637
20.4107
16.3434
11.9548
7.53476
3.42859
-0.0495726
-2.65006
-4.26575
-5.026
-5.2339
-5.17268
-5.03641
-4.95359
-5.01038
-5.25467
-5.70048
-6.34659
-7.18753
-8.20615
-9.37077
-10.6522
-12.0265
25.0629
21.3995
17.0172
12.1007
6.99498
2.19904
-1.766
-4.51201
-5.94828
-6.34129
-6.11648
-5.6216
-5.08342
-4.65
-4.41584
-4.42784
-4.69152
-5.18953
-5.89761
-6.7863
-7.82034
-8.96248
-10.1804
26.4223
22.5501
17.7205
12.1191
6.13434
0.442308
-4.11162
-6.95581
-8.07819
-7.96876
-7.20454
-6.1954
-5.19564
-4.37242
-3.82916
-3.60464
-3.68556
-4.03158
-4.59732
-5.3389
-6.21524
-7.18804
-8.21313
28.1109
23.8881
18.3833
11.8239
4.67183
-2.24059
-7.5225
-10.3361
-10.863
-9.92605
-8.40009
-6.75347
-5.23488
-4.00966
-3.1788
-2.75717
-2.69616
-2.92416
-3.37259
-3.98265
-4.70422
-5.49281
-6.30668
2.34855
-6.06376
-12.191
-14.801
-14.5437
-12.3966
-9.87934
-7.44463
-5.29933
-3.62402
-2.51573
-1.93685
-1.77939
-1.93081
-2.29659
-2.80054
-3.38066
-3.98339
-4.56034
1.48502
-8.5347
-15.9192
-18.7394
-17.8304
-13.9399
-10.5966
-7.69552
-5.08583
-3.05533
-1.7794
-1.15394
-0.988921
-1.13281
-1.47637
-1.93145
-2.42126
-2.87723
-3.23791
-19.219
-27.9076
-28.5196
-22.6733
-16.1869
-9.86989
-6.9794
-4.37077
-2.28729
-1.06474
-0.566659
-0.515443
-0.717006
-1.05876
-1.45927
-1.84499
-2.14594
-2.29468
-47.4264
-45.0178
-28.7625
-16.2851
-10.1766
-5.60471
-3.29673
-1.53244
-0.54747
-0.227683
-0.303048
-0.575087
-0.933207
-1.3042
-1.61841
-1.80387
-1.78787
-66.9762
-31.078
-13.7002
-7.86137
-4.1837
-1.89486
-0.453047
0.176831
0.276215
0.0659461
-0.291554
-0.688363
-1.05683
-1.3364
-1.46184
-1.36554
-26.0594
-9.82313
-4.10549
-1.68431
0.401518
1.42222
1.66997
1.50094
1.11307
0.638315
0.161082
-0.263702
-0.586334
-0.753862
-0.711902
-1.64179
1.13438
2.174
2.57584
2.62708
2.41077
2.02191
1.55457
1.07658
0.63769
0.282267
0.0532896
-0.00826648
11.0051
8.22026
4.86624
1.10892
-2.6896
-6.03233
-8.5228
-10.0538
-10.7509
-10.7787
-10.2369
-9.18252
-7.70743
-5.99633
12.3758
9.09013
4.885
-0.0719976
-5.21879
-9.74394
-12.9034
-14.5712
-15.0716
-14.7296
-13.681
-11.9523
-9.64744
-7.06862
14.4465
10.6428
5.33423
-1.33066
-8.43809
-14.6171
-18.6163
-20.4186
-20.644
-19.8219
-18.087
-15.3714
-11.9179
-8.13467
-4.80095
-2.30786
-0.62546
0.438625
1.05078
1.33407
1.38839
1.29263
20.0022
17.5745
13.3936
6.76432
-2.60097
-9.65255
-18.9434
-24.5131
-26.8755
-26.943
-25.5525
-22.9441
-18.8208
-13.3958
-8.25982
-4.07042
-1.1844
0.593005
1.60685
2.09019
2.21372
2.11372
1.88979
23.9571
22.2486
18.398
11.0799
1.07093
-13.848
-29.3275
-38.9051
-40.4947
-38.6917
-35.5372
-30.7568
-23.5137
-14.6297
-6.58872
-1.99883
0.515521
1.8566
2.54917
2.77318
2.66952
2.37722
1.99951
28.6897
28.6025
26.8875
19.6717
8.3149
-16.5053
-40.6295
-62.3935
-65.603
-56.1256
-45.5252
-39.7292
-26.9597
-12.1975
-3.80071
2.32896
3.58699
3.71492
3.43917
2.96066
2.4031
1.83782
1.30389
0.837324
33.3046
35.2867
33.6246
33.8538
26.0876
5.56594
-44.9676
-28.2516
-7.33635
-0.185903
0.0634074
0.422225
1.59874
1.7202
1.33489
0.833708
0.329218
-0.146288
-0.555629
-0.847437
36.5289
39.7853
40.8391
45.314
42.5895
36.6369
-9.40805
-5.29893
-4.76805
-2.96697
-0.78276
-0.0290513
-0.00216363
-0.228262
-0.554472
-0.912615
-1.24756
-1.49104
37.7637
40.9424
44.6809
47.0214
48.1796
44.9844
21.0381
-48.0054
-16.6294
-10.6141
-8.8674
-4.81199
-2.1854
-0.974677
-0.640978
-0.696373
-0.916735
-1.21824
-1.53672
-1.79504
-1.91536
37.449
39.6424
41.5793
42.6393
41.786
34.2672
23.5504
6.79915
-11.1194
-25.9258
-38.6513
-44.9658
-29.5591
-17.2636
-12.1855
-8.74128
-5.35108
-2.6725
-1.20545
-0.626397
-0.534422
-0.705018
-1.02671
-1.41672
-1.79693
-2.08765
36.4164
37.6224
38.197
37.37
35.8629
30.1162
21.7839
11.333
-0.139797
-12.5501
-21.7252
-24.5408
-21.6543
-16.362
-11.8286
-8.82556
-5.65175
-3.16493
-1.6574
-0.938115
-0.751116
-0.910432
-1.28575
-1.77615
-2.29633
-2.77057
35.2257
35.6899
35.4572
34.0595
30.9565
26.2396
19.8937
12.0401
3.00278
-6.4085
-13.1446
-15.989
-15.4493
-13.1342
-10.5798
-7.89347
-5.42543
-3.50811
-2.26631
-1.63009
-1.45903
-1.61828
-2.00044
-2.52588
-3.13397
-3.77054
34.1387
34.0685
33.3291
31.6406
28.7368
24.5375
19.0827
12.3796
4.83676
-2.667
-8.36282
-11.3165
-11.6316
-10.5188
-8.83266
-6.99216
-5.28964
-3.91453
-2.97906
-2.49611
-2.40528
-2.6243
-3.0771
-3.70184
-4.44833
-5.27256
33.2523
32.7906
31.692
29.7917
26.9441
23.078
18.2019
12.3953
6.03453
-0.0588938
-4.89783
-7.77939
-8.6902
-8.34655
-7.40533
-6.25889
-5.14558
-4.22921
-3.6189
-3.35502
-3.41874
-3.76475
-4.34358
-5.10833
-6.0172
-7.03123
32.5902
31.8297
30.4499
28.3539
25.4715
21.7761
17.2997
12.1834
6.8101
1.78477
-2.36088
-5.15289
-6.44051
-6.61558
-6.23264
-5.63412
-5.01975
-4.52922
-4.25754
-4.24972
-4.50746
-5.01226
-5.73976
-6.65948
-7.73049
32.1418
31.1456
29.5297
27.2372
24.2556
20.6255
16.4468
11.9124
7.35097
3.14298
-0.461455
-3.13169
-4.66401
-5.24518
-5.31056
-5.15946
-4.96658
-4.85074
-4.89272
-5.13458
-5.58615
-6.24527
-7.11205
-8.16788
-9.37492
31.8811
30.6984
28.8773
26.3856
23.2631
19.6301
15.6608
11.5721
7.61288
3.99385
0.836376
-1.68123
-3.37467
-4.29451
-4.72902
-4.93882
-5.08679
-5.27692
-5.57988
-6.03239
-6.64501
-7.42898
-8.40269
-9.55928
-10.8625
30.4437
28.4462
25.7574
22.4686
18.7884
14.9687
11.2311
7.72837
4.53888
1.7026
-0.683202
-2.47979
-3.66691
-4.40272
-4.89235
-5.29447
-5.7138
-6.21565
-6.83059
-7.5625
-8.42585
-9.45877
-10.6738
-12.0313
28.1871
25.3215
21.862
18.1067
14.3863
10.908
7.7309
4.83588
2.21702
-0.0769785
-1.95282
-3.35061
-4.31769
-4.99817
-5.55944
-6.11944
-6.74146
-7.4521
-8.25089
-9.15544
-10.2228
-11.4761
-12.8686
28.0516
25.0527
21.4529
17.6218
13.9537
10.6428
7.6782
4.97503
2.49309
0.250875
-1.68593
-3.2327
-4.35155
-5.13322
-5.7656
-6.39208
-7.07845
-7.84563
-8.68767
-9.62288
-10.7159
-11.9939
-13.4088
24.9136
21.237
17.3611
13.7142
10.4851
7.6259
5.02078
2.60935
0.39278
-1.57586
-3.19565
-4.38607
-5.21128
-5.87305
-6.53042
-7.24912
-8.04471
-8.90843
-9.85953
-10.965
-12.2535
-13.6779
24.9044
21.2266
17.351
13.7056
10.4778
7.61894
5.01391
2.60333
0.388397
-1.57813
-3.19606
-4.38573
-5.21081
-5.87235
-6.52951
-7.24831
-8.04435
-8.90876
-9.86083
-10.9677
-12.2578
-13.6841
25.0267
21.4227
17.5908
13.9248
10.6161
7.65227
4.94986
2.47096
0.233697
-1.69642
-3.23706
-4.35313
-5.13414
-5.76578
-6.3916
-7.07829
-7.84709
-8.6918
-9.63041
-10.7275
-12.0103
-13.4309
-14.9485
25.2823
21.8169
18.0591
14.3392
10.8627
7.68741
4.79589
2.18366
-0.103163
-1.96923
-3.35723
-4.31922
-4.99812
-5.55816
-6.11688
-6.73939
-7.45314
-8.25707
-9.16778
-10.2419
-11.503
-12.905
-14.4087
25.7083
22.412
18.7267
14.9041
11.166
7.66634
4.48631
1.66529
-0.708484
-2.4936
-3.67083
-4.40232
-4.89177
-5.29417
-5.71324
-6.21702
-6.83774
-7.57775
-8.45026
-9.49307
-10.7188
-12.0886
-13.5695
26.329
23.1974
19.5568
15.5815
11.4895
7.53325
3.92655
0.790793
-1.70452
-3.3809
-4.29019
-4.72049
-4.93061
-5.08052
-5.27213
-5.57897
-6.04122
-6.66627
-7.46293
-8.45
-9.62077
-10.9395
-12.3814
24.1855
20.5472
16.3612
11.8229
7.26271
3.0654
-0.513788
-3.15846
-4.6742
-5.24491
-5.30411
-5.15088
-4.96146
-4.85183
-4.9025
-5.16006
-5.63018
-6.30672
-7.18961
-8.26114
-9.48427
-10.8385
-12.3124
25.3993
21.6965
17.2147
12.1023
6.72811
1.70731
-2.41228
-5.18213
-6.46012
-6.62348
-6.2261
-5.61735
-5.00318
-4.52202
-4.26577
-4.27895
-4.5599
-5.08726
-5.83519
-6.7735
-7.86237
-9.06833
-10.3712
26.8706
22.9984
18.1207
12.3427
5.95558
-0.137791
-4.94484
-7.81696
-8.7334
-8.37718
-7.41143
-6.24495
-5.12994
-4.23008
-3.64606
-3.41129
-3.50345
-3.87503
-4.4757
-5.25888
-6.18372
-7.21336
-8.30181
28.6615
24.4535
18.9851
12.3696
4.75453
-2.7713
-8.43753
-11.4103
-11.7392
-10.59
-8.83957
-6.94499
-5.22765
-3.87408
-2.97896
-2.54058
-2.49147
-2.74604
-3.22816
-3.87659
-4.64287
-5.48479
-6.35519
2.88804
-6.5541
-13.2641
-16.1396
-15.6752
-13.3284
-10.6582
-7.88274
-5.39083
-3.49624
-2.29485
-1.70127
-1.56991
-1.7641
-2.17617
-2.72685
-3.3573
-4.01474
-4.64525
2.39887
-8.57369
-16.7836
-20.051
-19.102
-15.6753
-11.8055
-8.623
-5.46578
-3.07327
-1.6672
-1.03287
-0.913344
-1.12669
-1.54593
-2.07231
-2.62375
-3.12797
-3.5184
-18.2084
-28.5493
-31.2226
-26.2627
-17.7887
-12.5835
-8.68875
-5.14895
-2.55313
-1.22967
-0.775036
-0.77983
-1.02559
-1.4044
-1.83726
-2.25019
-2.57044
-2.72369
-42.1913
-62.5692
-55.056
-36.6776
-16.7239
-12.2159
-8.91039
-4.53193
-1.92927
-0.855726
-0.652625
-0.81911
-1.13284
-1.50946
-1.888
-2.19637
-2.36055
-2.30681
-61.1565
-14.4415
-9.35232
-7.00255
-2.49037
-0.389626
0.213612
0.110023
-0.233311
-0.656929
-1.09241
-1.48926
-1.7844
-1.91048
-1.79891
-7.67311
-1.68604
-1.37044
0.72692
1.88818
1.9497
1.48612
0.901577
0.318478
-0.226551
-0.697525
-1.04542
-1.21683
-1.15676
-0.940309
2.38892
3.76118
3.88313
3.54079
2.98229
2.34662
1.71013
1.11389
0.592861
0.185448
-0.0683779
-0.129165
13.1832
10.9515
8.09145
4.62619
0.765668
-3.02043
-6.17295
-8.37627
-9.6677
-10.2723
-10.3685
-10.0071
-9.16675
-7.83951
-6.15861
14.7906
12.2955
8.85271
4.38799
-0.830766
-6.04111
-10.1747
-12.7071
-13.8594
-14.1942
-14.0443
-13.4218
-12.1527
-10.1124
-7.54668
17.0374
14.3633
10.2522
4.4227
-2.84015
-10.1438
-15.5764
-18.3882
-19.1623
-19.077
-18.6918
-17.8897
-16.1267
-13.0394
-9.21969
-5.49325
-2.62762
-0.737548
0.404873
1.03568
1.3155
1.35762
1.24598
20.1731
17.5949
12.8878
5.2386
-2.26063
-13.0808
-20.6482
-24.2406
-24.8509
-24.3643
-23.8268
-22.9384
-20.5247
-15.9168
-10.0928
-5.21653
-1.76824
0.283547
1.41854
1.95607
2.10141
2.00759
1.78167
24.4627
22.7204
18.3513
10.2242
-3.50579
-22.6251
-35.5875
-38.7066
-35.1117
-32.1351
-31.4158
-31.46
-28.2394
-20.2357
-10.6813
-3.63957
-0.078734
1.51473
2.24422
2.47604
2.3847
2.11263
1.75873
29.7778
30.2207
25.874
20.2122
-1.6246
-34.0737
-62.2931
-68.7965
-51.9266
-38.4846
-41.926
-44.5539
-37.4599
-22.6464
-8.22611
-1.44432
2.30359
3.36321
3.3038
2.82681
2.25149
1.67569
1.12889
0.645892
35.0024
38.4
38.0051
38.6438
26.387
-27.1798
-3.27778
-1.21101
-1.28638
1.46387
1.88583
1.35555
0.772129
0.280104
-0.166442
-0.561195
-0.848908
38.4775
43.5058
47.0105
54.7511
57.3885
-12.9281
-10.9821
-5.65511
-1.76599
-0.583338
-0.73234
-1.13783
-1.47332
-1.7715
-2.02954
-2.18228
39.4476
43.8583
47.8484
55.3585
60.1042
-32.4915
-19.633
-13.2106
-6.51456
-2.73665
-1.24115
-0.994916
-1.16514
-1.45239
-1.8134
-2.19732
-2.5047
-2.6471
38.731
41.6513
44.4791
47.1635
44.1973
33.7499
17.2757
8.89709
-0.131614
-21.7247
-40.2824
-43.0605
-39.8113
-23.1869
-17.0176
-10.735
-6.05428
-2.87813
-1.32263
-0.773844
-0.715783
-0.909253
-1.25476
-1.6765
-2.1095
-2.46836
37.3368
38.9479
39.9261
39.2373
37.6303
30.3512
22.7278
15.3108
3.81368
-13.2505
-23.6648
-26.5583
-24.6178
-19.5651
-13.9908
-9.8696
-5.74922
-2.76394
-1.07193
-0.360169
-0.297262
-0.622936
-1.15943
-1.78444
-2.4103
-2.96527
35.9126
36.6149
36.6116
35.3408
32.2691
27.7872
22.2366
15.6623
5.75705
-7.1751
-15.7271
-17.915
-17.4765
-15.0131
-11.8641
-8.41806
-5.30255
-2.99399
-1.58229
-0.927816
-0.825179
-1.08343
-1.5654
-2.18989
-2.90654
-3.66471
34.7075
34.7927
34.2134
32.6674
29.9026
25.917
20.8339
14.9742
6.48504
-2.96862
-10.0698
-12.9414
-13.0586
-11.7119
-9.51403
-7.14773
-5.04957
-3.43634
-2.39359
-1.89127
-1.83233
-2.10852
-2.62978
-3.33093
-4.1683
33.786
33.43
32.4404
30.6471
27.9067
24.1468
19.2525
13.0964
5.82009
-1.1428
-6.62613
-9.42388
-9.93201
-9.17741
-7.78437
-6.26069
-4.88962
-3.81842
-3.13231
-2.84946
-2.93399
-3.33025
-3.9791
-4.82705
-5.83507
33.1445
32.4556
31.1331
29.0751
26.2132
22.5006
17.845
12.3749
6.43629
0.954171
-3.65393
-6.53849
-7.50433
-7.217
-6.45
-5.57315
-4.77666
-4.1824
-3.86668
-3.85747
-4.14475
-4.71143
-5.52488
-6.54574
-7.72697
32.7587
31.8067
30.191
27.8455
24.7635
20.9839
16.5632
11.7009
6.86724
2.53899
-1.29792
-4.12285
-5.46246
-5.64371
-5.40129
-5.05024
-4.74356
-4.58213
-4.62689
-4.89555
-5.38907
-6.12352
-7.09548
-8.27258
-9.60255
32.5945
31.4319
29.5486
26.8968
23.5399
19.6482
15.4076
11.0815
7.04161
3.47025
0.229556
-2.43537
-4.02907
-4.64284
-4.81729
-4.87834
-4.96539
-5.1559
-5.4955
-5.99978
-6.65871
-7.50056
-8.56666
-9.84413
-11.2541
31.2743
29.151
26.1799
22.5076
18.4776
14.4059
10.5685
7.12677
4.05807
1.2227
-1.24615
-3.01981
-4.03374
-4.58572
-4.96204
-5.32375
-5.75803
-6.31072
-6.98802
-7.74736
-8.61425
-9.69476
-11.0105
-12.4489
28.9415
25.6758
21.6726
17.4669
13.5567
10.1225
7.11711
4.35774
1.7905
-0.54554
-2.4712
-3.83385
-4.68228
-5.23796
-5.73238
-6.27907
-6.92485
-7.67683
-8.47316
-9.34097
-10.4328
-11.7831
-13.2511
28.8546
25.3629
21.0848
16.72
12.8998
9.73687
7.0229
4.49031
2.08865
-0.185581
-2.23543
-3.86609
-4.90505
-5.50339
-6.00674
-6.58269
-7.27451
-8.0759
-8.90801
-9.79421
-10.9039
-12.276
-13.7627
25.1973
20.7717
16.3149
12.5298
9.5007
6.93077
4.54348
2.23738
-0.00625209
-2.137
-3.90887
-5.03984
-5.64928
-6.15025
-6.74118
-7.45782
-8.2805
-9.12588
-10.0215
-11.14
-12.518
-14.0104
25.1858
20.7585
16.3038
12.5232
9.49621
6.92503
4.5365
2.23096
-0.010698
-2.13841
-3.90788
-5.03908
-5.64897
-6.14956
-6.74038
-7.45744
-8.28037
-9.12571
-10.0221
-11.1421
-12.5219
-14.0159
25.3309
21.0458
16.683
12.8707
9.71208
6.99554
4.46095
2.06209
-0.205927
-2.24527
-3.86704
-4.90563
-5.50477
-6.00666
-6.58163
-7.27417
-8.077
-8.911
-9.80011
-10.9138
-12.2907
-13.7831
-15.342
25.63
21.6182
17.4118
13.5061
10.0756
7.06938
4.31118
1.75267
-0.578099
-2.48938
-3.83609
-4.68035
-5.23636
-5.72855
-6.2714
-6.91658
-7.67193
-8.47392
-9.34743
-10.4459
-11.8047
-13.2833
-14.8355
26.1248
22.4426
18.4073
14.3314
10.4924
7.05335
3.99839
1.19944
-1.26422
-3.0286
-4.0293
-4.58079
-4.96138
-5.32289
-5.7524
-6.30427
-6.98693
-7.75421
-8.62948
-9.71948
-11.0462
-12.4985
-14.0469
26.834
23.4648
19.5637
15.3116
10.9763
6.93995
3.39172
0.190728
-2.44091
-4.01258
-4.61559
-4.79409
-4.86307
-4.95481
-5.14215
-5.48189
-5.99732
-6.66905
-7.52442
-8.60527
-9.89767
-11.3253
-12.8838
24.686
20.8946
16.4583
11.5831
6.75223
2.44502
-1.34816
-4.1343
-5.45214
-5.61921
-5.37847
-5.03321
-4.73881
-4.58402
-4.63082
-4.91552
-5.42636
-6.1785
-7.16763
-8.36028
-9.70594
-11.2309
-12.9592
26.1342
22.4092
17.74
12.272
6.34833
0.871841
-3.68393
-6.53814
-7.49647
-7.19963
-6.42354
-5.54233
-4.75393
-4.1712
-3.87064
-3.88274
-4.19295
-4.78346
-5.61823
-6.65802
-7.85458
-9.22139
-10.7563
27.8241
24.049
19.1367
13.0612
5.69206
-1.25386
-6.62746
-9.40946
-9.95296
-9.19561
-7.78365
-6.24425
-4.87676
-3.82407
-3.16358
-2.90865
-3.02009
-3.44034
-4.10892
-4.97264
-5.9938
-7.15068
-8.3954
29.8111
25.7886
20.5614
14.0403
6.60752
-1.81479
-8.0199
-12.9612
-13.1189
-11.7311
-9.47927
-7.07724
-4.98323
-3.40442
-2.40603
-1.94856
-1.93056
-2.24056
-2.78795
-3.50869
-4.36212
-5.31769
-6.31711
5.91884
-5.18655
-12.9053
-18.0207
-17.7143
-15.1575
-11.8175
-8.28778
-5.18533
-2.92917
-1.57212
-0.968723
-0.914322
-1.21594
-1.73459
-2.39025
-3.13453
-3.91683
-4.67081
5.06197
-10.1623
-19.3695
-21.8451
-21.4325
-17.8861
-13.7772
-9.46607
-5.45132
-2.64496
-1.10591
-0.507439
-0.528233
-0.915548
-1.49646
-2.15486
-2.80827
-3.38931
-3.82951
-14.2434
-29.9714
-31.0745
-29.5267
-21.3865
-15.7238
-10.1917
-5.4809
-2.5589
-1.27111
-0.935228
-1.02964
-1.32782
-1.74358
-2.21053
-2.6662
-3.04292
-3.25668
-46.6055
-64.4829
-46.7471
-24.109
-19.7333
-12.1751
-6.03675
-2.30646
-0.989697
-0.946567
-1.28517
-1.69918
-2.15135
-2.60222
-2.96526
-3.15216
-3.08469
-19.7863
-12.9655
-5.2566
-1.52559
-0.4308
-0.689798
-1.2116
-1.64645
-2.02221
-2.34211
-2.54635
-2.56674
-2.33743
-10.1593
-5.75786
-0.820565
1.89314
2.24387
1.61034
0.903643
0.297319
-0.243071
-0.714206
-1.06565
-1.23693
-1.16525
-4.38678
-1.12625
2.55063
3.61075
3.50069
2.94142
2.27626
1.61744
0.9989
0.453645
0.0265617
-0.234713
-0.283443
13.1676
10.8965
7.95438
4.36301
0.424448
-3.2805
-6.18222
-8.06444
-9.1044
-9.62014
-9.79014
-9.62008
-9.02459
-7.90005
-6.29258
14.7776
12.2011
8.56775
3.7995
-1.65751
-6.74962
-10.3759
-12.2534
-12.8941
-13.0886
-13.1093
-12.8699
-12.1168
-10.488
-8.00369
17.0664
14.2528
9.77277
3.26109
-4.48038
-11.664
-16.1727
-17.8083
-17.5868
-17.3305
-17.3432
-17.3208
-16.6634
-14.3039
-10.3186
-6.18849
-2.89501
-0.713502
0.56498
1.23693
1.51654
1.54075
1.40185
20.3489
17.6017
12.4
5.38028
-5.58401
-15.9867
-22.0307
-24.1033
-21.9023
-20.9985
-21.383
-21.6013
-21.842
-18.8947
-12.9942
-6.34476
-2.2486
0.229169
1.5689
2.18066
2.34593
2.24778
2.00411
25.005
23.3394
17.6507
8.25232
-11.2414
-32.0081
-39.2579
-33.9203
-27.8165
-25.1728
-25.1649
-29.2348
-33.1834
-28.3832
-16.5605
-6.8841
-0.471515
1.80547
2.7482
3.00278
2.89193
2.5934
2.20942
30.9101
32.0219
27.9469
16.7887
-13.6776
-63.7023
-82.1165
-51.1816
-21.8358
-20.0095
-18.8079
-38.629
-59.3312
-39.5927
-17.348
-5.44286
1.52764
3.83193
4.16549
3.73508
3.12714
2.51364
1.92334
1.38676
36.7342
37.7607
44.067
40.8264
19.4397
-14.0321
-4.62716
-0.571477
2.56265
3.17776
2.4416
1.6016
0.934879
0.365229
-0.12628
-0.485581
40.5349
44.5094
55.6262
65.8018
-19.9466
-14.3419
-7.02651
-1.65021
0.437368
0.194832
-0.447959
-0.974622
-1.45834
-1.91032
-2.23509
41.2701
45.6951
55.455
65.5452
66.2233
-21.0124
-15.3144
-8.63317
-2.81244
-0.816737
-0.596427
-0.832145
-1.11689
-1.46832
-1.8773
-2.26003
-2.50354
40.1975
44.0087
48.4703
51.7
46.9329
24.7731
16.1049
24.6903
14.9516
-40.6114
-30.944
-35.7825
-34.9521
-24.475
-20.0088
-13.9786
-5.75281
-2.35023
-0.964034
-0.660512
-0.812065
-1.15675
-1.6058
-2.07956
-2.52573
-2.87872
38.4052
40.4926
41.8931
42.8211
38.3776
30.9786
26.9245
24.5067
11.9837
-18.2054
-27.2151
-29.3736
-28.138
-23.4457
-17.58
-9.69627
-4.86483
-1.63995
0.180006
0.827161
0.609283
-0.089737
-1.00111
-1.95227
-2.83332
-3.58763
36.7377
37.7259
37.9764
36.7594
34.0455
30.4103
26.7317
22.189
9.71908
-13.5149
-22.0265
-22.7124
-19.5827
-16.7457
-12.4822
-8.22313
-4.47613
-1.78702
-0.186054
0.465105
0.421405
-0.041107
-0.730101
-1.56921
-2.53802
-3.58146
35.4284
35.7116
35.3415
33.9988
31.5536
28.2006
24.6354
18.9019
6.86255
-7.37299
-15.7933
-15.7105
-14.9808
-13.2873
-10.3191
-7.164
-4.49075
-2.5347
-1.32966
-0.78592
-0.76236
-1.11921
-1.74304
-2.563
-3.55136
34.5045
34.2942
33.4607
31.8486
29.3726
26.0355
22.4813
16.2283
6.79838
-2.04751
-9.5551
-11.8365
-10.9569
-10.0109
-8.15014
-6.14966
-4.41406
-3.11613
-2.32001
-2.0061
-2.11479
-2.58089
-3.32388
-4.27715
-5.4004
33.9352
33.3535
32.1203
30.1428
27.3931
23.8319
20.2161
14.2843
7.21371
0.927778
-5.13731
-8.64987
-8.49577
-7.76698
-6.6146
-5.40308
-4.36117
-3.62984
-3.26193
-3.25704
-3.57399
-4.22855
-5.17506
-6.35239
-7.54698
33.684
32.8053
31.1938
28.7784
25.579
21.615
16.8296
11.2896
6.21924
2.53045
-2.13319
-5.67922
-6.36894
-5.97557
-5.33009
-4.71067
-4.25295
-4.0602
-4.15298
-4.51837
-4.97939
-5.79517
-6.94487
-8.33549
-9.79974
33.7046
32.5839
30.6049
27.6908
23.9626
19.665
15.0308
10.2531
6.17978
2.83935
-0.591628
-3.70527
-4.97916
-5.03095
-4.81251
-4.65779
-4.62435
-4.83409
-5.27097
-5.90105
-6.59655
-7.52439
-8.77968
-10.3103
-11.8623
32.6201
30.2955
26.8276
22.4729
17.8515
13.4468
9.50088
6.26214
3.50461
0.661772
-2.06882
-3.79804
-4.47073
-4.7299
-4.9475
-5.25076
-5.74188
-6.43607
-7.28151
-8.07328
-8.92161
-10.1104
-11.6473
30.2012
26.2071
21.1565
16.1076
11.9794
8.77114
6.26578
3.81994
1.36731
-1.11441
-3.19412
-4.52792
-5.18469
-5.56897
-5.99404
-6.53999
-7.25935
-8.13977
-8.8921
-9.65206
-10.8093
-12.3685
30.2197
25.8152
20.1896
14.802
10.8509
8.14574
6.09995
3.94624
1.71535
-0.658918
-3.00391
-4.91461
-5.7809
-6.06024
-6.3933
-6.90499
-7.63579
-8.54693
-9.30702
-10.055
-11.2199
-12.7972
25.6027
19.6804
14.0919
10.2131
7.74899
5.85483
3.95436
1.88514
-0.399136
-2.87382
-5.0757
-6.05745
-6.2849
-6.57248
-7.08057
-7.8317
-8.75395
-9.51573
-10.2649
-11.4362
-13.0127
-14.5373
25.5868
19.6614
14.0806
10.2139
7.75275
5.85092
3.9451
1.87574
-0.405584
-2.87234
-5.07021
-6.05503
-6.28285
-6.56768
-7.07438
-7.82693
-8.74933
-9.50999
-10.2609
-11.4348
-13.0131
-14.5376
25.7729
20.1314
14.7544
10.8277
8.1325
6.06987
3.90623
1.67573
-0.689187
-3.00848
-4.90479
-5.77892
-6.05807
-6.38333
-6.89013
-7.62298
-8.53568
-9.29846
-10.0511
-11.2212
-12.8021
-14.3276
26.1504
21.0836
16.0405
11.9271
8.7288
6.21038
3.75567
1.30662
-1.16526
-3.20738
-4.51493
-5.17375
-5.56166
-5.9804
-6.51557
-7.23348
-8.11809
-8.8789
-9.64357
-10.8056
-12.3718
-13.8905
-15.413
26.763
22.3929
17.7679
13.3551
9.40715
6.16009
3.40794
0.634615
-2.08684
-3.78872
-4.44103
-4.71281
-4.94672
-5.24844
-5.72484
-6.41598
-7.26709
-8.06662
-8.921
-10.1185
-11.6637
-13.1886
-14.7601
27.6167
23.8701
19.566
14.906
10.1015
6.02636
2.72732
-0.61766
-3.67148
-4.91523
-4.95058
-4.7623
-4.63285
-4.60526
-4.79322
-5.2333
-5.88245
-6.58681
-7.52797
-8.799
-10.3449
-11.9215
-13.6324
25.4933
21.5134
16.6923
11.1024
6.02632
2.88848
-1.0375
-4.36829
-6.32727
-5.91275
-5.27467
-4.67096
-4.25054
-4.04636
-4.16081
-4.56324
-5.02534
-5.85091
-7.01468
-8.41848
-9.8967
-11.6998
-13.9457
27.31
23.7326
18.8363
13.1556
7.06136
1.73976
-3.47764
-7.11
-8.42392
-7.68532
-6.53205
-5.33254
-4.32575
-3.60942
-3.27212
-3.29714
-3.63704
-4.31726
-5.28693
-6.49048
-7.68632
-9.25414
-11.2185
29.2887
25.9361
21.0759
14.8963
6.81948
-0.502032
-7.17109
-10.2957
-10.9182
-9.98946
-8.13006
-6.13506
-4.42494
-3.15851
-2.39629
-2.11383
-2.2501
-2.73663
-3.49227
-4.45211
-5.57494
-6.90232
-8.37668
31.4632
28.0876
23.3273
17.205
6.79306
-4.65968
-12.5524
-13.7192
-14.8197
-13.065
-10.0967
-6.98775
-4.39283
-2.52338
-1.39065
-0.903534
-0.923795
-1.31005
-1.94841
-2.77408
-3.76556
-4.91285
-6.13981
7.94473
-7.69862
-18.4327
-18.5658
-20.0698
-16.9598
-12.4665
-8.12706
-4.46054
-1.86936
-0.331628
0.27695
0.198944
-0.289317
-0.989984
-1.83858
-2.82079
-3.87417
-4.89827
11.5296
-14.805
-21.2277
-25.132
-24.7358
-21.3675
-15.606
-9.55935
-4.94952
-1.93339
-0.241176
0.345857
0.106011
-0.592202
-1.48884
-2.42757
-3.30679
-4.05699
-4.59923
-21.2076
-33.5816
-31.9757
-30.3336
-24.5558
-18.6213
-12.1378
-5.68942
-2.6014
-1.4497
-1.32555
-1.58442
-1.97249
-2.43077
-2.89525
-3.30882
-3.62446
-3.7844
-52.8501
-25.7848
-36.0548
-37.115
-25.8541
-22.5202
-14.6319
-8.1468
-2.87683
-1.03955
-0.99587
-1.3698
-1.7392
-2.13183
-2.55026
-2.92626
-3.16496
-3.17526
-21.541
-14.367
-8.1017
-1.65736
0.411273
0.0951151
-0.64509
-1.25033
-1.78733
-2.27907
-2.64598
-2.80239
-2.67892
-19.1489
-9.27453
-3.72986
2.66312
3.19039
2.33994
1.38578
0.626061
-0.00836853
-0.545643
-0.940864
-1.13403
-1.06317
-14.3327
-3.80458
1.7109
3.94932
4.20637
3.6892
2.99743
2.31214
1.66366
1.07904
0.606863
0.3006
0.212575
13.1566
10.8662
7.87899
4.22191
0.260037
-3.33874
-6.00638
-7.59364
-8.4207
-8.8773
-9.1109
-9.08766
-8.69175
-7.76803
-6.27172
14.7561
12.1228
8.36688
3.408
-2.18297
-7.11984
-10.3116
-11.5382
-11.8275
-11.9904
-12.1469
-12.1629
-11.7861
-10.5745
-8.26998
17.0566
14.1214
9.38223
2.37233
-5.72886
-12.6787
-16.486
-16.5773
-15.8772
-15.7203
-15.9753
-16.3996
-16.5397
-15.0174
-11.1715
-6.71951
-3.05875
-0.623771
0.760001
1.44874
1.70745
1.69382
1.50858
20.4098
17.4449
11.7638
3.53563
-8.29046
-18.4011
-24.9631
-21.5129
-19.0947
-18.4137
-18.9139
-20.7861
-21.7471
-21.2358
-15.4843
-7.36322
-2.57357
0.330925
1.82511
2.4722
2.62648
2.49195
2.19732
25.2856
23.41
17.028
5.24889
-19.1247
-38.4511
-38.7672
-28.6549
-23.6247
-21.7472
-21.2471
-24.1821
-32.9761
-35.5605
-22.6554
-9.60988
-0.672464
2.35304
3.44713
3.67437
3.497
3.12012
2.65129
31.8219
30.3092
29.3358
10.8397
-36.5351
-77.8995
-77.9253
-20.2585
-20.1558
-20.2136
-17.3622
-16.9323
-54.8674
-74.6957
-33.9497
-8.36768
-0.137961
4.51946
5.36419
4.97704
4.25142
3.50591
2.78784
2.12351
38.5225
41.3716
48.5365
46.5983
-7.75632
0.869549
4.2045
5.46339
4.81821
3.74104
2.78789
1.95179
1.21116
0.61795
42.6181
49.1014
63.6575
81.6228
-13.063
-4.38056
-0.110103
2.13609
1.95497
1.19903
0.54253
-0.0585043
-0.631407
-1.10148
43.0456
49.713
61.948
77.1965
-14.8661
-7.57692
-1.46984
0.594906
0.450662
-0.161302
-0.707482
-1.24356
-1.78281
-2.26253
-2.58592
41.4851
46.1064
52.4072
53.9311
40.505
20.4571
28.1802
44.6999
50.0964
-41.5148
-36.3947
-32.5008
-25.6795
-20.6086
-12.1135
-2.35026
0.78942
2.10919
2.1501
1.56509
0.729006
-0.242597
-1.23737
-2.13229
-2.85273
39.3359
41.836
43.5439
44.6256
38.5953
32.5306
33.7507
39.5032
45.2853
-41.2141
-31.2772
-29.6524
-24.211
-17.4778
-7.22283
-2.38071
0.240555
1.9861
2.7009
2.44333
1.62777
0.564457
-0.570798
-1.66759
-2.66594
37.4989
38.7523
39.2626
38.2308
35.9543
33.7642
32.7164
33.9311
31.0966