/*--------------------------------*- C++ -*----------------------------------*\
  =========                 |
  \\      /  F ield         | OpenFOAM: The Open Source CFD Toolbox
   \\    /   O peration     | Website:  https://openfoam.org
    \\  /    A nd           | Version:  13
     \\/     M anipulation  |
\*---------------------------------------------------------------------------*/
FoamFile
{
    format      ascii;
    class       volScalarField;
    location    "600";
    object      p;
}
// * * * * * * * * * * * * * * * * * * * * * * * * * * * * * * * * * * * * * //

dimensions      [0 2 -2 0 0 0 0];

internalField   nonuniform List<scalar> 
169896
(
14.8474
14.8473
14.8468
14.8462
14.8452
14.844
14.8426
14.8408
14.8388
14.8364
14.8338
14.8308
14.8274
14.8237
14.8196
14.8151
14.8102
14.8047
14.7988
14.7923
14.7853
14.7776
14.7692
14.7602
14.7503
14.7396
14.7279
14.7153
14.7016
14.6868
14.6707
14.6533
14.6345
14.6142
14.5921
14.5683
14.5426
14.5148
14.4848
14.4524
14.4174
14.3797
14.339
14.2951
14.2479
14.197
14.1423
14.0835
14.0202
13.9523
13.8793
13.8011
13.7173
13.6275
13.5314
13.4288
13.3191
13.2021
13.0775
12.9448
12.8037
12.654
12.4951
12.3269
12.1491
11.9613
11.7634
11.5552
11.3365
11.1072
10.8673
10.6166
10.3554
10.0835
14.8477
14.8475
14.8471
14.8464
14.8455
14.8443
14.8429
14.8411
14.8391
14.8368
14.8341
14.8311
14.8278
14.8241
14.82
14.8156
14.8106
14.8052
14.7993
14.7929
14.7859
14.7783
14.77
14.7609
14.7511
14.7404
14.7289
14.7163
14.7027
14.688
14.672
14.6547
14.636
14.6157
14.5938
14.5701
14.5445
14.5169
14.487
14.4548
14.42
14.3824
14.3419
14.2983
14.2513
14.2007
14.1462
14.0876
14.0246
13.9569
13.8843
13.8064
13.7228
13.6334
13.5376
13.4353
13.326
13.2094
13.0851
12.9527
12.812
12.6626
12.5041
12.3362
12.1587
11.9712
11.7736
11.5657
11.3472
11.1181
10.8783
10.6278
10.3666
10.0948
14.8482
14.848
14.8476
14.8469
14.846
14.8448
14.8434
14.8417
14.8397
14.8374
14.8348
14.8318
14.8285
14.8249
14.8209
14.8164
14.8116
14.8062
14.8004
14.7941
14.7871
14.7796
14.7714
14.7624
14.7527
14.7422
14.7308
14.7184
14.7049
14.6903
14.6745
14.6574
14.6389
14.6189
14.5972
14.5737
14.5484
14.521
14.4915
14.4596
14.4251
14.3879
14.3478
14.3046
14.258
14.2078
14.1538
14.0958
14.0333
13.9662
13.8941
13.8168
13.7339
13.6451
13.55
13.4484
13.3398
13.2239
13.1003
12.9687
12.8287
12.6799
12.5221
12.355
12.1781
11.9912
11.7942
11.5868
11.3688
11.1401
10.9007
10.6505
10.3895
10.1179
14.8489
14.8487
14.8483
14.8476
14.8467
14.8456
14.8442
14.8425
14.8406
14.8383
14.8357
14.8328
14.8296
14.826
14.8221
14.8177
14.8129
14.8077
14.802
14.7958
14.7889
14.7815
14.7735
14.7647
14.7552
14.7448
14.7336
14.7214
14.7081
14.6938
14.6783
14.6615
14.6432
14.6235
14.6022
14.5791
14.5542
14.5273
14.4982
14.4667
14.4328
14.3961
14.3566
14.314
14.2681
14.2186
14.1653
14.108
14.0463
13.9801
13.9089
13.8325
13.7505
13.6627
13.5686
13.468
13.3604
13.2456
13.1231
12.9926
12.8536
12.706
12.5492
12.3831
12.2072
12.0213
11.8251
11.6185
11.4012
11.1732
10.9343
10.6846
10.424
10.1526
14.8498
14.8496
14.8492
14.8486
14.8477
14.8466
14.8453
14.8436
14.8417
14.8395
14.837
14.8342
14.831
14.8275
14.8237
14.8194
14.8148
14.8097
14.8041
14.798
14.7914
14.7841
14.7762
14.7677
14.7584
14.7483
14.7373
14.7254
14.7124
14.6984
14.6833
14.6668
14.649
14.6297
14.6088
14.5863
14.5619
14.5355
14.507
14.4762
14.4429
14.407
14.3683
14.3265
14.2814
14.2329
14.1805
14.1242
14.0636
13.9985
13.9285
13.8533
13.7726
13.686
13.5933
13.4941
13.3879
13.2745
13.1534
13.0244
12.8869
12.7407
12.5854
12.4206
12.246
12.0614
11.8664
11.6609
11.4446
11.2175
10.9794
10.7303
10.4703
10.1993
14.851
14.8508
14.8504
14.8498
14.849
14.8479
14.8466
14.845
14.8432
14.841
14.8386
14.8359
14.8328
14.8294
14.8257
14.8216
14.8171
14.8121
14.8067
14.8008
14.7943
14.7873
14.7797
14.7714
14.7623
14.7525
14.7419
14.7303
14.7178
14.7042
14.6894
14.6734
14.6561
14.6374
14.6171
14.5951
14.5714
14.5457
14.5179
14.4879
14.4555
14.4205
14.3828
14.342
14.298
14.2506
14.1995
14.1444
14.0851
14.0214
13.9528
13.8791
13.8
13.7151
13.624
13.5265
13.4221
13.3105
13.1912
13.064
12.9284
12.784
12.6304
12.4674
12.2945
12.1115
11.918
11.7139
11.4989
11.273
11.0359
10.7877
10.5283
10.2578
14.8524
14.8522
14.8519
14.8513
14.8505
14.8494
14.8482
14.8466
14.8449
14.8428
14.8405
14.8378
14.8349
14.8316
14.8281
14.8241
14.8197
14.815
14.8098
14.8041
14.7979
14.7911
14.7838
14.7758
14.7671
14.7576
14.7473
14.7362
14.7241
14.711
14.6967
14.6813
14.6646
14.6465
14.6269
14.6056
14.5827
14.5578
14.531
14.5019
14.4705
14.4366
14.4
14.3604
14.3177
14.2716
14.2219
14.1684
14.1107
14.0486
13.9818
13.9099
13.8327
13.7497
13.6607
13.5652
13.463
13.3535
13.2364
13.1114
12.978
12.8358
12.6844
12.5235
12.3527
12.1716
11.98
11.7776
11.5642
11.3397
11.1039
10.8567
10.5982
10.3284
14.854
14.8538
14.8535
14.8529
14.8521
14.8512
14.85
14.8485
14.8468
14.8449
14.8426
14.8401
14.8373
14.8342
14.8308
14.827
14.8228
14.8183
14.8133
14.8079
14.802
14.7955
14.7885
14.7808
14.7725
14.7635
14.7536
14.743
14.7314
14.7188
14.7052
14.6904
14.6743
14.657
14.6381
14.6178
14.5957
14.5718
14.546
14.518
14.4878
14.4551
14.4198
14.3817
14.3404
14.296
14.2479
14.1961
14.1403
14.0801
14.0153
13.9456
13.8705
13.7898
13.7032
13.6101
13.5103
13.4034
13.2889
13.1665
13.0357
12.8961
12.7473
12.5889
12.4205
12.2418
12.0524
11.8521
11.6406
11.4178
11.1835
10.9377
10.6803
10.4113
14.8558
14.8556
14.8553
14.8548
14.8541
14.8531
14.852
14.8506
14.849
14.8472
14.8451
14.8427
14.84
14.8371
14.8338
14.8303
14.8263
14.822
14.8173
14.8122
14.8066
14.8004
14.7938
14.7865
14.7786
14.77
14.7607
14.7506
14.7396
14.7276
14.7146
14.7006
14.6853
14.6688
14.6508
14.6314
14.6104
14.5876
14.5629
14.5362
14.5073
14.4761
14.4422
14.4057
14.3661
14.3234
14.2773
14.2275
14.1738
14.1158
14.0533
13.9859
13.9134
13.8353
13.7513
13.6611
13.5642
13.4601
13.3486
13.2292
13.1014
12.9648
12.8189
12.6635
12.4979
12.322
12.1352
11.9374
11.7282
11.5074
11.275
11.0307
10.7746
10.5067
14.8578
14.8576
14.8573
14.8568
14.8562
14.8553
14.8542
14.853
14.8514
14.8497
14.8477
14.8455
14.843
14.8403
14.8372
14.8339
14.8302
14.8262
14.8217
14.8169
14.8116
14.8059
14.7996
14.7928
14.7854
14.7773
14.7685
14.759
14.7486
14.7374
14.7252
14.7119
14.6975
14.6819
14.6649
14.6465
14.6266
14.6051
14.5817
14.5564
14.529
14.4993
14.4671
14.4323
14.3947
14.354
14.3099
14.2624
14.211
14.1555
14.0955
14.0309
13.9611
13.886
13.8051
13.7179
13.6242
13.5235
13.4153
13.2993
13.1749
13.0418
12.8993
12.7472
12.5849
12.4121
12.2284
12.0334
11.8269
11.6086
11.3783
11.1359
10.8814
10.6148
14.8599
14.8598
14.8595
14.8591
14.8585
14.8577
14.8567
14.8555
14.8541
14.8525
14.8507
14.8486
14.8463
14.8437
14.8409
14.8378
14.8344
14.8306
14.8265
14.8221
14.8172
14.8118
14.806
14.7997
14.7928
14.7852
14.7771
14.7682
14.7585
14.748
14.7366
14.7242
14.7107
14.6961
14.6803
14.6631
14.6444
14.6242
14.6022
14.5784
14.5526
14.5246
14.4943
14.4615
14.4259
14.3874
14.3457
14.3006
14.2517
14.1989
14.1419
14.0802
14.0136
13.9417
13.8641
13.7805
13.6904
13.5933
13.4889
13.3767
13.2562
13.1269
12.9883
12.84
12.6814
12.5123
12.332
12.1403
11.9368
11.7214
11.4936
11.2535
11.0009
10.7358
14.8623
14.8621
14.8619
14.8615
14.8609
14.8602
14.8593
14.8582
14.8569
14.8555
14.8538
14.8519
14.8498
14.8475
14.8449
14.842
14.8389
14.8355
14.8317
14.8276
14.8231
14.8182
14.8129
14.807
14.8007
14.7938
14.7863
14.7781
14.7692
14.7595
14.749
14.7375
14.725
14.7115
14.6968
14.6809
14.6635
14.6447
14.6243
14.6022
14.5781
14.552
14.5237
14.493
14.4596
14.4235
14.3843
14.3419
14.2959
14.2461
14.1921
14.1337
14.0705
14.0022
13.9283
13.8485
13.7624
13.6694
13.5692
13.4612
13.3449
13.2199
13.0857
12.9416
12.7873
12.6222
12.4458
12.2579
12.058
11.8457
11.621
11.3835
11.1331
10.87
14.8647
14.8646
14.8644
14.864
14.8635
14.8629
14.8621
14.8611
14.86
14.8587
14.8572
14.8555
14.8536
14.8514
14.8491
14.8465
14.8437
14.8406
14.8372
14.8335
14.8295
14.825
14.8202
14.8149
14.8092
14.8029
14.7961
14.7886
14.7805
14.7717
14.7621
14.7517
14.7403
14.7279
14.7145
14.6999
14.684
14.6667
14.6479
14.6275
14.6054
14.5813
14.5551
14.5266
14.4957
14.4622
14.4257
14.3862
14.3432
14.2966
14.246
14.1912
14.1317
14.0672
13.9974
13.9218
13.84
13.7514
13.6558
13.5524
13.4409
13.3207
13.1912
13.0519
12.9023
12.7417
12.5699
12.3862
12.1902
11.9817
11.7604
11.5259
11.2783
11.0175
14.8673
14.8673
14.8671
14.8667
14.8663
14.8657
14.865
14.8642
14.8632
14.862
14.8607
14.8592
14.8575
14.8556
14.8536
14.8513
14.8488
14.846
14.843
14.8397
14.8361
14.8322
14.8279
14.8232
14.8181
14.8125
14.8064
14.7998
14.7925
14.7846
14.776
14.7666
14.7564
14.7453
14.7331
14.72
14.7056
14.69
14.6729
14.6544
14.6342
14.6123
14.5884
14.5623
14.534
14.5032
14.4697
14.4332
14.3935
14.3503
14.3033
14.2523
14.1968
14.1365
14.0711
14
13.9229
13.8392
13.7485
13.6502
13.5439
13.4289
13.3047
13.1706
13.0262
12.8708
12.7039
12.5249
12.3335
12.1293
11.9118
11.681
11.4365
11.1783
14.8701
14.87
14.8698
14.8696
14.8692
14.8687
14.8681
14.8674
14.8665
14.8655
14.8644
14.8631
14.8616
14.86
14.8582
14.8563
14.8541
14.8517
14.8491
14.8462
14.8431
14.8397
14.836
14.8319
14.8274
14.8225
14.8172
14.8114
14.8051
14.7981
14.7905
14.7823
14.7733
14.7634
14.7527
14.741
14.7282
14.7143
14.6991
14.6826
14.6645
14.6448
14.6233
14.5998
14.5742
14.5463
14.5159
14.4827
14.4464
14.4069
14.3638
14.3168
14.2656
14.2098
14.149
14.0828
14.0107
13.9323
13.847
13.7542
13.6535
13.5442
13.4258
13.2975
13.1588
13.009
12.8476
12.674
12.4877
12.2883
12.0753
11.8485
11.6076
11.3527
14.8729
14.8728
14.8727
14.8725
14.8722
14.8718
14.8713
14.8707
14.87
14.8691
14.8682
14.8671
14.8659
14.8645
14.863
14.8614
14.8596
14.8576
14.8554
14.853
14.8504
14.8475
14.8443
14.8409
14.8371
14.833
14.8284
14.8235
14.8181
14.8121
14.8057
14.7986
14.7908
14.7823
14.773
14.7629
14.7518
14.7397
14.7264
14.7119
14.6961
14.6787
14.6597
14.639
14.6162
14.5914
14.5642
14.5344
14.5018
14.4662
14.4272
14.3845
14.3378
14.2868
14.2309
14.1699
14.1032
14.0304
13.9508
13.8641
13.7694
13.6663
13.5541
13.4321
13.2997
13.1561
13.0008
12.8331
12.6525
12.4585
12.2505
12.0284
11.7917
11.5405
14.8758
14.8758
14.8757
14.8755
14.8753
14.875
14.8746
14.8741
14.8735
14.8729
14.8721
14.8713
14.8703
14.8692
14.868
14.8667
14.8652
14.8636
14.8619
14.86
14.8578
14.8555
14.853
14.8502
14.8471
14.8437
14.84
14.836
14.8315
14.8266
14.8212
14.8154
14.8089
14.8018
14.794
14.7855
14.7762
14.7659
14.7546
14.7423
14.7287
14.7138
14.6974
14.6795
14.6597
14.6381
14.6142
14.5881
14.5593
14.5277
14.493
14.4549
14.413
14.367
14.3164
14.2609
14.1999
14.1331
14.0597
13.9793
13.8912
13.7947
13.6893
13.5741
13.4485
13.3117
13.1631
13.0019
12.8276
12.6396
12.4374
12.2205
11.9887
11.7419
14.8788
14.8787
14.8787
14.8786
14.8784
14.8782
14.8779
14.8776
14.8772
14.8767
14.8761
14.8755
14.8748
14.874
14.8731
14.8721
14.871
14.8698
14.8685
14.8671
14.8655
14.8637
14.8618
14.8597
14.8573
14.8547
14.8519
14.8487
14.8453
14.8414
14.8372
14.8326
14.8274
14.8218
14.8156
14.8087
14.8011
14.7928
14.7836
14.7734
14.7622
14.7499
14.7362
14.7212
14.7045
14.6861
14.6659
14.6434
14.6187
14.5913
14.5611
14.5277
14.4908
14.45
14.405
14.3553
14.3004
14.2398
14.173
14.0994
14.0182
13.9289
13.8307
13.7229
13.6047
13.4753
13.3339
13.18
13.0126
12.8313
12.6354
12.4245
12.1982
11.9564
14.8818
14.8818
14.8817
14.8817
14.8816
14.8815
14.8813
14.8811
14.8809
14.8806
14.8802
14.8798
14.8793
14.8788
14.8783
14.8776
14.8769
14.8761
14.8753
14.8743
14.8733
14.8721
14.8708
14.8693
14.8677
14.8659
14.8639
14.8617
14.8593
14.8565
14.8535
14.8501
14.8463
14.8421
14.8375
14.8323
14.8266
14.8202
14.8131
14.8052
14.7965
14.7867
14.7759
14.7638
14.7503
14.7354
14.7187
14.7002
14.6795
14.6565
14.631
14.6025
14.5708
14.5355
14.4963
14.4527
14.4041
14.3502
14.2903
14.2238
14.1501
14.0683
13.9779
13.8779
13.7677
13.6462
13.5129
13.3667
13.207
13.033
12.8442
12.64
12.4199
12.1839
14.8848
14.8848
14.8848
14.8848
14.8848
14.8848
14.8848
14.8847
14.8846
14.8845
14.8843
14.8842
14.884
14.8837
14.8835
14.8832
14.8829
14.8825
14.8821
14.8816
14.8811
14.8805
14.8798
14.8791
14.8782
14.8772
14.8761
14.8749
14.8734
14.8718
14.8699
14.8678
14.8654
14.8628
14.8597
14.8563
14.8524
14.848
14.8431
14.8375
14.8312
14.8241
14.8161
14.8071
14.7969
14.7854
14.7725
14.7579
14.7415
14.723
14.7022
14.6789
14.6526
14.623
14.5898
14.5525
14.5106
14.4636
14.411
14.352
14.286
14.2123
14.1301
14.0386
13.9368
13.8239
13.6991
13.5614
13.41
13.2442
13.0631
12.8663
12.6533
12.4237
14.8879
14.8879
14.8879
14.888
14.8881
14.8881
14.8882
14.8883
14.8883
14.8884
14.8885
14.8885
14.8886
14.8886
14.8887
14.8888
14.8888
14.8889
14.8889
14.889
14.889
14.889
14.8889
14.8889
14.8888
14.8886
14.8884
14.8881
14.8876
14.8871
14.8865
14.8857
14.8847
14.8835
14.8821
14.8804
14.8784
14.876
14.8732
14.87
14.8662
14.8618
14.8567
14.8508
14.8439
14.836
14.8268
14.8163
14.8043
14.7904
14.7746
14.7564
14.7356
14.712
14.6849
14.6542
14.6192
14.5794
14.5343
14.4833
14.4255
14.3602
14.2867
14.204
14.1113
14.0076
13.8919
13.7633
13.621
13.4639
13.2914
13.1028
12.8975
12.6753
14.8909
14.8909
14.891
14.8911
14.8913
14.8915
14.8916
14.8919
14.8921
14.8923
14.8926
14.8929
14.8932
14.8935
14.8939
14.8943
14.8948
14.8952
14.8957
14.8963
14.8968
14.8974
14.898
14.8986
14.8993
14.8999
14.9006
14.9012
14.9018
14.9024
14.903
14.9035
14.9039
14.9042
14.9044
14.9045
14.9044
14.904
14.9035
14.9026
14.9013
14.8996
14.8974
14.8946
14.8911
14.8868
14.8815
14.8751
14.8674
14.8583
14.8474
14.8346
14.8195
14.8019
14.7812
14.7572
14.7293
14.697
14.6598
14.6169
14.5676
14.5112
14.4468
14.3734
14.2903
14.1962
14.0903
13.9715
13.8388
13.6913
13.5281
13.3485
13.1518
12.9377
14.8939
14.894
14.8941
14.8942
14.8945
14.8947
14.895
14.8954
14.8958
14.8962
14.8967
14.8972
14.8977
14.8984
14.8991
14.8998
14.9006
14.9015
14.9025
14.9035
14.9046
14.9058
14.907
14.9083
14.9097
14.9112
14.9127
14.9143
14.9159
14.9176
14.9194
14.9212
14.923
14.9248
14.9266
14.9284
14.9302
14.9319
14.9335
14.935
14.9362
14.9373
14.938
14.9383
14.9382
14.9375
14.9361
14.9338
14.9306
14.9262
14.9204
14.913
14.9037
14.8922
14.878
14.8609
14.8403
14.8157
14.7865
14.752
14.7116
14.6643
14.6094
14.5459
14.4727
14.3889
14.2933
14.1849
14.0625
13.9252
13.7721
13.6022
13.4149
13.2098
14.8969
14.8969
14.8971
14.8973
14.8976
14.898
14.8984
14.8989
14.8994
14.9
14.9007
14.9014
14.9022
14.9031
14.9041
14.9052
14.9064
14.9077
14.9091
14.9106
14.9123
14.914
14.9159
14.9179
14.92
14.9223
14.9247
14.9272
14.9298
14.9326
14.9356
14.9386
14.9418
14.9451
14.9485
14.9521
14.9557
14.9594
14.9632
14.967
14.9708
14.9745
14.9782
14.9816
14.9849
14.9878
14.9902
14.9922
14.9934
14.9938
14.9931
14.9911
14.9876
14.9823
14.9747
14.9646
14.9514
14.9346
14.9136
14.8879
14.8565
14.8187
14.7736
14.7203
14.6576
14.5844
14.4997
14.4022
14.2908
14.1644
14.022
13.8626
13.6855
13.4903
14.8998
14.8998
14.9
14.9003
14.9007
14.9011
14.9016
14.9022
14.9029
14.9037
14.9046
14.9055
14.9066
14.9078
14.9091
14.9105
14.9121
14.9138
14.9156
14.9176
14.9198
14.9221
14.9246
14.9272
14.9301
14.9331
14.9364
14.9398
14.9435
14.9473
14.9514
14.9557
14.9602
14.965
14.97
14.9753
14.9808
14.9865
14.9924
14.9985
15.0048
15.0112
15.0177
15.0243
15.0308
15.0373
15.0436
15.0497
15.0554
15.0605
15.0649
15.0684
15.0707
15.0716
15.0707
15.0676
15.0619
15.053
15.0405
15.0235
15.0014
14.9733
14.9384
14.8955
14.8436
14.7815
14.7081
14.6221
14.5222
14.4073
14.2763
14.1281
13.962
13.7775
14.9026
14.9026
14.9028
14.9032
14.9036
14.9042
14.9048
14.9055
14.9064
14.9073
14.9084
14.9096
14.9109
14.9123
14.9139
14.9157
14.9176
14.9197
14.9219
14.9244
14.9271
14.9299
14.933
14.9363
14.9399
14.9437
14.9477
14.9521
14.9567
14.9616
14.9668
14.9723
14.9782
14.9844
14.991
14.9979
15.0052
15.0128
15.0208
15.0292
15.0379
15.0469
15.0563
15.0659
15.0758
15.0858
15.0959
15.106
15.1161
15.1259
15.1354
15.1443
15.1525
15.1595
15.1652
15.1692
15.171
15.1701
15.166
15.158
15.1453
15.1271
15.1024
15.0703
15.0295
14.9789
14.9172
14.843
14.7552
14.6524
14.5333
14.397
14.2426
14.0696
14.9052
14.9053
14.9056
14.906
14.9065
14.9071
14.9078
14.9087
14.9097
14.9108
14.912
14.9134
14.915
14.9167
14.9186
14.9206
14.9229
14.9254
14.928
14.9309
14.9341
14.9375
14.9411
14.9451
14.9493
14.9538
14.9587
14.9639
14.9695
14.9754
14.9817
14.9884
14.9956
15.0032
15.0112
15.0198
15.0288
15.0383
15.0484
15.0589
15.07
15.0816
15.0937
15.1063
15.1194
15.1328
15.1467
15.1608
15.1752
15.1897
15.2041
15.2184
15.2322
15.2454
15.2577
15.2687
15.2779
15.285
15.2894
15.2903
15.2871
15.2788
15.2646
15.2433
15.2139
15.1749
15.1252
15.0634
14.988
14.8977
14.7912
14.6673
14.5252
14.3643
14.9078
14.9079
14.9082
14.9086
14.9092
14.9099
14.9108
14.9117
14.9129
14.9141
14.9155
14.9171
14.9189
14.9209
14.923
14.9254
14.928
14.9308
14.9339
14.9372
14.9408
14.9447
14.9489
14.9535
14.9583
14.9636
14.9692
14.9753
14.9817
14.9886
14.996
15.0038
15.0122
15.0211
15.0306
15.0407
15.0514
15.0628
15.0748
15.0875
15.1009
15.1149
15.1297
15.1452
15.1613
15.1781
15.1956
15.2136
15.2322
15.2512
15.2705
15.2899
15.3094
15.3286
15.3473
15.3652
15.3819
15.3968
15.4096
15.4194
15.4256
15.4273
15.4235
15.4132
15.3952
15.3681
15.3307
15.2813
15.2187
15.1412
15.0476
14.9367
14.8074
14.6592
14.9102
14.9104
14.9107
14.9111
14.9118
14.9126
14.9135
14.9146
14.9158
14.9173
14.9189
14.9206
14.9226
14.9248
14.9272
14.9299
14.9328
14.9359
14.9394
14.9431
14.9472
14.9516
14.9563
14.9614
14.9669
14.9728
14.9792
14.986
14.9933
15.0012
15.0095
15.0185
15.028
15.0382
15.0491
15.0607
15.073
15.0861
15.1
15.1147
15.1302
15.1467
15.164
15.1822
15.2014
15.2214
15.2423
15.2641
15.2867
15.31
15.334
15.3585
15.3834
15.4085
15.4335
15.4581
15.482
15.5047
15.5256
15.5442
15.5597
15.5713
15.5779
15.5785
15.5719
15.5568
15.5316
15.4949
15.4452
15.3808
15.3004
15.2027
15.0866
14.9516
14.9125
14.9127
14.913
14.9135
14.9142
14.9151
14.9161
14.9173
14.9187
14.9202
14.922
14.9239
14.9261
14.9285
14.9312
14.9341
14.9373
14.9408
14.9445
14.9487
14.9531
14.958
14.9632
14.9689
14.975
14.9815
14.9886
14.9961
15.0042
15.0129
15.0223
15.0322
15.0429
15.0543
15.0665
15.0794
15.0933
15.108
15.1237
15.1403
15.1579
15.1766
15.1964
15.2172
15.2392
15.2623
15.2865
15.3119
15.3383
15.3658
15.3943
15.4236
15.4537
15.4844
15.5155
15.5466
15.5774
15.6076
15.6365
15.6636
15.6882
15.7094
15.7263
15.7377
15.7424
15.739
15.7261
15.702
15.6652
15.6141
15.547
15.4627
15.36
15.2384
14.9146
14.9148
14.9151
14.9157
14.9164
14.9174
14.9185
14.9198
14.9213
14.9229
14.9248
14.927
14.9293
14.9319
14.9348
14.938
14.9414
14.9452
14.9494
14.9538
14.9587
14.964
14.9697
14.9758
14.9824
14.9896
14.9973
15.0055
15.0144
15.0239
15.0341
15.045
15.0567
15.0693
15.0826
15.0969
15.1122
15.1284
15.1458
15.1642
15.1838
15.2046
15.2266
15.2499
15.2745
15.3005
15.3278
15.3565
15.3866
15.418
15.4508
15.4847
15.5198
15.5558
15.5926
15.6299
15.6674
15.7047
15.7413
15.7766
15.81
15.8405
15.8673
15.8891
15.9049
15.913
15.9121
15.9005
15.8765
15.8384
15.7846
15.7137
15.6245
15.5165
14.9166
14.9167
14.9171
14.9177
14.9185
14.9195
14.9207
14.922
14.9236
14.9254
14.9275
14.9297
14.9323
14.9351
14.9382
14.9415
14.9453
14.9493
14.9538
14.9586
14.9638
14.9694
14.9756
14.9822
14.9893
14.997
15.0053
15.0142
15.0237
15.034
15.045
15.0568
15.0695
15.083
15.0975
15.113
15.1296
15.1472
15.1661
15.1862
15.2076
15.2303
15.2544
15.28
15.3071
15.3357
15.366
15.3978
15.4313
15.4663
15.503
15.5412
15.5809
15.6219
15.6641
15.7072
15.751
15.795
15.8389
15.882
15.9237
15.9631
15.9994
16.0313
16.0576
16.0769
16.0876
16.0881
16.0766
16.0513
16.0105
15.9527
15.8767
15.782
14.9183
14.9184
14.9188
14.9195
14.9203
14.9214
14.9226
14.9241
14.9258
14.9277
14.9298
14.9322
14.9349
14.9379
14.9412
14.9448
14.9487
14.953
14.9577
14.9628
14.9684
14.9744
14.9809
14.9879
14.9955
15.0037
15.0125
15.022
15.0321
15.0431
15.0548
15.0674
15.081
15.0954
15.111
15.1276
15.1453
15.1643
15.1845
15.2061
15.2291
15.2536
15.2797
15.3073
15.3367
15.3678
15.4006
15.4353
15.4719
15.5103
15.5506
15.5927
15.6367
15.6823
15.7294
15.7779
15.8275
15.8778
15.9284
15.9788
16.0283
16.076
16.1212
16.1625
16.1988
16.2287
16.2505
16.2625
16.2629
16.2499
16.2215
16.1764
16.1132
16.0314
14.9198
14.92
14.9204
14.921
14.9219
14.923
14.9243
14.9259
14.9277
14.9297
14.9319
14.9345
14.9373
14.9404
14.9438
14.9476
14.9518
14.9563
14.9612
14.9666
14.9724
14.9788
14.9856
14.993
15.001
15.0096
15.0189
15.0289
15.0396
15.0512
15.0636
15.0769
15.0912
15.1065
15.1229
15.1405
15.1593
15.1794
15.2009
15.2238
15.2483
15.2744
15.3022
15.3317
15.363
15.3963
15.4315
15.4688
15.5081
15.5496
15.5931
15.6388
15.6866
15.7363
15.788
15.8413
15.8962
15.9522
16.0089
16.0659
16.1225
16.1779
16.2312
16.2813
16.3269
16.3665
16.3986
16.4213
16.4329
16.4313
16.4147
16.3815
16.3304
16.2607
14.9211
14.9213
14.9217
14.9224
14.9233
14.9245
14.9258
14.9274
14.9293
14.9314
14.9337
14.9364
14.9393
14.9425
14.9461
14.9501
14.9544
14.9591
14.9643
14.9699
14.9759
14.9825
14.9897
14.9974
15.0057
15.0147
15.0244
15.0348
15.0461
15.0582
15.0711
15.0851
15.1
15.1161
15.1333
15.1517
15.1714
15.1925
15.2151
15.2392
15.265
15.2924
15.3217
15.3528
15.386
15.4211
15.4584
15.4979
15.5397
15.5838
15.6302
15.679
15.7301
15.7836
15.8392
15.8968
15.9563
16.0174
16.0796
16.1425
16.2054
16.2676
16.3282
16.3861
16.44
16.4885
16.5299
16.5623
16.584
16.5929
16.587
16.5646
16.5245
16.466
14.9222
14.9224
14.9228
14.9235
14.9245
14.9256
14.9271
14.9287
14.9306
14.9328
14.9352
14.9379
14.941
14.9443
14.948
14.9521
14.9566
14.9615
14.9668
14.9726
14.9789
14.9857
14.9931
15.0011
15.0097
15.019
15.029
15.0399
15.0515
15.064
15.0775
15.0919
15.1074
15.1241
15.142
15.1611
15.1816
15.2036
15.2271
15.2522
15.279
15.3076
15.3381
15.3707
15.4053
15.442
15.4811
15.5225
15.5663
15.6127
15.6615
15.713
15.767
15.8235
15.8825
15.9439
16.0074
16.0727
16.1396
16.2075
16.2759
16.344
16.4109
16.4756
16.5367
16.5929
16.6424
16.6833
16.7139
16.7319
16.7354
16.7226
16.6922
16.6433
14.923
14.9232
14.9237
14.9244
14.9254
14.9266
14.928
14.9297
14.9317
14.9339
14.9364
14.9392
14.9423
14.9457
14.9496
14.9537
14.9583
14.9633
14.9688
14.9747
14.9812
14.9882
14.9958
15.004
15.0129
15.0224
15.0327
15.0439
15.0558
15.0687
15.0825
15.0974
15.1134
15.1305
15.1489
15.1687
15.1898
15.2124
15.2367
15.2626
15.2903
15.3198
15.3514
15.385
15.4208
15.4589
15.4994
15.5423
15.5878
15.636
15.6868
15.7404
15.7968
15.8559
15.9176
15.9819
16.0487
16.1176
16.1883
16.2603
16.3332
16.4062
16.4783
16.5485
16.6156
16.6781
16.7343
16.7824
16.8203
16.846
16.8573
16.8525
16.8301
16.7893
14.9236
14.9238
14.9243
14.925
14.926
14.9273
14.9287
14.9305
14.9324
14.9347
14.9372
14.9401
14.9433
14.9468
14.9507
14.9549
14.9596
14.9647
14.9703
14.9763
14.9829
14.9901
14.9978
15.0062
15.0152
15.025
15.0355
15.0468
15.059
15.0722
15.0863
15.1015
15.1178
15.1353
15.1541
15.1743
15.1959
15.2191
15.2439
15.2704
15.2987
15.329
15.3613
15.3958
15.4325
15.4716
15.5131
15.5572
15.604
15.6535
15.7059
15.7611
15.8192
15.8802
15.9441
16.0107
16.0799
16.1515
16.2251
16.3003
16.3766
16.4532
16.5293
16.6039
16.6755
16.7429
16.8043
16.8578
16.9014
16.9329
16.9503
16.9516
16.9354
16.9009
14.924
14.9242
14.9247
14.9254
14.9264
14.9277
14.9292
14.9309
14.9329
14.9352
14.9378
14.9407
14.9439
14.9474
14.9514
14.9557
14.9604
14.9656
14.9712
14.9774
14.984
14.9913
14.9991
15.0076
15.0167
15.0266
15.0373
15.0487
15.0611
15.0744
15.0888
15.1042
15.1207
15.1385
15.1575
15.178
15.1999
15.2234
15.2486
15.2755
15.3043
15.335
15.3678
15.4029
15.4402
15.4799
15.5222
15.5671
15.6147
15.6651
15.7185
15.7748
15.8341
15.8964
15.9616
16.0297
16.1006
16.174
16.2496
16.3269
16.4055
16.4846
16.5634
16.6408
16.7156
16.7862
16.8511
16.9082
16.9557
16.9912
17.0127
17.0182
17.0061
16.9757
14.9265
14.9278
14.9293
14.9311
14.9331
14.9354
14.938
14.9409
14.9441
14.9477
14.9516
14.956
14.9607
14.9659
14.9716
14.9778
14.9845
14.9918
14.9996
15.0082
15.0174
15.0273
15.038
15.0496
15.0621
15.0755
15.0899
15.1054
15.122
15.1399
15.1591
15.1797
15.2018
15.2254
15.2508
15.2779
15.3069
15.3378
15.3709
15.4062
15.4438
15.4839
15.5265
15.5717
15.6198
15.6707
15.7245
15.7813
15.8412
15.9041
15.9701
16.0389
16.1106
16.1849
16.2614
16.3398
16.4195
16.4998
16.5799
16.6587
16.735
16.8072
16.8737
16.9327
16.9819
17.0194
17.0428
17.0502
17.0401
17.0116
16.9313
16.9804
17.0178
17.0411
17.0484
16.904
16.9511
16.9864
17.0075
17.0127
14.8342
14.834
14.8335
14.8327
14.8317
14.8303
14.8287
14.8267
14.8244
14.8218
14.8188
14.8155
14.8117
14.8076
14.8031
14.7981
14.7926
14.7866
14.7801
14.773
14.7652
14.7568
14.7477
14.7379
14.7272
14.7156
14.703
14.6895
14.6748
14.659
14.6418
14.6233
14.6034
14.5818
14.5586
14.5336
14.5066
14.4775
14.4461
14.4124
14.376
14.3369
14.2949
14.2496
14.201
14.1488
14.0927
14.0325
13.968
13.8988
13.8247
13.7454
13.6606
13.5699
13.473
13.3697
13.2595
13.1422
13.0174
12.8848
12.744
12.5948
12.4367
12.2696
12.0931
11.907
11.7111
11.5052
11.2892
11.0629
10.8262
10.5793
10.3219
10.0543
14.8344
14.8342
14.8337
14.833
14.8319
14.8306
14.829
14.827
14.8247
14.8221
14.8191
14.8158
14.8121
14.808
14.8035
14.7985
14.793
14.7871
14.7806
14.7735
14.7658
14.7575
14.7484
14.7386
14.728
14.7164
14.704
14.6905
14.6759
14.6601
14.6431
14.6247
14.6048
14.5834
14.5602
14.5353
14.5084
14.4795
14.4483
14.4147
14.3785
14.3396
14.2977
14.2527
14.2043
14.1523
14.0964
14.0365
13.9722
13.9033
13.8295
13.7504
13.6659
13.5755
13.479
13.3759
13.2661
13.1491
13.0247
12.8924
12.7519
12.603
12.4453
12.2785
12.1023
11.9165
11.7209
11.5152
11.2994
11.0733
10.8368
10.59
10.3327
10.0652
14.8349
14.8347
14.8342
14.8335
14.8324
14.8311
14.8295
14.8276
14.8253
14.8227
14.8198
14.8165
14.8128
14.8087
14.8043
14.7993
14.7939
14.7881
14.7816
14.7746
14.767
14.7588
14.7498
14.7401
14.7295
14.7181
14.7058
14.6924
14.678
14.6624
14.6455
14.6273
14.6076
14.5864
14.5635
14.5388
14.5122
14.4835
14.4526
14.4193
14.3834
14.3449
14.3033
14.2587
14.2107
14.1591
14.1038
14.0443
13.9805
13.9121
13.8389
13.7604
13.6765
13.5867
13.4908
13.3884
13.2792
13.1629
13.0391
12.9075
12.7678
12.6195
12.4625
12.2963
12.1207
11.9355
11.7405
11.5353
11.32
11.0943
10.8583
10.6117
10.3548
10.0874
14.8356
14.8354
14.8349
14.8342
14.8332
14.8319
14.8303
14.8284
14.8262
14.8236
14.8207
14.8175
14.8139
14.8099
14.8054
14.8006
14.7953
14.7895
14.7832
14.7763
14.7688
14.7607
14.7518
14.7423
14.7319
14.7206
14.7085
14.6953
14.6811
14.6657
14.6491
14.6312
14.6118
14.5909
14.5683
14.544
14.5178
14.4895
14.459
14.4262
14.3908
14.3528
14.3118
14.2677
14.2204
14.1695
14.1148
14.056
13.993
13.9254
13.853
13.7754
13.6923
13.6035
13.5085
13.4071
13.2989
13.1836
13.0609
12.9303
12.7915
12.6443
12.4883
12.3231
12.1485
11.9642
11.7699
11.5656
11.351
11.126
10.8905
10.6445
10.3879
10.1209
14.8365
14.8363
14.8359
14.8351
14.8341
14.8329
14.8313
14.8295
14.8273
14.8248
14.822
14.8188
14.8153
14.8113
14.807
14.8023
14.7971
14.7914
14.7852
14.7785
14.7711
14.7632
14.7545
14.7452
14.735
14.724
14.7121
14.6992
14.6853
14.6702
14.6539
14.6363
14.6173
14.5968
14.5747
14.5509
14.5251
14.4974
14.4675
14.4353
14.4006
14.3632
14.323
14.2797
14.2332
14.1831
14.1293
14.0716
14.0096
13.943
13.8717
13.7952
13.7133
13.6257
13.532
13.4319
13.3251
13.2112
13.0898
12.9605
12.8232
12.6773
12.5226
12.3587
12.1854
12.0023
11.8093
11.606
11.3924
11.1683
10.9336
10.6883
10.4323
10.1658
14.8377
14.8375
14.837
14.8363
14.8354
14.8341
14.8326
14.8308
14.8287
14.8263
14.8235
14.8204
14.817
14.8132
14.809
14.8043
14.7993
14.7938
14.7877
14.7812
14.774
14.7663
14.7579
14.7487
14.7389
14.7281
14.7166
14.704
14.6904
14.6758
14.6599
14.6427
14.6242
14.6042
14.5827
14.5594
14.5343
14.5072
14.4781
14.4466
14.4127
14.3762
14.3369
14.2946
14.2491
14.2001
14.1474
14.0909
14.0301
13.9649
13.8949
13.8199
13.7395
13.6534
13.5613
13.4629
13.3577
13.2454
13.1257
12.9983
12.8626
12.7185
12.5655
12.4033
12.2315
12.05
11.8584
11.6566
11.4442
11.2213
10.9877
10.7432
10.488
10.2221
14.839
14.8388
14.8384
14.8377
14.8368
14.8356
14.8341
14.8324
14.8304
14.828
14.8254
14.8224
14.819
14.8153
14.8113
14.8068
14.8019
14.7966
14.7907
14.7844
14.7775
14.77
14.7618
14.753
14.7434
14.7331
14.7218
14.7097
14.6965
14.6823
14.667
14.6503
14.6324
14.613
14.5921
14.5695
14.5452
14.5189
14.4906
14.46
14.4271
14.3916
14.3534
14.3123
14.2679
14.2203
14.169
14.1138
14.0546
13.9909
13.9226
13.8493
13.7707
13.6864
13.5962
13.4997
13.3966
13.2864
13.1687
13.0433
12.9098
12.7677
12.6168
12.4566
12.2868
12.1072
11.9174
11.7173
11.5065
11.285
11.0526
10.8093
10.5551
10.2899
14.8406
14.8404
14.84
14.8394
14.8385
14.8373
14.8359
14.8342
14.8323
14.83
14.8275
14.8246
14.8214
14.8178
14.8139
14.8096
14.8049
14.7998
14.7942
14.7881
14.7815
14.7742
14.7664
14.7579
14.7487
14.7387
14.7279
14.7162
14.7036
14.6899
14.6751
14.6591
14.6418
14.6232
14.603
14.5812
14.5577
14.5324
14.505
14.4755
14.4437
14.4094
14.3725
14.3327
14.2898
14.2436
14.1939
14.1404
14.0829
14.0211
13.9546
13.8833
13.8068
13.7247
13.6367
13.5425
13.4417
13.3338
13.2187
13.0957
12.9646
12.825
12.6765
12.5187
12.3513
12.1739
11.9863
11.7881
11.5793
11.3595
11.1287
10.8868
10.6337
10.3695
14.8424
14.8422
14.8418
14.8412
14.8403
14.8392
14.8379
14.8363
14.8344
14.8323
14.8298
14.8271
14.824
14.8207
14.8169
14.8128
14.8083
14.8034
14.7981
14.7923
14.7859
14.779
14.7716
14.7634
14.7546
14.7451
14.7348
14.7236
14.7115
14.6984
14.6843
14.669
14.6524
14.6346
14.6153
14.5944
14.5719
14.5476
14.5213
14.493
14.4625
14.4295
14.394
14.3557
14.3144
14.2699
14.222
14.1704
14.1149
14.0551
13.9909
13.9218
13.8477
13.768
13.6826
13.591
13.4928
13.3878
13.2754
13.1553
13.027
12.8903
12.7446
12.5895
12.4248
12.2501
12.0649
11.8692
11.6626
11.4448
11.2159
10.9756
10.724
10.461
14.8443
14.8441
14.8438
14.8432
14.8424
14.8414
14.8401
14.8386
14.8368
14.8348
14.8325
14.8299
14.827
14.8238
14.8202
14.8163
14.8121
14.8074
14.8024
14.7969
14.7909
14.7843
14.7772
14.7696
14.7612
14.7522
14.7424
14.7318
14.7203
14.7079
14.6944
14.6799
14.6642
14.6472
14.6288
14.609
14.5876
14.5644
14.5394
14.5124
14.4833
14.4518
14.4179
14.3813
14.3417
14.2992
14.2532
14.2037
14.1504
14.093
14.0312
13.9647
13.8932
13.8163
13.7337
13.6451
13.55
13.448
13.3388
13.2218
13.0968
12.9633
12.8208
12.669
12.5074
12.3356
12.1534
11.9604
11.7564
11.5411
11.3143
11.076
10.826
10.5645
14.8464
14.8463
14.8459
14.8454
14.8446
14.8437
14.8425
14.8411
14.8394
14.8375
14.8353
14.8329
14.8302