/*--------------------------------*- C++ -*----------------------------------*\
  =========                 |
  \\      /  F ield         | OpenFOAM: The Open Source CFD Toolbox
   \\    /   O peration     | Website:  https://openfoam.org
    \\  /    A nd           | Version:  13
     \\/     M anipulation  |
\*---------------------------------------------------------------------------*/
FoamFile
{
    format      ascii;
    class       volScalarField;
    location    "0";
    object      k;
}
// * * * * * * * * * * * * * * * * * * * * * * * * * * * * * * * * * * * * * //

dimensions      [0 2 -2 0 0 0 0];

internalField   uniform 0.63;

boundaryField
{
    inlet
    {
        type            fixedValue;
        value           nonuniform List<scalar> 0();
    }
    outlet
    {
        type            inletOutlet;
        inletValue      nonuniform List<scalar> 0();
        value           nonuniform List<scalar> 0();
    }
    sides
    {
        type            slip;
    }
    topBottom
    {
        type            slip;
    }
    bajaSurface
    {
        type            kLowReWallFunction;
        value           uniform 0.63;
    }
    procBoundary0to1
    {
        type            processor;
        value           uniform 0.63;
    }
    procBoundary0to3
    {
        type            processor;
        value           uniform 0.63;
    }
    procBoundary0to4
    {
        type            processor;
        value           uniform 0.63;
    }
    procBoundary0to5
    {
        type            processor;
        value           uniform 0.63;
    }
}


// ************************************************************************* //
