/*--------------------------------*- C++ -*----------------------------------*\
  =========                 |
  \\      /  F ield         | OpenFOAM: The Open Source CFD Toolbox
   \\    /   O peration     | Website:  https://openfoam.org
    \\  /    A nd           | Version:  13
     \\/     M anipulation  |
\*---------------------------------------------------------------------------*/
FoamFile
{
    format      ascii;
    class       volVectorField;
    location    "0";
    object      U;
}
// * * * * * * * * * * * * * * * * * * * * * * * * * * * * * * * * * * * * * //

dimensions      [0 1 -1 0 0 0 0];

internalField   uniform (13 0 0);

boundaryField
{
    inlet
    {
        type            fixedValue;
        value           nonuniform List<vector> 0();
    }
    outlet
    {
        type            inletOutlet;
        inletValue      nonuniform List<vector> 0();
        value           nonuniform List<vector> 0();
    }
    sides
    {
        type            slip;
    }
    topBottom
    {
        type            slip;
    }
    bajaSurface
    {
        type            noSlip;
    }
    procBoundary0to1
    {
        type            processor;
        value           uniform (13 0 0);
    }
    procBoundary0to3
    {
        type            processor;
        value           uniform (13 0 0);
    }
    procBoundary0to4
    {
        type            processor;
        value           uniform (13 0 0);
    }
    procBoundary0to5
    {
        type            processor;
        value           uniform (13 0 0);
    }
}


// ************************************************************************* //
