/*--------------------------------*- C++ -*----------------------------------*\
  =========                 |
  \\      /  F ield         | OpenFOAM: The Open Source CFD Toolbox
   \\    /   O peration     | Website:  https://openfoam.org
    \\  /    A nd           | Version:  13
     \\/     M anipulation  |
\*---------------------------------------------------------------------------*/
FoamFile
{
    format      ascii;
    class       volScalarField;
    location    "900";
    object      k;
}
// * * * * * * * * * * * * * * * * * * * * * * * * * * * * * * * * * * * * * //

dimensions      [0 2 -2 0 0 0 0];

internalField   nonuniform List<scalar> 
169916
(
0.364697
0.367547
0.371109
0.375327
0.379981
0.384687
0.38903
0.39268
0.395463
0.39734
0.398361
0.398455
0.397646
0.396278
0.368475
0.37263
0.377972
0.38449
0.391744
0.398918
0.405498
0.411044
0.415248
0.418035
0.419542
0.419941
0.41932
0.418363
0.372434
0.378281
0.386094
0.395874
0.406749
0.417556
0.427738
0.436557
0.443156
0.447335
0.449479
0.450148
0.45037
0.45092
0.451933
0.453348
0.455085
0.457049
0.459118
0.46113
0.46291
0.464263
0.370753
0.376325
0.384309
0.395363
0.409236
0.424829
0.430035
0.446314
0.464209
0.478698
0.48771
0.491947
0.504265
0.502861
0.504721
0.507445
0.509956
0.512088
0.513172
0.512961
0.510859
0.506463
0.499963
0.372727
0.379697
0.390242
0.40515
0.423889
0.432704
0.461634
0.498351
0.532417
0.556664
0.566405
0.564543
0.561869
0.563247
0.566258
0.567596
0.566113
0.557819
0.5443
0.52714
0.507952
0.488113
0.468662
0.373578
0.38176
0.394941
0.414454
0.425072
0.460984
0.507554
0.575764
0.614768
0.680535
0.703071
0.705418
0.692812
0.720201
0.802285
0.725978
0.659095
0.604978
0.562585
0.527857
0.499832
0.477411
0.459605
0.445515
0.372804
0.381458
0.395907
0.405929
0.44019
0.502223
0.551704
0.680777
0.803836
0.99429
1.104
1.35937
1.31761
1.00149
0.882044
0.782214
0.69861
0.640005
0.596972
0.564329
0.539508
0.520642
0.506571
0.495931
0.486459
0.370226
0.378251
0.39272
0.403261
0.445123
0.531178
0.624329
0.859168
1.0684
1.33237
1.34021
1.16421
0.909143
0.792331
0.672417
0.633986
0.60229
0.577648
0.560488
0.549206
0.542216
0.538334
0.536651
0.536453
0.366166
0.37244
0.384387
0.390596
0.421484
0.482809
0.537394
0.665998
0.720624
0.755272
0.748864
0.710448
0.668629
0.63638
0.61743
0.621459
0.611365
0.605219
0.602453
0.602068
0.603225
0.605443
0.6084
0.611879
0.615776
0.620119
0.361424
0.365454
0.373097
0.384952
0.39089
0.412428
0.44232
0.473845
0.498804
0.524137
0.545271
0.55831
0.566276
0.570234
0.556963
0.559478
0.561267
0.563239
0.565779
0.568955
0.57266
0.576858
0.581503
0.586557
0.592006
0.597888
0.356784
0.359039
0.363246
0.369783
0.37908
0.388887
0.393786
0.408977
0.425494
0.442653
0.45913
0.473121
0.476826
0.481416
0.484026
0.484831
0.484913
0.485013
0.485549
0.486761
0.488764
0.49158
0.495188
0.499559
0.504687
0.510612
0.352784
0.353969
0.356459
0.360435
0.366043
0.37303
0.381136
0.390033
0.399049
0.407246
0.414062
0.419349
0.423515
0.426008
0.427085
0.427329
0.427219
0.427082
0.42713
0.427509
0.428306
0.429574
0.431357
0.433698
0.436646
0.440253
0.349809
0.350443
0.352119
0.35494
0.358933
0.36403
0.370069
0.37658
0.382889
0.388248
0.39235
0.395193
0.396936
0.397788
0.398063
0.398034
0.397899
0.397804
0.397868
0.398172
0.39877
0.399697
0.400976
0.402625
0.404662
0.407105
0.348191
0.348568
0.349857
0.352088
0.355233
0.359177
0.363724
0.36853
0.373061
0.376785
0.37945
0.38107
0.38192
0.382262
0.382284
0.382127
0.381905
0.381799
0.38187
0.382182
0.382757
0.383601
0.384713
0.386084
0.387704
0.389536
0.347683
0.34803
0.349206
0.351198
0.353908
0.357179
0.360773
0.364376
0.367637
0.370261
0.37209
0.373108
0.373502
0.373358
0.372918
0.372438
0.372097
0.372029
0.372308
0.372789
0.373469
0.374334
0.375364
0.376535
0.377814
0.348087
0.348587
0.349858
0.351843
0.354392
0.357284
0.360274
0.363105
0.365574
0.367556
0.368951
0.369713
0.36989
0.369554
0.369097
0.368738
0.368597
0.368736
0.369128
0.369658
0.370312
0.371068
0.3719
0.372775
0.373656
0.349234
0.350019
0.351541
0.353694
0.356269
0.359005
0.361643
0.363989
0.365951
0.367506
0.368616
0.369247
0.369323
0.369002
0.368621
0.368349
0.36825
0.368334
0.368575
0.368925
0.369324
0.369742
0.370161
0.370547
0.370844
0.351934
0.353815
0.35626
0.358991
0.361707
0.364166
0.366245
0.367932
0.36926
0.370236
0.370842
0.370988
0.370752
0.3704
0.370065
0.369782
0.369537
0.369292
0.36901
0.368676
0.368303
0.367893
0.367452
0.366989
0.356099
0.358911
0.361887
0.364677
0.367069
0.369012
0.370561
0.371781
0.372702
0.373317
0.373526
0.373285
0.372793
0.372176
0.371485
0.370724
0.369883
0.368958
0.367968
0.366958
0.365965
0.365001
0.364086
0.357982
0.361118
0.364343
0.367248
0.369639
0.371524
0.373003
0.374166
0.375059
0.375675
0.375874
0.375523
0.374784
0.373819
0.372723
0.371531
0.370257
0.368911
0.367529
0.366163
0.364856
0.363622
0.362482
0.362346
0.365727
0.368714
0.371121
0.372985
0.374433
0.37557
0.376452
0.377075
0.377273
0.376864
0.375997
0.37486
0.373569
0.372178
0.370707
0.369174
0.367618
0.366095
0.364647
0.363292
0.362051
0.362341
0.365716
0.368696
0.371097
0.372956
0.374399
0.375531
0.376407
0.377023
0.377207
0.376784
0.375906
0.374757
0.373458
0.372058
0.370581
0.369043
0.367484
0.36596
0.364511
0.363156
0.361916
0.361111
0.364324
0.367214
0.36959
0.371459
0.372922
0.374068
0.374939
0.375528
0.375671
0.375267
0.374481
0.373475
0.37234
0.371115
0.369815
0.36845
0.367053
0.365678
0.364365
0.36313
0.361991
0.360981
0.358909
0.361874
0.364648
0.367023
0.368948
0.370476
0.371671
0.372562
0.37314
0.373263
0.372939
0.372367
0.371675
0.370913
0.370089
0.369196
0.368229
0.367208
0.366177
0.36517
0.364201
0.363287
0.362458
0.356264
0.358987
0.36169
0.364132
0.36619
0.367851
0.369147
0.370088
0.370652
0.370709
0.370387
0.369948
0.369526
0.369157
0.36883
0.368512
0.368169
0.367787
0.367377
0.366943
0.366487
0.366018
0.365561
0.353701
0.356271
0.358998
0.361621
0.363943
0.365871
0.367384
0.368447
0.369028
0.369009
0.368603
0.36814
0.367785
0.367604
0.367608
0.367777
0.368066
0.368433
0.368827
0.369226
0.369589
0.36987
0.370054
0.354394
0.357281
0.360257
0.363064
0.365497
0.367434
0.368781
0.369496
0.369587
0.369177
0.368649
0.368218
0.368001
0.368063
0.368416
0.368908
0.369526
0.370247
0.371046
0.371892
0.372746
0.373595
0.374405
0.353902
0.357166
0.360745
0.364327
0.367561
0.370152
0.371954
0.372955
0.373338
0.373186
0.372734
0.372234
0.371867
0.371764
0.372008
0.372459
0.373109
0.373945
0.374947
0.376091
0.377348
0.378676
0.380103
0.35521
0.359142
0.363665
0.368463
0.372987
0.376708
0.379397
0.381067
0.381983
0.382393
0.382479
0.382384
0.382237
0.382159
0.382247
0.382567
0.383145
0.383987
0.385095
0.386463
0.388084
0.389936
0.391922
0.358891
0.36397
0.369953
0.37659
0.382991
0.388418
0.392609
0.395586
0.397489
0.398508
0.398937
0.399046
0.399037
0.39906
0.399233
0.399642
0.400344
0.401376
0.402764
0.404537
0.40672
0.409338
0.412425
0.398961
0.407175
0.414084
0.419571
0.424018
0.426836
0.428265
0.428856
0.429077
0.429255
0.429614
0.43031
0.431437
0.433058
0.435221
0.437976
0.441379
0.445493
0.450399
0.413456
0.425959
0.437026
0.445863
0.475722
0.480279
0.483066
0.484226
0.484739
0.485275
0.486219
0.487798
0.490121
0.493214
0.49706
0.501635
0.506931
0.512982
0.519884
0.482452
0.500831
0.514532
0.521559
0.523648
0.552361
0.554194
0.555614
0.557411
0.5597
0.562404
0.56555
0.569179
0.573289
0.577754
0.582576
0.587798
0.593529
0.5834
0.614167
0.607318
0.603943
0.598129
0.617778
0.607662
0.601197
0.597783
0.596473
0.596464
0.597288
0.598673
0.600435
0.602503
0.604918
0.607849
0.7691
0.829645
0.738626
0.670001
0.67676
0.638766
0.608157
0.583191
0.56476
0.552025
0.543563
0.538182
0.534991
0.533336
0.532728
0.532891
1.50507
1.1867
1.01214
0.799052
0.709274
0.647644
0.602939
0.569656
0.544183
0.5246
0.509643
0.498488
0.490233
0.482553
0.475846
0.798101
0.721835
0.654243
0.599771
0.557526
0.523463
0.496064
0.474189
0.456813
0.443096
0.432323
0.423676
0.416642
0.365032
0.368044
0.371819
0.376241
0.380963
0.385569
0.389681
0.393043
0.395561
0.397267
0.398247
0.398618
0.398326
0.397635
0.369133
0.37368
0.379586
0.386586
0.393877
0.400937
0.407238
0.412334
0.416031
0.418409
0.41971
0.420284
0.420549
0.420512
0.373665
0.380403
0.389504
0.400247
0.411402
0.422806
0.433074
0.441008
0.446202
0.449033
0.450326
0.45117
0.451834
0.452408
0.452965
0.453519
0.454101
0.454772
0.455618
0.456457
0.45724
0.457927
0.371945
0.378505
0.388337
0.401912
0.418325
0.423884
0.443035
0.463757
0.479953
0.489026
0.491596
0.4898
0.487631
0.489974
0.490218
0.490642
0.490827
0.491068
0.491133
0.490614
0.489446
0.487681
0.485457
0.374549
0.383304
0.397024
0.416856
0.426606
0.462605
0.5079
0.546893
0.564379
0.557385
0.539834
0.522744
0.510818
0.503581
0.512137
0.510704
0.509212
0.508218
0.506009
0.501017
0.494707
0.48746
0.47969
0.376077
0.387011
0.404679
0.415516
0.459605
0.531557
0.596939
0.711193
0.772228
0.766305
0.75836
0.679784
0.630112
0.678303
0.654975
0.720626
0.678362
0.64168
0.610506
0.583624
0.561247
0.54379
0.530805
0.52156
0.375855
0.387357
0.39527
0.427384
0.498704
0.577757
0.853811
1.14684
1.25021
1.07296
0.942428
0.799353
0.754024
0.725688
0.709853
0.701898
0.699268
0.700045
0.702792
0.706329
0.373399
0.384525
0.392642
0.428882
0.487568
0.663608
1.05126
0.863585
0.790699
0.862233
0.861885
0.86954
0.879561
0.890244
0.900351
0.909124
0.91612
0.920402
0.368819
0.378212
0.395371
0.408296
0.47054
0.575223
0.774776
1.11461
0.957096
0.837094
0.880608
0.882644
0.895
0.909261
0.92025
0.926404
0.929399
0.930234
0.929608
0.928192
0.926612
0.363379
0.36915
0.379684
0.386919
0.412658
0.455891
0.498293
0.547016
0.567037
0.562711
0.568186
0.593366
0.598448
0.617282
0.637033
0.679196
0.697274
0.716512
0.735667
0.753511
0.769412
0.783219
0.795046
0.805187
0.814116
0.822374
0.358124
0.361192
0.366873
0.375357
0.380669
0.395374
0.413123
0.430857
0.449241
0.467844
0.485549
0.502177
0.516074
0.525
0.525127
0.527605
0.531212
0.537331
0.546064
0.557154
0.569642
0.583046
0.596949
0.611054
0.625275
0.639751
0.353679
0.355207
0.358215
0.362926
0.369251
0.376771
0.385633
0.396469
0.40886
0.420228
0.429244
0.435703
0.439289
0.440338
0.440017
0.438993
0.438003
0.437416
0.437656
0.438851
0.44112
0.444579
0.449317
0.455337
0.462686
0.47142
0.350465
0.351236
0.353103
0.356186
0.360465
0.36595
0.372548
0.380233
0.388016
0.394475
0.399098
0.40198
0.40353
0.403904
0.403414
0.402441
0.40151
0.400889
0.400765
0.40106
0.401853
0.403189
0.405116
0.407686
0.41095
0.414961
0.348778
0.349242
0.350643
0.353019
0.356364
0.360635
0.365681
0.371115
0.376234
0.380368
0.383095
0.384658
0.385358
0.385315
0.38472
0.383966
0.38332
0.382969
0.383057
0.383583
0.384437
0.385632
0.387175
0.389074
0.391329
0.393881
0.348449
0.348913
0.35023
0.352395
0.355324
0.358899
0.362846
0.366832
0.370477
0.373461
0.375463
0.376486
0.376678
0.376175
0.375453
0.374793
0.374387
0.374361
0.374784
0.375564
0.376586
0.377833
0.379286
0.380919
0.38271
0.349208
0.349906
0.35141
0.353666
0.356518
0.359739
0.363072
0.366211
0.368968
0.371203
0.372764
0.37357
0.373552
0.37308
0.372603
0.372346
0.372424
0.372877
0.373619
0.374541
0.375631
0.376862
0.378198
0.37959
0.381003
0.350812
0.35189
0.353772
0.356335
0.359339
0.362482
0.365468
0.36807
0.370234
0.37201
0.373348
0.374127
0.374172
0.373851
0.373574
0.373517
0.373734
0.374202
0.374856
0.375581
0.376363
0.377186
0.37801
0.378788
0.379494
0.354234
0.356651
0.359699
0.363032
0.366268
0.369127
0.371483
0.373388
0.374946
0.37617
0.376987
0.377217
0.377061
0.376841
0.376693
0.376636
0.376626
0.376596
0.376481
0.376278
0.376014
0.375695
0.375318
0.374925
0.359594
0.36322
0.366992
0.370433
0.37329
0.375551
0.37735
0.378811
0.379981
0.380809
0.381088
0.380838
0.380305
0.37964
0.378885
0.37804
0.377085
0.376001
0.374832
0.373653
0.372502
0.371388
0.370343
0.361882
0.366053
0.370279
0.373982
0.376918
0.379149
0.380886
0.382275
0.38338
0.384162
0.384341
0.38381
0.382792
0.38152
0.380108
0.378598
0.376999
0.375314
0.373598
0.37193
0.370345
0.368847
0.367468
0.367657
0.372168
0.376055
0.37907
0.38131
0.383012
0.384348
0.385418
0.386193
0.386342
0.385691
0.384451
0.382903
0.381203
0.379408
0.377534
0.375592
0.373642
0.371758
0.369971
0.368288
0.366734
0.367649
0.372151
0.376028
0.379033
0.381267
0.382964
0.384296
0.385359
0.386127
0.386263
0.385601
0.384351
0.382792
0.381082
0.379278
0.377396
0.375448
0.373495
0.371608
0.369819
0.368132
0.366576
0.366044
0.370252
0.37393
0.376841
0.379051
0.380767
0.382131
0.383204
0.383947
0.384059
0.383468
0.382396
0.381072
0.379615
0.378066
0.376437
0.374729
0.372998
0.371317
0.369725
0.368224
0.366848
0.365638
0.363219
0.366977
0.370396
0.37323
0.375469
0.377245
0.378676
0.379807
0.380578
0.380749
0.380396
0.379762
0.378998
0.37815
0.377223
0.3762
0.375065
0.373858
0.372652
0.371488
0.370369
0.36933
0.368424
0.359709
0.363033
0.366256
0.369097
0.371433
0.373307
0.374826
0.37601
0.376776
0.376903
0.376645
0.376319
0.376058
0.375883
0.375762
0.375634
0.375438
0.375174
0.374867
0.374521
0.374132
0.373735
0.37338
0.356351
0.35935
0.362485
0.365457
0.368031
0.370155
0.371875
0.373152
0.37387
0.373808
0.373393
0.373022
0.372863
0.372972
0.373341
0.373919
0.374598
0.375339
0.376126
0.376924
0.37768
0.378371
0.378952
0.356534
0.359753
0.363076
0.366191
0.368905
0.371086
0.372588
0.373335
0.373211
0.372641
0.372064
0.371701
0.371665
0.37201
0.372698
0.373565
0.374601
0.375781
0.377067
0.378416
0.379792
0.381149
0.382417
0.355329
0.358899
0.362833
0.366806
0.370429
0.373375
0.375348
0.376353
0.376531
0.376005
0.37524
0.37452
0.374036
0.37392
0.374247
0.374967
0.375927
0.37711
0.378497
0.380063
0.381794
0.383686
0.385728
0.356344
0.360599
0.365628
0.371136
0.376314
0.380475
0.383241
0.38486
0.385621
0.385698
0.38517
0.38445
0.383812
0.383449
0.383497
0.383964
0.384762
0.385904
0.387404
0.389274
0.391524
0.394114
0.397056
0.360425
0.365878
0.372574
0.380242
0.388211
0.394717
0.399405
0.402359
0.404052
0.404599
0.404371
0.403725
0.403092
0.402764
0.402771
0.403233
0.404221
0.405793
0.408012
0.410945
0.414665
0.419237
0.424665
0.408535
0.419961
0.429207
0.436201
0.440423
0.442021
0.442285
0.441836
0.441468
0.441579
0.442583
0.444629
0.447824
0.452239
0.457931
0.464965
0.473393
0.483282
0.494751
0.426289
0.442506
0.456829
0.468829
0.477961
0.482774
0.520171
0.523031
0.527179
0.533609
0.54245
0.553587
0.566279
0.579918
0.594097
0.608482
0.622959
0.637636
0.652845
0.500726
0.515105
0.529496
0.545098
0.558679
0.5658
0.666275
0.684271
0.702234
0.719389
0.734994
0.748748
0.760722
0.771142
0.780297
0.788563
0.796399
0.804373
0.96549
1.04151
0.86758
0.749862
0.782795
0.761893
0.902845
0.894431
0.89765
0.90423
0.909863
0.91253
0.912858
0.911698
0.909673
0.907309
0.905112
0.903625
1.11197
0.97919
0.863046
0.823349
0.897638
0.886141
0.883588
0.885054
0.888823
0.893325
0.897657
0.901411
0.904487
0.906234
0.907425
1.17794
1.03922
0.889443
0.831914
0.781641
0.746754
0.726468
0.715724
0.711068
0.710095
0.711467
0.714222
0.717581
0.721174
0.839894
0.703022
0.666565
0.634416
0.605627
0.579392
0.557857
0.5413
0.52915
0.52061
0.514917
0.511418
0.509671
0.363119
0.365582
0.368845
0.372887
0.377418
0.38203
0.386311
0.38995
0.392808
0.394914
0.396381
0.397332
0.397885
0.398304
0.398484
0.366464
0.370234
0.375403
0.381916
0.389033
0.396223
0.402866
0.408433
0.412616
0.415474
0.417293
0.418459
0.419566
0.420462
0.421109
0.370134
0.37577
0.383835
0.393965
0.405106
0.417212
0.428286
0.436968
0.44265
0.445598
0.44683
0.447725
0.448705
0.44986
0.451214
0.452237
0.453007
0.453613
0.4541
0.454506
0.454856
0.455173
0.455475
0.373999
0.382256
0.394348
0.410181
0.416648
0.438165
0.4607
0.477732
0.486875
0.487938
0.483567
0.4791
0.476575
0.476383
0.480402
0.481575
0.482188
0.482374
0.482027
0.481388
0.480554
0.479568
0.478465
0.377684
0.389229
0.406515
0.416342
0.456739
0.510725
0.548437
0.566604
0.561151
0.543572
0.522849
0.504878
0.491468
0.487763
0.48832
0.509824
0.509496
0.507502
0.504056
0.49963
0.494681
0.489491
0.48425
0.380381
0.394932
0.404162
0.444437
0.531229
0.62588
0.737104
0.909262
1.02334
1.15391
1.19682
1.07837
0.843117
0.699672
0.7122
0.667717
0.669716
0.636757
0.608817
0.584491
0.564223
0.547252
0.53315
0.521522
0.381103
0.397482
0.410877
0.470658
0.567893
1.00481
1.04996
0.938269
0.819511
0.773335
0.740456
0.716
0.697963
0.684619
0.674469
0.666337
0.658513
0.378755
0.394431
0.409106
0.476103
0.631992
0.872777
1.17572
1.34912
1.14943
1.05571
0.998506
0.958563
0.927018
0.900428
0.876426
0.853518
0.373237
0.38571
0.39628
0.451333
0.561127
0.978156
1.29628
1.38291
1.34887
1.31273
1.274
1.2345
1.19758
1.16294
1.1304
1.10004
1.07259
1.04814
0.366489
0.375447
0.390757
0.403876
0.455261
0.540191
0.57469
0.646183
0.693642
0.847621
0.807707
0.773395
0.77427
0.870902
0.977344
0.983807
1.02814
1.07109
1.09937
1.11092
1.11025
1.10119
1.08756
1.07207
1.05775
1.04529
0.360352
0.364675
0.372664
0.384169
0.393023
0.413427
0.430557
0.448211
0.476063
0.505588
0.528325
0.564234
0.611821
0.657451
0.694757
0.707903
0.728216
0.753042
0.779408
0.804971
0.827808
0.846103
0.860299
0.871058
0.879578
0.887309
0.355274
0.357358
0.361196
0.366991
0.374118
0.382147
0.391491
0.398463
0.420135
0.445353
0.463246
0.47263
0.469731
0.464561
0.460863
0.458016
0.456669
0.459475
0.46599
0.475114
0.486807
0.50091
0.51683
0.534063
0.552615
0.57241
0.351756
0.352783
0.354994
0.358539
0.363259
0.369283
0.376464
0.381114
0.393771
0.407244
0.416816
0.421686
0.421288
0.4191
0.416517
0.414566
0.412944
0.411469
0.411484
0.413065
0.416129
0.420285
0.425549
0.431978
0.439624
0.350044
0.350713
0.352371
0.355068
0.358832
0.363664
0.369705
0.376806
0.383925
0.390003
0.393851
0.395574
0.395953
0.395167
0.393932
0.392811
0.392141
0.391909
0.392365
0.393737
0.395743
0.398339
0.401547
0.405358
0.40967
0.350147
0.350896
0.352558
0.355138
0.358585
0.362716
0.367493
0.372403
0.376871
0.380755
0.38348
0.384768
0.384817
0.384251
0.383568
0.383115
0.383119
0.38368
0.384829
0.38646
0.388467
0.390831
0.393512
0.396405
0.399513
0.35166
0.352794
0.354836
0.357724
0.361283
0.365224
0.369279
0.372911
0.376034
0.378846
0.380925
0.381955
0.381911
0.3816
0.381535
0.38196
0.382964
0.384436
0.386235
0.38827
0.390518
0.392945
0.395495
0.398092
0.400704
0.353925
0.355689
0.358417
0.361955
0.365962
0.369987
0.373642
0.376627
0.379093
0.381266
0.383041
0.384087
0.384127
0.384029
0.384284
0.384967
0.38606
0.387417
0.388951
0.390618
0.392439
0.39438
0.396329
0.398151
0.399787
0.35902
0.362669
0.36713
0.371852
0.376185
0.379768
0.382517
0.384716
0.3866
0.388205
0.389288
0.389492
0.3894
0.389426
0.389652
0.390045
0.39051
0.39092
0.391176
0.391341
0.391458
0.391499
0.391405
0.391286
0.366864
0.372489
0.37819
0.383129
0.386933
0.389644
0.391609
0.393167
0.394463
0.39522
0.395146
0.394478
0.3936
0.392659
0.391659
0.390575
0.389344
0.387914
0.386416
0.384972
0.383569
0.382167
0.380869
0.370233
0.376959
0.383639
0.389162
0.393124
0.395661
0.397342
0.398562
0.399431
0.399789
0.39929
0.39784
0.395914
0.393834
0.391691
0.389499
0.387221
0.384843
0.3825
0.380286
0.378175
0.376135
0.374243
0.379475
0.386814
0.392776
0.396918
0.399423
0.400978
0.401963
0.40275
0.40305
0.402417
0.400661
0.398302
0.395743
0.393165
0.390584
0.387954
0.385267
0.382693
0.38026
0.377919
0.375627
0.373463
0.379459
0.386778
0.392719
0.396846
0.399348
0.400902
0.401886
0.402666
0.402954
0.40231
0.400543
0.398172
0.395598
0.393005
0.390409
0.387766
0.385068
0.382489
0.380053
0.377707
0.375413
0.373249
0.376942
0.38358
0.389046
0.392954
0.395453
0.397102
0.398271
0.399073
0.399352
0.398784
0.397273
0.395284
0.393143
0.390943
0.388703
0.386387
0.38398
0.381613
0.379381
0.377258
0.375212
0.37332
0.371659
0.372491
0.378162
0.383057
0.386815
0.389493
0.391427
0.392945
0.394173
0.394786
0.394573
0.393769
0.39275
0.391664
0.390525
0.389319
0.387989
0.386485
0.38493
0.383442
0.38201
0.380596
0.379296
0.378203
0.367149
0.371862
0.376178
0.379737
0.382468
0.384637
0.386513
0.388088
0.389061
0.389136
0.388905
0.388769
0.38881
0.389009
0.389292
0.389541
0.389658
0.389716
0.389749
0.389729
0.389602
0.389465
0.38937
0.361984
0.365984
0.369999
0.37364
0.376593
0.379005
0.381101
0.382793
0.383764
0.383692
0.383496
0.383636
0.384181
0.38512
0.386396
0.387853
0.389446
0.391205
0.393103
0.395025
0.396823
0.39844
0.399794
0.36132
0.365269
0.369321
0.372933
0.376002
0.378728
0.380714
0.381661
0.381512
0.381081
0.380877
0.381142
0.38194
0.383314
0.385015
0.386951
0.389104
0.391445
0.393921
0.396466
0.399043
0.401504
0.403589
0.358611
0.362742
0.367514
0.372455
0.376923
0.380745
0.383397
0.384644
0.384657
0.383997
0.383158
0.382512
0.382286
0.382616
0.383538
0.385037
0.386907
0.389117
0.391653
0.394415
0.397414
0.400651
0.404033
0.358826
0.363629
0.369752
0.376935
0.384178
0.390282
0.39416
0.39591
0.396326
0.395496
0.394131
0.392819
0.391936
0.391581
0.391966
0.393314
0.395261
0.397825
0.401039
0.404935
0.409468
0.414458
0.420224
0.363244
0.369238
0.377258
0.387456
0.39021
0.397384
0.403334
0.420856
0.420951
0.419088
0.416826
0.41527
0.413927
0.413185
0.414081
0.416619
0.420431
0.425476
0.431772
0.439399
0.448463
0.458792
0.470133
0.409916
0.426837
0.438768
0.474269
0.473374
0.469557
0.466392
0.463671
0.465125
0.470611
0.478863
0.489792
0.503424
0.518473
0.534894
0.552711
0.571749
0.592123
0.614143
0.44878
0.477539
0.499657
0.522751
0.541934
0.551627
0.6611
0.673664
0.693875
0.719012
0.746211
0.772808
0.797285
0.81851
0.835828
0.849078
0.859622
0.868974
0.878672
0.520237
0.557907
0.567564
0.650917
0.716208
0.760362
1.03545
1.05496
1.07624
1.08852
1.08983
1.08276
1.0708
1.0565
1.04163
1.02779
1.01609
1.00722
1.16778
1.17697
1.09017
1.09891
1.33536
1.3132
1.44581
1.37848
1.31955
1.26558
1.21838
1.1771
1.14028
1.10787
1.07921
1.05396
1.0322
1.35272
1.92882
1.54897
1.30198
1.17938
1.10044
1.0422
0.995909
0.957638
0.924702
0.895274
0.868168
0.842618
0.894556
0.978641
0.875808
0.826006
0.790305
0.762736
0.741751
0.72573
0.713101
0.701409
0.6903
0.679832
0.67022
0.862957
0.777787
0.656394
0.626554
0.601258
0.57898
0.560395
0.544824
0.531909
0.521291
0.512677
0.505861
0.50075
0.363556
0.366218
0.369723
0.373896
0.378396
0.382775
0.386645
0.389752
0.392079
0.393769
0.394993
0.395921
0.396762
0.397612
0.398304
0.367266
0.371507
0.3772
0.383867
0.391091
0.398105
0.404239
0.408949
0.412093
0.413978
0.415086
0.416012
0.41726
0.418602
0.419822
0.371548
0.378161
0.386966
0.397473
0.410239
0.422645
0.432699
0.43996
0.442932
0.442617
0.441528
0.442131
0.443491
0.445248
0.447044
0.448694
0.449901
0.450798
0.451493
0.452044
0.452495
0.452885
0.453251
0.376342
0.386228
0.399469
0.4058
0.42822
0.454117
0.474095
0.503393
0.496682
0.486474
0.475226
0.470387
0.46487
0.464347
0.465815
0.474071
0.477078
0.478833
0.479764
0.480097
0.480017
0.479735
0.479382
0.381221
0.39514
0.402889
0.435623
0.493394
0.541997
0.572424
0.578244
0.566132
0.545481
0.523098
0.505164
0.490947
0.488221
0.489426
0.493675
0.528533
0.528123
0.525289
0.521117
0.51644
0.511702
0.507122
0.385194
0.403684
0.418606
0.481926
0.591543
0.740904
1.01894
1.09778
1.08896
1.07123
1.04929
1.06044
1.05593
0.84429
0.769341
0.709067
0.693665
0.654528
0.62371
0.598037
0.576691
0.55905
0.544501
0.532554
0.385397
0.394115
0.434058
0.500827
0.704961
0.925509
0.838482
0.788338
0.726786
0.692497
0.663257
0.638798
0.618767
0.602393
0.589047
0.578191
0.382922
0.391936
0.434481
0.520979
0.520285
1.14457
1.23477
1.0416
0.936122
0.867936
0.818857
0.781678
0.752474
0.728918
0.709663
0.377025
0.38418
0.417207
0.520793
0.670496
0.634196
1.1841
1.37307
1.24745
1.11328
1.05365
1.02282
0.984404
0.943704
0.90295
0.865293
0.83074
0.370408
0.381252
0.390765
0.432072
0.505709
0.603468
0.675008
0.71124
0.756725
0.763294
0.932783
1.26411
1.29018
1.27124
1.09159
1.07085
1.19596
1.22529
1.21498
1.17592
1.13055
1.08692
1.04783
1.0141
0.985476
0.962921
0.362891
0.368851
0.378657
0.387201
0.411255
0.432943
0.44657
0.472116
0.534627
0.606515
0.810184
1.02835
1.09614
1.0954
1.05863
0.956078
0.979878
1.00389
1.02227
1.03227
1.03277
1.02781
1.01776
1.00279
0.986829
0.973042
0.357307
0.36006
0.364904
0.371515
0.378986
0.386719
0.392955
0.414934
0.463293
0.525617
0.560878
0.578734
0.636386
0.621578
0.609697
0.605843
0.607674
0.613396
0.622407
0.634139
0.647797
0.663008
0.679537
0.697773
0.717022
0.735393
0.353633
0.355033
0.357716
0.361724
0.366784
0.372671
0.377225
0.392546
0.417519
0.442878
0.452617
0.450334
0.455802
0.450703
0.44691
0.446296
0.448924
0.454647
0.463228
0.474458
0.484462
0.492815
0.500347
0.507793
0.515683
0.352197
0.353231
0.355334
0.358521
0.362773
0.36778
0.371116
0.381451
0.394472
0.406433
0.415203
0.417537
0.416932
0.416955
0.417061
0.417026
0.418146
0.42046
0.423917
0.428431
0.43391
0.440272
0.44734
0.454237
0.460111
0.353092
0.354344
0.356632
0.359953
0.364199
0.36879
0.370897
0.377874
0.385207
0.392052
0.398604
0.401887
0.405873
0.405733
0.405614
0.405605
0.4065
0.408424
0.411444
0.415277
0.420102
0.425686
0.431534
0.43698
0.44229
0.355522
0.357452
0.360492
0.364558
0.369277
0.374501
0.380056
0.384852
0.388187
0.389025
0.392353
0.394999
0.400268
0.40176
0.403109
0.405441
0.408745
0.412823
0.417607
0.422408
0.42735
0.432489
0.437864
0.443438
0.44909
0.358763
0.361727
0.366023
0.371389
0.377075
0.382709
0.38759
0.391065
0.393828
0.396686
0.399559
0.40132
0.401595
0.402895
0.405077
0.407853
0.410957
0.414555
0.418809
0.423836
0.429621
0.435727
0.441568
0.446635
0.450946
0.366475
0.372489
0.379591
0.386727
0.39312
0.3979
0.400954
0.403221
0.405366
0.407473
0.408909
0.408973
0.409058
0.409912
0.41161
0.413918
0.416528
0.419111
0.421343
0.423353
0.42526
0.426892
0.428048
0.379115
0.388668
0.397956
0.405479
0.41043
0.412721
0.413827
0.414443
0.415212
0.415461
0.414568
0.413036
0.411685
0.410548
0.409451
0.408294
0.40694
0.405336
0.403836
0.402569
0.401323
0.399981
0.384539
0.39651
0.407919
0.416243
0.420731
0.421619
0.421638
0.421262
0.421041
0.420578
0.418992
0.415852
0.412399
0.409104
0.40594
0.402833
0.399652
0.396408
0.393422
0.390691
0.387943
0.385182
0.401011
0.413928
0.42299
0.427473
0.42789
0.427393
0.427311
0.42789
0.42812
0.426583
0.423157
0.419254
0.41566
0.412363
0.409244
0.406075
0.40284
0.399926
0.397348
0.394677
0.391824
0.389067
0.400977
0.413852
0.422873
0.427339
0.427758
0.427245
0.427117
0.427631
0.427829
0.426266
0.422823
0.418895
0.415277
0.41197
0.408852
0.405692
0.402469
0.399573
0.397018
0.394372
0.391541
0.388806
0.396481
0.407776
0.415952
0.420313
0.421127
0.421109
0.420694
0.42041
0.419871
0.418227
0.415034
0.411511
0.408156
0.404943
0.401785
0.398547
0.395254
0.392226
0.389452
0.386664
0.383865
0.381296
0.388674
0.397882
0.405286
0.4101
0.41233
0.413417
0.413973
0.414617
0.41468
0.413602
0.411874
0.410298
0.408927
0.407615
0.40628
0.404786
0.403042
0.401404
0.399998
0.398618
0.39716
0.395922
0.395347
0.379629
0.386745
0.393107
0.397845
0.400895
0.403225
0.405316
0.407545
0.408825
0.40868
0.408519
0.409044
0.410331
0.412174
0.414297
0.416382
0.418151
0.41975
0.421334
0.42273
0.423759
0.42468
0.425524
0.371425
0.377085
0.382704
0.387578
0.391023
0.393727
0.396456
0.399177
0.400855
0.401069
0.402312
0.404347
0.406978
0.40991
0.413354
0.417486
0.42241
0.428155
0.434269
0.44017
0.445349
0.449766
0.453152
0.369337
0.374578
0.38016
0.384973
0.388249
0.388601
0.391048
0.393449
0.39993
0.401246
0.402477
0.404627
0.407533
0.411316
0.4158
0.420396
0.42526
0.430433
0.435932
0.441734
0.447659
0.452908
0.456046
0.364257
0.368867
0.371034
0.376811
0.382334
0.387528
0.392736
0.396117
0.405712
0.405332
0.404907
0.404541
0.404893
0.406296
0.408762
0.41218
0.416679
0.421783
0.427666
0.433291
0.438869
0.444283
0.44942
0.362791
0.367803
0.37052
0.378717
0.38819
0.396907
0.40395
0.406964
0.417152
0.416765
0.416547
0.4158
0.416294
0.418154
0.421403
0.426052
0.431787
0.438543
0.446321
0.454799
0.462572
0.469406
0.478394
0.366775
0.372733
0.37599
0.387404
0.40499
0.421866
0.431818
0.432765
0.455375
0.450532
0.447317
0.447233
0.450786
0.457961
0.468568
0.482409
0.494243
0.504299
0.513445
0.522489
0.531945
0.543089
0.556851
0.439462
0.46433
0.487176
0.487009
0.641194
0.625188
0.613057
0.607418
0.60773
0.612547
0.621293
0.633161
0.647161
0.662743
0.679584
0.698188
0.715431
0.734317
0.754994
0.497648
0.555146
0.711694
0.87094
0.884315
0.833236
0.77622
0.826003
0.870637
0.913092
0.945869
0.963986
0.974535
0.976491
0.970441
0.960257
0.94943
0.940169
0.933596
0.651231
1.00398
1.07288
1.17849
1.11492
1.03606
0.965344
1.17424
1.18734
1.17548
1.14297
1.10309
1.06269
1.02573
0.994018
0.967954
0.94304
0.911279
0.924474
0.937707
1.00268
1.23033
1.11913
1.45516
1.29157
1.30263
1.21242
1.09459
1.03781
1.01125
0.983759
0.95006
0.914026
0.878372
0.844634
0.813018
0.812138
1.43422
1.69862
1.18834
1.04433
0.952746
0.887446
0.838454
0.800289
0.769675
0.744651
0.724057
0.707151
0.695966
0.832863
0.860734
0.749311
0.71413
0.683971
0.658675
0.637951
0.621066
0.607252
0.596002
0.586982
0.580039
0.920969
0.801183
0.667643
0.633244
0.606014
0.583087
0.563885
0.547962
0.534828
0.52407
0.51539
0.50859
0.503575
0.363978
0.366773
0.370452
0.374758
0.379253
0.38344
0.386912
0.389522
0.391402
0.392768
0.393805
0.394701
0.395726
0.396886
0.397977
0.367993
0.372566
0.378736
0.385805
0.393143
0.399883
0.405316
0.408973
0.411122
0.412281
0.41291
0.413677
0.414973
0.416645
0.418338
0.372788
0.380124
0.390047
0.401693
0.414893
0.426484
0.435888
0.440361
0.440811
0.439081
0.436872
0.436989
0.438609
0.440928
0.443268
0.445623
0.447417
0.448852
0.45005
0.451098
0.452061
0.452989
0.453923
0.378417
0.389592
0.405459
0.413123
0.439014
0.46413
0.501778
0.496475
0.487585
0.477173
0.466283
0.456339
0.453494
0.453715
0.456152
0.465271
0.469137
0.473328
0.477141
0.479771
0.481773
0.48346
0.485021
0.384438
0.400121
0.410395
0.456003
0.51946
0.559098
0.575837
0.575187
0.558722
0.53795
0.517497
0.49868
0.487013
0.482439
0.484717
0.487719
0.52353
0.525528
0.52553
0.524203
0.522383
0.520573
0.519014
0.3889
0.39757
0.436153
0.533138
0.68598
0.837998
1.03671
1.02266
0.997409
0.97265
0.941119
0.903468
0.973926
0.894532
0.69148
0.683615
0.646624
0.638196
0.618323
0.601394
0.58694
0.574807
0.564721
0.556408
0.391033
0.402957
0.456006
0.581511
0.851139
0.761281
0.694775
0.664898
0.641962
0.622509
0.60605
0.592113
0.580266
0.570216
0.38853
0.401131