/*--------------------------------*- C++ -*----------------------------------*\
  =========                 |
  \\      /  F ield         | OpenFOAM: The Open Source CFD Toolbox
   \\    /   O peration     | Website:  https://openfoam.org
    \\  /    A nd           | Version:  13
     \\/     M anipulation  |
\*---------------------------------------------------------------------------*/
FoamFile
{
    format      ascii;
    class       volScalarField;
    location    "900";
    object      nut;
}
// * * * * * * * * * * * * * * * * * * * * * * * * * * * * * * * * * * * * * //

dimensions      [0 2 -1 0 0 0 0];

internalField   nonuniform List<scalar> 
169916
(
0.0121415
0.0108796
0.00991235
0.00926207
0.00896782
0.00906528
0.00960146
0.0106094
0.0120726
0.0139937
0.0164698
0.0181823
0.0181738
0.0181641
0.0101887
0.00891096
0.00792164
0.00724447
0.00699776
0.00730165
0.00786921
0.00878031
0.0100884
0.0118428
0.014065
0.0164846
0.0164791
0.0164714
0.00853351
0.00725398
0.00625674
0.00559694
0.00545491
0.00512083
0.0056875
0.00654499
0.00778483
0.0094121
0.0113285
0.0134766
0.013603
0.0133374
0.0128186
0.0124779
0.0121905
0.0119064
0.0116136
0.0113148
0.0110022
0.01057
0.00876229
0.00716333
0.00589165
0.00493803
0.00445627
0.00401324
0.00499246
0.00408058
0.00431767
0.00521751
0.00672598
0.00852152
0.00794271
0.00793292
0.00741335
0.00701228
0.00705983
0.00677124
0.00638561
0.00601735
0.00567772
0.0053705
0.00509666
0.00774124
0.00608608
0.00478845
0.00401262
0.00356233
0.00365721
0.00258916
0.00260097
0.00304867
0.00396239
0.00551747
0.00532506
0.00522785
0.00513983
0.00343515
0.00331092
0.00319765
0.00309129
0.00299666
0.00291622
0.00285095
0.00280096
0.00276581
0.0071367
0.00534379
0.00395315
0.00307667
0.00301424
0.00228864
0.002218
0.00192005
0.00190207
0.00228957
0.00264431
0.00219732
0.00217464
0.00220554
0.00209605
0.0021022
0.00211671
0.00214607
0.00219115
0.002247
0.0023132
0.00238894
0.00247343
0.0025657
0.00705114
0.00507707
0.00364298
0.00293878
0.0019582
0.00166233
0.00201719
0.00136121
0.0017372
0.00146612
0.0015009
0.00136936
0.00198713
0.00195787
0.00204841
0.00226428
0.00234848
0.00244668
0.00255614
0.00267425
0.00280052
0.00293425
0.00307521
0.00322151
0.00336746
0.00760112
0.00534009
0.00363021
0.00288355
0.00164479
0.00112995
0.000872317
0.000766366
0.000374494
0.000364907
0.00102108
0.00158409
0.00211882
0.00239272
0.00264343
0.00283221
0.00301697
0.00320302
0.00339295
0.00358787
0.003787
0.00398882
0.00419141
0.00439258
0.00896187
0.00630591
0.00424127
0.0044848
0.00200801
0.00142818
0.00205598
0.00079208
0.00154225
0.00194878
0.00220765
0.00161086
0.00305919
0.00360296
0.00403526
0.00385661
0.00408727
0.00431894
0.00455092
0.00478195
0.00501002
0.00523352
0.00545104
0.0056614
0.00586372
0.0060575
0.0113283
0.00821167
0.00568982
0.00430671
0.00428806
0.00294452
0.00287349
0.00278474
0.0025568
0.00206394
0.00204952
0.00239863
0.00272116
0.0031251
0.00414393
0.00482419
0.00521419
0.0055059
0.0057118
0.00586906
0.00602511
0.00616735
0.00629706
0.00641781
0.0065296
0.00662625
0.0147376
0.0109745
0.00814266
0.0063313
0.00505992
0.00520086
0.00586842
0.00377548
0.00319587
0.00288253
0.00284772
0.00301666
0.00414362
0.00498403
0.005871
0.00680534
0.00745261
0.0078018
0.00794569
0.00795536
0.00789018
0.00779807
0.00770579
0.00762079
0.0075389
0.00744984
0.0188129
0.0140013
0.010571
0.00838707
0.0069918
0.00616805
0.00539472
0.00496439
0.00480532
0.00507536
0.0055287
0.00614384
0.00663995
0.00786769
0.00944404
0.010815
0.0116695
0.0120067
0.0119429
0.0116197
0.011179
0.0107146
0.0102641
0.00983736
0.00943854
0.00906881
0.0192322
0.0165552
0.0124347
0.00984083
0.00819185
0.0070872
0.00632636
0.00595919
0.00597685
0.00649888
0.00747426
0.00878912
0.0103985
0.0123112
0.0140484
0.0151987
0.0157176
0.015714
0.0152974
0.0146248
0.0138532
0.0130886
0.0123749
0.011727
0.0111529
0.0106572
0.0191932
0.0182003
0.0136474
0.0108565
0.00911893
0.00800428
0.00732605
0.00704152
0.00723592
0.00799567
0.00947982
0.0116423
0.0139781
0.0160659
0.0176305
0.018505
0.0185452
0.0183894
0.0175166
0.0164568
0.0154113
0.0144732
0.0136701
0.0130019
0.0124587
0.0120301
0.0191815
0.0185749
0.014124
0.0114198
0.00976824
0.00878235
0.00829742
0.00826283
0.00871593
0.00971363
0.0115104
0.0142866
0.0175876
0.0188796
0.0189063
0.0189317
0.0189592
0.0189907
0.0189481
0.0176049
0.0164705
0.0155588
0.0148546
0.0143365
0.0139801
0.0191924
0.0177295
0.0138639
0.0115095
0.0101267
0.00940605
0.00919961
0.00945692
0.0101439
0.0112631
0.0130998
0.0160014
0.0190969
0.0191205
0.019141
0.019163
0.019189
0.0192196
0.018853
0.0178438
0.0170606
0.0164898
0.0161253
0.0159703
0.016031
0.0192213
0.0161792
0.0130573
0.0111858
0.0101782
0.0098035
0.00994265
0.0105281
0.0114738
0.0127292
0.0145258
0.0172259
0.0192272
0.0192469
0.0192644
0.0192835
0.0193054
0.0193303
0.0193573
0.0193851
0.019206
0.0190785
0.019143
0.0194502
0.0194905
0.0144956
0.0120056
0.0105903
0.00997244
0.00996937
0.0104653
0.011346
0.0124693
0.0137607
0.015393
0.0176414
0.0192654
0.0192829
0.0192965
0.0193094
0.0193222
0.0193347
0.019346
0.0193555
0.0193628
0.0193684
0.0193719
0.0193741
0.0193753
0.011014
0.00991632
0.00961207
0.00994286
0.0107572
0.0118768
0.0131092
0.0143956
0.0158548
0.0177206
0.0192295
0.0192417
0.0192469
0.0192481
0.0192463
0.0192419
0.0192348
0.019225
0.0192132
0.0192004
0.0191878
0.0191763
0.0191666
0.0102954
0.00938487
0.0092523
0.00980958
0.010859
0.0121619
0.0134799
0.0147532
0.0160927
0.0177515
0.0191591
0.0191637
0.0191588
0.0191479
0.0191331
0.019115
0.0190944
0.0190715
0.0190474
0.0190234
0.0190009
0.0189807
0.0189636
0.00910184
0.00904724
0.00971279
0.0108855
0.0122928
0.013672
0.0149416
0.016206
0.01774
0.0191024
0.0191012
0.0190892
0.0190706
0.0190476
0.0190214
0.0189927
0.0189621
0.0189308
0.0189002
0.0188713
0.0188451
0.0188227
0.00910645
0.00905498
0.00972387
0.0108988
0.0123069
0.0136878
0.0149622
0.0162356
0.0177833
0.0191043
0.0191029
0.0190908
0.019072
0.0190489
0.0190226
0.0189938
0.0189632
0.0189318
0.0189009
0.0188718
0.0188454
0.0188228
0.00939524
0.00927106
0.00983816
0.0108966
0.0122077
0.0135387
0.0148362
0.0162149
0.0179332
0.0191626
0.019166
0.01916
0.0191481
0.0191324
0.0191136
0.0190923
0.019069
0.0190445
0.0190203
0.0189975
0.0189771
0.01896
0.0189472
0.00992801
0.00963291
0.00997446
0.0107999
0.0119322
0.013185
0.0145071
0.016023
0.0179869
0.0192329
0.0192431
0.0192465
0.0192459
0.0192425
0.0192366
0.0192283
0.0192175
0.019205
0.0191919
0.019179
0.0191673
0.0191577
0.0191511
0.0105981
0.00998899
0.00999562
0.0105043
0.011404
0.0125581
0.0138948
0.0155815
0.0179309
0.0192692
0.0192846
0.0192961
0.0193068
0.0193175
0.0193279
0.0193374
0.0193454
0.0193515
0.0193562
0.0193594
0.0193614
0.0193628
0.0193643
0.011187
0.0101879
0.00982212
0.00997459
0.0105833
0.0115665
0.0128756
0.0147456
0.0175592
0.019233
0.0192508
0.0192664
0.0192836
0.0193036
0.0193267
0.0193522
0.0193787
0.0194051
0.0192505
0.0192712
0.0194711
0.0194852
0.019494
0.0101263
0.00941355
0.00921882
0.00949495
0.0102131
0.0113788
0.0132755
0.0162616
0.0191039
0.019126
0.0191451
0.0191657
0.0191902
0.0192195
0.0191621
0.018098
0.0172755
0.0166758
0.0162907
0.0161147
0.0161562
0.0164508
0.017047
0.00976313
0.00878624
0.00831166
0.00828632
0.00875165
0.00976816
0.0115747
0.0143421
0.0176104
0.0188874
0.0189141
0.0189395
0.0189666
0.0189978
0.0190338
0.0176892
0.0165471
0.0156297
0.0149203
0.0144004
0.0140376
0.0138609
0.0139082
0.00911461
0.00801188
0.00734548
0.00704749
0.0072488
0.00800211
0.00943255
0.011483
0.0136674
0.0156033
0.0170712
0.0179789
0.0182632
0.0179405
0.0171769
0.0162172
0.0152486
0.0143657
0.0135993
0.0129536
0.0124245
0.0120017
0.0116993
0.00818754
0.00710051
0.00637058
0.00586724
0.00590815
0.00643564
0.00735536
0.0085448
0.00997033
0.0116557
0.0132076
0.0142752
0.0148034
0.0148627
0.0145403
0.0139742
0.0133078
0.0126324
0.011988
0.01139
0.0108493
0.0103738
0.00994814
0.00479281
0.00505376
0.00546706
0.006003
0.0064116
0.00748591
0.00883428
0.0099929
0.0107359
0.0110574
0.0110333
0.0107737
0.0104011
0.00999754
0.00959831
0.00921513
0.00885469
0.00851954
0.0082073
0.00388998
0.00373391
0.00380584
0.00400355
0.00414921
0.00496424
0.00575802
0.00657902
0.00714311
0.0074543
0.00759004
0.00760932
0.00756354
0.0074935
0.00742229
0.00735694
0.00729455
0.00722696
0.00714209
0.00246561
0.00236266
0.00253679
0.00312996
0.0036896
0.0042902
0.00498443
0.00538687
0.00566494
0.00590416
0.00613037
0.00630704
0.00643085
0.00651721
0.0066379
0.00674712
0.00683984
0.00690367
0.00209945
0.00230355
0.00309794
0.00348164
0.00398369
0.00390012
0.00415332
0.0044036
0.00465017
0.00489211
0.00512781
0.00535582
0.005575
0.00578449
0.00598372
0.00617249
0.00635098
0.00129662
0.0021345
0.00251204
0.00289169
0.00261433
0.00281608
0.00301598
0.00321426
0.00341457
0.00361826
0.0038248
0.00403257
0.00423971
0.00444437
0.00464469
0.00483937
0.00138468
0.00205491
0.00220535
0.00227686
0.00235467
0.00245065
0.00256024
0.00268083
0.00280982
0.00294625
0.0030894
0.00323883
0.00339312
0.00354555
0.00369738
0.00206893
0.00207746
0.0020923
0.00212202
0.00216817
0.00222621
0.00229483
0.00237311
0.00246009
0.00255493
0.00265676
0.0027639
0.0028754
0.0119509
0.0106921
0.00974835
0.009169
0.00902177
0.00930097
0.0100179
0.0111507
0.012596
0.0142311
0.016004
0.0179377
0.0180627
0.0180678
0.00989719
0.00861194
0.00764057
0.00713128
0.00724291
0.00763579
0.00831345
0.00932699
0.0106349
0.0120809
0.0134744
0.0146613
0.0156848
0.0160547
0.00812287
0.00682166
0.00587733
0.00561892
0.00515442
0.0054404
0.00613424
0.00718785
0.00849986
0.00976138
0.0107031
0.0110709
0.0107433
0.0107449
0.010865
0.0110891
0.0113258
0.0115175
0.0116728
0.0117755
0.0118124
0.0117767
0.00824589
0.00661091
0.00529913
0.00458165
0.00408763
0.00513928
0.00371532
0.00393752
0.00471386
0.00607806
0.00783598
0.00784048
0.00789269
0.00635691
0.00646112
0.00660625
0.00668486
0.00670031
0.00662815
0.00650464
0.00635015
0.00618081
0.00600832
0.00708519
0.00536612
0.00413797
0.00337793
0.0035642
0.00242157
0.00255112
0.00292272
0.00361279
0.00331278
0.0032354
0.00327022
0.00337186
0.00352741
0.00294778
0.00304904
0.00310725
0.00312956
0.00313388
0.00312519
0.00311466
0.00310673
0.00310412
0.00634258
0.00445569
0.00321047
0.00303585
0.00195125
0.00170563
0.00169629
0.00156244
0.001476
0.00150751
0.00152574
0.00158679
0.00172925
0.00187961
0.00199284
0.00209329
0.00214472
0.00220288
0.00226973
0.00234414
0.00242769
0.00252268
0.00262927
0.00274648
0.00606006
0.0043179
0.00355921
0.00201406
0.00144169
0.00144352
0.000357197
0.000945716
0.00187225
0.00210676
0.00218926
0.00222849
0.00238248
0.00255425
0.00274453
0.00294928
0.00316527
0.00338867
0.0036154
0.00384088
0.00636148
0.00441862
0.00362571
0.00185558
0.00145261
0.000779026
0.00153436
0.00170965
0.00191694
0.00251475
0.00281697
0.00313306
0.00345585
0.00378321
0.00410719
0.00442136
0.00470906
0.00488286
0.00757729
0.00490252
0.00338454
0.00283122
0.00157154
0.0011347
0.000448131
0.000927718
0.00166961
0.0020279
0.00275204
0.0031319
0.00352816
0.00392035
0.00425157
0.00447992
0.00471932
0.0049615
0.00519723
0.0054158
0.00560732
0.00978927
0.00675364
0.00477006
0.0038906
0.00259756
0.00233093
0.00301016
0.00237817
0.00185428
0.00180355
0.00180791
0.0014163
0.00173473
0.00233678
0.00294094
0.00355617
0.00352401
0.0036534
0.00385048
0.00407828
0.00431064
0.00453683
0.00475373
0.00495842
0.00514726
0.00531376
0.013153
0.00955947
0.00693279
0.00556061
0.00540153
0.00470225
0.00427153
0.00397433
0.00328682
0.00305253
0.0029802
0.00292174
0.00322661
0.00392046
0.00578625
0.00651231
0.00628518
0.00579847
0.00546697
0.00525436
0.00526873
0.00529971
0.00534424
0.00539606
0.00544683
0.00548743
0.017485
0.0129187
0.00974693
0.00787106
0.00666539
0.00607371
0.005442
0.00454746
0.00418196
0.00444584
0.0051048
0.00616299
0.00730565
0.00900318
0.0106564
0.011785
0.0117135
0.0113518
0.0105149
0.00978122
0.00911383
0.00848235
0.00790289
0.00745695
0.00706985
0.00673529
0.0192493
0.0159659
0.0120246
0.00959331
0.00810234
0.00701077
0.00622024
0.00546962
0.00548078
0.00618604
0.00748208
0.00970198
0.0117128
0.0144022
0.0166772
0.0166079
0.0165237
0.0164144
0.0162248
0.0149297
0.0137043
0.0125897
0.0115831
0.0106815
0.00989189
0.00920533
0.0192089
0.0178817
0.013439
0.010707
0.0089938
0.00781643
0.00707701
0.00681323
0.00715193
0.00814028
0.0101016
0.0128073
0.0159283
0.0181456
0.0181327
0.0181093
0.0180739
0.0180228
0.0179513
0.0172425
0.0158129
0.014588
0.0135449
0.0126553
0.0118899
0.0112496
0.0192017
0.0181582
0.013873
0.0112398
0.00960025
0.00856983
0.00811039
0.00810091
0.00856088
0.00955267
0.011641
0.0151271
0.0187459
0.018753
0.0187518
0.0187452
0.0187335
0.0187148
0.0186852
0.0178245
0.0164828
0.0154197
0.0145833
0.0139287
0.0133593
0.0192214
0.0170216
0.0134209
0.0112066
0.00989758
0.00921182
0.00902503
0.00934658
0.010036
0.0111931
0.0132396
0.0167948
0.0190381
0.0190441
0.0190452
0.0190437
0.0190392
0.019029
0.0183547
0.0172827
0.0163855
0.0157109
0.0152553
0.0150092
0.0148968
0.0192603
0.0152337
0.0124109
0.0107309
0.00985852
0.00959715
0.00984455
0.0105893
0.011642
0.0128215
0.0145226
0.0175518
0.0191465
0.0191461
0.0191418
0.0191359
0.019128
0.0191163
0.0189498
0.0184026
0.0180114
0.0177907
0.017801
0.0180573
0.0184016
0.013425
0.0112165
0.0100031
0.0095634
0.00974774
0.0104443
0.0115526
0.0128186
0.0140378
0.0154981
0.0177729
0.0190797
0.0190647
0.0190441
0.01902
0.0189923
0.0189597
0.0189212
0.0188765
0.0188262
0.0187708
0.018711
0.0186497
0.0185899
0.0101495
0.00923866
0.00913011
0.00971327
0.0108242
0.0122423
0.0136114
0.0148292
0.0160664
0.0177704
0.0188289
0.0187853
0.0187344
0.0186788
0.0186193
0.0185563
0.0184904
0.0184229
0.0183552
0.0182889
0.018226
0.018169
0.0181205
0.00938848
0.00863818
0.00871511
0.00954888
0.0109635
0.0126466
0.0141367
0.0153474
0.0164416
0.0178519
0.0185176
0.0184453
0.0183673
0.018287
0.018205
0.0181222
0.0180396
0.0179589
0.0178817
0.0178091
0.0177425
0.0176842
0.0176366
0.00833488
0.00848115
0.00942152
0.0109845
0.0128198
0.0144482
0.0156676
0.0166406
0.0178331
0.0182641
0.0181649
0.0180634
0.0179622
0.0178616
0.0177623
0.0176651
0.0175722
0.0174852
0.0174041
0.01733
0.0172656
0.0172134
0.00833974
0.00848983
0.00943443
0.0109989
0.0128314
0.0144583
0.0156818
0.0166629
0.0178668
0.0182697
0.0181707
0.0180693
0.0179682
0.0178676
0.0177684
0.0176712
0.0175782
0.0174905
0.0174086
0.0173337
0.0172684
0.0172154
0.00864819
0.00873616
0.00958325
0.0110079
0.0126953
0.0141971
0.0154349
0.0165734
0.0180491
0.0185224
0.0184489
0.0183701
0.0182888
0.0182061
0.0181227
0.0180396
0.0179586
0.0178813
0.0178085
0.0177418
0.0176834
0.0176357
0.0176004
0.00924851
0.00915135
0.00974692
0.0108685
0.0122938
0.0136816
0.0149394
0.0162469
0.0180681
0.0188318
0.0187864
0.0187337
0.0186765
0.0186157
0.0185516
0.018485
0.0184172
0.0183498
0.0182837
0.0182214
0.0181651
0.0181173
0.0180801
0.0100085
0.00957782
0.00977094
0.0104797
0.0116069
0.0129136
0.0141864
0.0157006
0.0180887
0.0190804
0.0190625
0.0190388
0.0190117
0.0189812
0.0189464
0.0189063
0.0188608
0.0188107
0.0187568
0.0186993
0.0186408
0.018584
0.0185317
0.0107297
0.00986641
0.00961124
0.00987079
0.0106423
0.0117462
0.0129979
0.0147836
0.0179508
0.0191537
0.0191516
0.0191456
0.0191381
0.0191288
0.019116
0.0190975
0.0186896
0.0182399
0.0179676
0.0179314
0.0181507
0.0184788
0.0186552
0.00989218
0.00921192
0.00903545
0.00937897
0.0101098
0.0113162
0.0134315
0.0171208
0.0190458
0.019051
0.0190518
0.0190507
0.0190474
0.0190399
0.0187859
0.0176532
0.0166992
0.0159793
0.0154905
0.0152158
0.0150783
0.015148
0.0154974
0.0095908
0.00856978
0.00812132
0.00811384
0.00859545
0.00961473
0.0117075
0.0151746
0.0187534
0.0187614
0.018761
0.0187555
0.0187454
0.0187292
0.0187036
0.0181154
0.0167299
0.0156376
0.0147765
0.0141094
0.0135182
0.01309
0.0128587
0.00898783
0.00782892
0.00709183
0.00674669
0.00709389
0.00810014
0.0100064
0.0125613
0.0154664
0.0181345
0.0181244
0.0181026
0.0180683
0.0180183
0.0179482
0.0171947
0.0158226
0.0146259
0.0135907
0.0126941
0.0119146
0.0112526
0.0106948
0.00809272
0.0070349
0.00617017
0.00567458
0.00535511
0.00607975
0.00732652
0.00946132
0.0112348
0.0135544
0.0159795
0.0165432
0.0164488
0.0162297
0.0151351
0.0139984
0.0129195
0.0119197
0.0109984
0.0101583
0.00941171
0.00875623
0.0081801
0.00418581
0.00440589
0.00500462
0.00589567
0.00683617
0.00831417
0.00941533
0.0101435
0.0100743
0.00977899
0.00913002
0.00853598
0.00802213
0.00756019
0.00714844
0.00678552
0.00647217
0.00620226
0.00596477
0.00366744
0.00358735
0.00379557
0.00384827
0.00410999
0.00494638
0.00557002
0.0062774
0.00600213
0.0056155
0.00533857
0.00512703
0.0050738
0.00510201
0.00514502
0.00519709
0.00525068
0.00529742
0.00532811
0.00278943
0.00268822
0.00259586
0.0024465
0.00294598
0.00385347
0.00388403
0.00368329
0.00381502
0.0040075
0.00422052
0.00443064
0.00463067
0.00482059
0.00499927
0.00516373
0.00530897
0.00542567
0.00174582
0.00183509
0.00187844
0.00157731
0.00224699
0.0025616
0.00284326
0.00322255
0.00361227
0.00399332
0.0043516
0.00460238
0.00482014
0.00503772
0.00524825
0.00544268
0.00561166
0.00574441
0.000703915
0.00146557
0.00172938
0.0020938
0.00259603
0.00289337
0.00320036
0.0035112
0.00382632
0.00413747
0.00443871
0.00472597
0.00498701
0.00513545
0.00525828
0.00144885
0.0019099
0.00199334
0.00229135
0.00244703
0.00261455
0.00280181
0.00300507
0.00321979
0.00344127
0.00366604
0.00389086
0.00411229
0.00432822
0.00185852
0.00206565
0.00212451
0.00219049
0.00226279
0.00233991
0.00242715
0.00252642
0.00263745
0.00275894
0.00288924
0.00302663
0.0031699
0.013232
0.0116659
0.0104286
0.00956952
0.00920761
0.00930976
0.00986073
0.0108549
0.0121716
0.0135332
0.0146729
0.0155026
0.0160771
0.0166771
0.0174403
0.0110601
0.00945512
0.00818132
0.00738263
0.00733076
0.00761
0.00817328
0.00908206
0.0103617
0.0117106
0.0126572
0.0128657
0.0126377
0.0125779
0.0128435
0.0091415
0.0075078
0.00624948
0.00578949
0.00521097
0.00533753
0.00599255
0.00706515
0.00855236
0.0100933
0.0108719
0.0105637
0.00983882
0.00914241
0.00869037
0.00910697
0.00956609
0.009984
0.0103637
0.0107109
0.0110179
0.0112733
0.0114701
0.00749404
0.00583267
0.00479554
0.00411934
0.00476543
0.00360613
0.00385561
0.00473115
0.00633932
0.00710294
0.00690997
0.0069211
0.0070536
0.006622
0.00529554
0.00576717
0.00622546
0.006674
0.00679842
0.00689032
0.0069546
0.0069944
0.00701286
0.00618881
0.00452347
0.00349783
0.00349441
0.00225124
0.00241269
0.00279531
0.00319875
0.00282441
0.00269345
0.00269268
0.0027509
0.00289494
0.00313468
0.00339001
0.00318406
0.00334199
0.00346972
0.00356938
0.00364628
0.00370643
0.00375489
0.00379567
0.00531154
0.00377477
0.00331547
0.00186799
0.00140293
0.00132212
0.0014287
0.00069155
0.00154335
0.00153779
0.00167926
0.00194163
0.00191
0.00197783
0.00217062
0.00229796
0.00231035
0.00239868
0.00247971
0.00255585
0.00263247
0.00271081
0.00279196
0.00287646
0.00483946
0.00338721
0.00255237
0.00146817
0.00107906
0.000386057
0.0016342
0.00196533
0.00219648
0.00237366
0.00254261
0.00270702
0.00287011
0.00303273
0.00319393
0.0033519
0.00350218
0.00495613
0.00349201
0.0024242
0.00139886
0.000735749
0.00133141
0.00252735
0.00418152
0.0042874
0.00450145
0.00473578
0.00495296
0.00514744
0.0053209
0.00547407
0.00560774
0.00596749
0.00409471
0.00309081
0.00153671
0.000992379
0.000561298
0.00231197
0.00330552
0.00445403
0.0048944
0.00524982
0.00553528
0.00577249
0.00597274
0.00614455
0.00629548
0.00643406
0.00656608
0.00813261
0.00509323
0.00367547
0.00277141
0.00214986
0.00198743
0.00161878
0.000975765
0.00085785
0.00180708
0.001216
0.00163034
0.00162984
0.00165924
0.00271315
0.00334392
0.00380582
0.00428597
0.00473119
0.00511826
0.00544797
0.00572584
0.00596239
0.00616802
0.00635603
0.00653281
0.0112902
0.0080187
0.00567825
0.00480777
0.00438414
0.00512706
0.00586927
0.00377702
0.00269221
0.00325813
0.00353167
0.00324849
0.00313309
0.00351964
0.00375974
0.00397419
0.0042218
0.00448725
0.00475722
0.00502161
0.00526878
0.00540202
0.0055362
0.00566597
0.00578799
0.0058965
0.0156598
0.0114844
0.00868185
0.00730498
0.00659518
0.00625106
0.0055634
0.00469543
0.00308778
0.0033229
0.0042722
0.00689628
0.00704828
0.0068165
0.00669557
0.00661393
0.00652468
0.00643188
0.00615357
0.00548617
0.0050012
0.00465791
0.00452993
0.00455996
0.00460819
0.0046669
0.0192838
0.0149309
0.011316
0.00914123
0.00794884
0.00686585
0.00609271
0.005515
0.00417802
0.0044261
0.0060425
0.00944864
0.0131542
0.0127671
0.0124738
0.012198
0.0118852
0.0115106
0.0110903
0.0106376
0.0100077
0.00889055
0.00791309
0.00706803
0.0063616
0.0192437
0.0170587
0.0129002
0.0103219
0.00866318
0.0074723
0.00638349
0.00575123
0.00593744
0.00672929
0.00876261
0.012723
0.0167553
0.0164526
0.016145
0.015813
0.0154402
0.015012
0.0145287
0.0139972
0.0126147
0.0114401
0.0104247
0.00951928
0.00879193
0.0192474
0.0170652
0.0131768
0.0107335
0.00913963
0.00820625
0.00736875
0.0073828
0.00799202
0.00878921
0.0106969
0.0151459
0.0181957
0.0180336
0.0178419
0.0176131
0.0173345
0.0169941
0.0165853
0.0155183
0.0142085
0.013167
0.0123016
0.0116597
0.0110033
0.019284
0.0154748
0.0123841
0.0104554
0.0093029
0.00874961
0.00865512
0.00936615
0.0102626
0.0106499
0.0124422
0.0169804
0.0187277
0.0186167
0.0184659
0.0182668
0.0180077
0.0171344
0.0157321
0.0149282
0.0141894
0.0136276
0.0132274
0.0129557
0.012626
0.0169199
0.013385
0.0110704
0.00972138
0.00910356
0.0091477
0.00971992
0.0109328
0.0121548
0.0130656
0.0145462
0.0182395
0.0187216
0.0186264
0.0184982
0.0183381
0.0181435
0.0174336
0.0167235
0.0163748
0.0159875
0.0157246
0.0156682
0.0157294
0.0153326
0.0114987
0.00970069
0.00881307
0.00866722
0.00930896
0.0105495
0.012293
0.0138305
0.0148275
0.0158351
0.018268
0.0182574
0.0181257
0.0179806
0.017819
0.017636
0.0174285
0.0171985
0.0169548
0.0167039
0.0164445
0.0161794
0.0159267
0.015688
0.00856476
0.0079245
0.00811993
0.00912924
0.0108801
0.0131362
0.0150423
0.0160837
0.016728
0.0174248
0.0172315
0.0170334
0.0168362
0.0166392
0.0164414
0.0162427
0.0160457
0.0158576
0.0156812
0.0155133
0.0153559
0.0152175
0.015102
0.00781351
0.00728718
0.00765385
0.0089303
0.0111201
0.0138509
0.0160229
0.0169637
0.0167077
0.0164444
0.0161847
0.0159415
0.0157232
0.015521
0.0153297
0.0151478
0.0149762
0.0148222
0.0146862
0.0145615
0.0144491
0.0143557
0.0142844
0.00697852
0.00738553
0.00875698
0.0111467
0.0141081
0.0163958
0.0163215
0.0159675
0.0156042
0.0152618
0.0149618
0.0147104
0.0144878
0.0142846
0.0140967
0.0139247
0.013775
0.013646
0.0135292
0.0134253
0.0133415
0.0132812
0.00698389
0.00739614
0.00877315
0.0111611
0.0141057
0.0163775
0.0163333
0.0159799
0.015617
0.0152748
0.0149747
0.0147231
0.0145002
0.0142965
0.0141077
0.0139346
0.0137828
0.0136513
0.0135319
0.0134256
0.0133396
0.0132773
0.00729757
0.00768198
0.00897887
0.0111873
0.0139107
0.0160866
0.0169644
0.016706
0.0164402
0.0161783
0.0159335
0.0157141
0.0155109
0.0153189
0.0151362
0.0149647
0.0148113
0.0146758
0.0145518
0.01444
0.0143475
0.0142772
0.0142263
0.00793364
0.00814542
0.00917158
0.0109354
0.0131771
0.0150988
0.016177
0.0169511
0.0174201
0.0172248
0.0170253
0.0168274
0.0166301
0.0164329
0.0162357
0.0160409
0.0158566
0.0156839
0.0155201
0.0153669
0.0152328
0.0151219
0.0150312
0.00881608
0.00867944
0.00932969
0.0105819
0.0123373
0.0139366
0.0148212
0.0159569
0.0183521
0.0182293
0.0180914
0.0179415
0.0177769
0.017594
0.0173903
0.0171681
0.0169357
0.0166997
0.0164573
0.0162117
0.0159764
0.0157523
0.0155437
0.00972092
0.00911127
0.00915621
0.00973767
0.0109781
0.0122772
0.0132892
0.0148407
0.0186805
0.0187397
0.0186452
0.018518
0.0183594
0.018168
0.0178183
0.0170166
0.0166233
0.0161833
0.0158776
0.015787
0.0157916
0.0153936
0.0150204
0.00929233
0.00873814
0.0086516
0.00938397
0.0103432
0.010828
0.0127007
0.0173991
0.0187515
0.0186545
0.018522
0.0183454
0.0181144
0.0177576
0.0162059
0.0153636
0.014579
0.0139969
0.0135807
0.013304
0.0129688
0.0128544
0.0130263
0.00912623
0.00820263
0.00737439
0.00734339
0.00798916
0.00886443
0.0108143
0.0152176
0.0182219
0.0180755
0.0179012
0.0176922
0.0174368
0.0171228
0.0167414
0.0161669
0.0147412
0.0136236
0.0127063
0.0120361
0.0113392
0.0108432
0.0104865
0.00865426
0.00749993
0.00633176
0.00585255
0.00584741
0.00667429
0.00870606
0.0125382
0.0167479
0.0164507
0.0161479
0.0158208
0.0154541
0.0150345
0.0145605
0.0140402
0.0126186
0.0114457
0.0104336
0.00954843
0.00879281
0.00815803
0.00763474
0.00790955
0.00689768
0.00552182
0.00473978
0.00644141
0.00650312
0.00774391
0.00892117
0.0131523
0.0127195
0.0123803
0.0120658
0.0117215
0.0113322
0.0109082
0.0101028
0.00896391
0.00801255
0.00717925
0.00645014
0.00582221
0.00544873
0.00519256
0.00360954
0.00390267
0.00536743
0.00637083
0.00668025
0.00638623
0.00622765
0.00612246
0.0060479
0.0056481
0.0049996
0.00460157
0.0043011
0.00432024
0.00436217
0.00442209
0.00449461
0.00457366
0.00464849
0.00281768
0.00317334
0.00358947
0.00405499
0.0045557
0.00471001
0.00361922
0.00379934
0.00401865
0.00426218
0.00451691
0.00477191
0.00502077
0.00525822
0.00546005
0.00558506
0.00570423
0.00581213
0.00590069
0.0030324
0.00277413
0.00277701
0.0025019
0.00292946
0.00314547
0.00359779
0.00398225
0.00438178
0.0047559
0.00508674
0.00537325
0.00562204
0.00584075
0.00603665
0.00621787
0.00639171
0.00656424
0.000559015
0.00116978
0.00152322
0.0013651
0.00269183
0.00333953
0.00469868
0.00507511
0.00538414
0.00563402
0.00584476
0.00602744
0.00618792
0.00633396
0.00647
0.00660046
0.00673046
0.00223188
0.00442058
0.00479599
0.00481001
0.00495531
0.00512947
0.0052904
0.00543651
0.00556999
0.00569177
0.00580229
0.00590211
0.00599193
0.00136769
0.00200483
0.00234626
0.00253962
0.00272702
0.00290865
0.00308751
0.00326436
0.00343794
0.00360262
0.0037576
0.00390345
0.00404173
0.00165145
0.00188818
0.00225043
0.00234402
0.00242971
0.00250953
0.0025893
0.00267042
0.00275414
0.00284107
0.0029315
0.0030256
0.0031236
0.0129503
0.011376
0.0101902
0.00954565
0.00940912
0.00977616
0.0106276
0.0119742
0.0134863
0.0146686
0.0152217
0.0151177
0.0146296
0.014326
0.0145011
0.0106289
0.00899556
0.00783808
0.00748845
0.00758253
0.00801386
0.0087623
0.0101694
0.0119486
0.0133161
0.0137647
0.0130494
0.0118255
0.0110594
0.0109955
0.00856871
0.00690473
0.00609862
0.00530402
0.00514783
0.00561369
0.00659494
0.00893005
0.0112367
0.0108987
0.0108892
0.0103131
0.00858703
0.00780306
0.00763481
0.00780501
0.0083969
0.00894269
0.00941859
0.00983686
0.0101984
0.0104985
0.0107377
0.0068124
0.00528543
0.00437305
0.00476746
0.00344811
0.00355896
0.0044707
0.00580503
0.00554459
0.0054457
0.00542976
0.00549701
0.00573387
0.0056109
0.00526917
0.00507942
0.00606073
0.00658157
0.00704015
0.00732636
0.00748661
0.00762831
0.00775414
0.00544769
0.00412221
0.0038979
0.00231643
0.00217912
0.00238367
0.00304439
0.00296792
0.00281538
0.00275504
0.00276843
0.0028543
0.00301571
0.00322275
0.00335993
0.00399283
0.00392894
0.00412695
0.00429745
0.00444582
0.00457758
0.00469683
0.0048064
0.00442729
0.0030821
0.00244283
0.00150254
0.00109807
0.00151824
0.00185014
0.00207297
0.00141317
0.00139064
0.00123032
0.00167781
0.00192922
0.00213122
0.00199536
0.00252138
0.00255252
0.00270466
0.00284154
0.00296582
0.00308297
0.00319678
0.00330939
0.00342211
0.00445562
0.00335301
0.00169546
0.00119932
0.000193246
0.000984757
0.00167112
0.00204872
0.00234277
0.0025119
0.00266225
0.00280197
0.00293631
0.00306772
0.00319775
0.00332719
0.00465005
0.00330042
0.00163114
0.00102655
0.000273918
0.00253631
0.00329469
0.00360819
0.00360771
0.00364481
0.00370137
0.00377066
0.00384916
0.00393505
0.00402776
0.00547953
0.00390472
0.00198589
0.00116546
0.000498411
0.00185585
0.00424673
0.00530283
0.00536272
0.00524702
0.00526533
0.00533669
0.00536379
0.00536269
0.00534151
0.00531748
0.00529538
0.00652644
0.00455476
0.00324485
0.00206198
0.0017421
0.00170934
0.000669074
0.00138213
0.00121303
0.00124607
0.00104286
0.00135303
0.00174526
0.00178279
0.00283146
0.00330206
0.00436354
0.00483563
0.00515571
0.00535005
0.00548601
0.00559654
0.00569861
0.00580168
0.005908
0.00602397
0.00975789
0.00664154
0.00510605
0.00402119
0.00390037
0.00657421
0.00544095
0.00259719
0.00168882
0.00243362
0.00197826
0.00231168
0.00257833
0.00283387
0.00306428
0.00339597
0.00373482
0.00407921
0.00440675
0.00470442
0.00496486
0.00519643
0.00539822
0.005569
0.00572189
0.00587092
0.0139657
0.010153
0.00779274
0.00678411
0.00677844
0.00700587
0.00553978
0.00277047
0.0017436
0.00201227
0.00265445
0.00257247
0.002557
0.00267263
0.00281469
0.00298231
0.00316061
0.00333961
0.00351615
0.00369059
0.00386434
0.00403953
0.00421787
0.00440407
0.00459839
0.00479461
0.0186136
0.0136534
0.0104582
0.00876016
0.00787779
0.00727105
0.00573068
0.00328228
0.00264483
0.00335079
0.00793377
0.00711082
0.00497576
0.00488414
0.00485417
0.00485165
0.00485311
0.00485068
0.00484467
0.00483883
0.00481661
0.0047809
0.00474047
0.00470211
0.00467155
0.0193062
0.0156618
0.0119936
0.00974751
0.00830783
0.0075192
0.00620815
0.00431729
0.00434857
0.00480764
0.00636228
0.0124232
0.00969198
0.00901964
0.00851701
0.00810422
0.00773817
0.00739867
0.00708213
0.00678849
0.00651912
0.0062787
0.00597386
0.005875
0.00570027
0.019328
0.0152519
0.0119745
0.00988318
0.00850423
0.00799257
0.00778994
0.00575269
0.00632147
0.00645716
0.00696286
0.0115768
0.0142367
0.0133799
0.0126043
0.0118684
0.0111498
0.0104491
0.00977887
0.00915728
0.00858914
0.00808839
0.00756628
0.00696545
0.00633666
0.0168824
0.0132907
0.0108304
0.00929431
0.00851774
0.00773015
0.00742752
0.00844811
0.011025
0.0112907
0.0090984
0.0123522
0.0165762
0.015617
0.0146449
0.013675
0.0127106
0.0117673
0.0109073
0.00986748
0.00900495
0.00847608
0.0081307
0.00777871
0.00743782
0.0138232
0.0110972
0.00929618
0.00834025
0.0082448
0.00801243
0.00889159
0.0112675
0.0142318
0.0132146
0.0128866
0.0168102
0.0170876
0.0163787
0.0155796
0.0142941
0.012998
0.0123686
0.0120389
0.011768
0.0113059
0.0106401
0.0100249
0.00949725
0.00905447
0.00925793
0.00784906
0.00742163
0.00779421
0.00808181
0.00996172
0.0133608
0.0169511
0.0160816
0.0152364
0.0162186
0.0158694
0.0154894
0.0150645
0.0145795
0.0140233
0.013409
0.012776
0.01218
0.0116405
0.0111428
0.0106852
0.0103072
0.00671751
0.00650777
0.00723094
0.00877936
0.0118233
0.015628
0.0151945