/*--------------------------------*- C++ -*----------------------------------*\
  =========                 |
  \\      /  F ield         | OpenFOAM: The Open Source CFD Toolbox
   \\    /   O peration     | Website:  https://openfoam.org
    \\  /    A nd           | Version:  13
     \\/     M anipulation  |
\*---------------------------------------------------------------------------*/
FoamFile
{
    format      ascii;
    class       volScalarField;
    location    "900";
    object      omega;
}
// * * * * * * * * * * * * * * * * * * * * * * * * * * * * * * * * * * * * * //

dimensions      [0 0 -1 0 0 0 0];

internalField   nonuniform List<scalar> 
169916
(
18.8088
18.9974
19.2711
19.6374
20.0793
20.5492
20.9915
21.3614
21.6357
21.8109
21.8974
21.9144
21.8802
21.8166
19.0699
19.4178
19.9436
20.6825
21.5955
22.5499
23.4624
24.2524
24.85
25.2317
25.4227
25.4747
25.4456
25.3993
19.4093
20.0133
20.9857
22.4232
24.2391
26.1388
28.1234
30.018
31.4957
32.4128
32.8394
33.0268
33.1082
33.2445
33.5833
34.1769
35.0613
36.2587
37.7725
39.5817
41.6476
43.9229
19.264
19.8251
20.8267
22.5461
25.1677
28.6574
29.6394
33.667
38.8698
43.4669
46.5253
48.1206
63.4877
63.3891
65.0186
67.7225
71.3181
75.627
80.3638
85.247
89.9761
94.3047
98.0962
19.4649
20.2744
21.855
24.707
29.2944
31.3881
40.8671
57.6784
77.2193
93.5917
102.657
106.016
107.476
109.559
164.842
171.431
177.04
180.449
181.635
180.761
178.169
174.266
169.448
19.5808
20.6366
22.9184
27.4759
30.0891
43.0105
67.0886
131.587
163.02
229.978
265.881
321.035
318.588
326.541
382.761
345.342
311.377
281.901
256.753
234.916
216.078
199.842
185.817
173.643
19.5355
20.696
23.3525
25.5784
36.6729
68.8338
105.47
272.344
462.718
677.664
735.563
823.948
663.072
511.521
430.599
345.458
297.473
261.582
233.545
211.023
192.646
177.436
164.727
153.944
144.459
19.3095
20.3383
22.9725
25.3217
40.5476
94.0179
186.006
782.343
1041.45
960.043
755.976
634.899
429.079
331.143
254.372
223.848
199.634
180.344
165.192
153.073
143.178
134.961
128.036
122.127
18.9774
19.6722
21.5708
22.5251
31.4405
59.7844
93.9335
241.862
332.149
347.054
339.213
266.701
218.564
176.627
153.009
161.141
149.578
140.131
132.38
125.904
120.404
115.686
111.612
108.079
105.015
102.372
18.6595
19.006
19.9288
21.7585
22.6969
27.5315
36.6021
48.9102
58.8686
70.3789
80.1473
83.44
84.1591
82.727
84.6682
84.1513
83.1605
82.1122
81.1254
80.2241
79.406
78.6821
78.0622
77.5544
77.1671
76.915
18.4264
18.5632
18.9236
19.6332
20.8725
22.2485
22.9736
25.7468
29.1684
33.0548
36.8873
39.9481
40.5509
41.198
41.7723
41.933
41.9603
42.0164
42.1757
42.4707
42.9097
43.484
44.1803
44.9875
45.9018
46.9299
18.2777
18.3167
18.4729
18.7991
19.3556
20.1414
21.1591
22.377
23.6709
24.8216
25.7248
26.3773
26.8625
27.095
27.1455
27.1111
27.0573
27.0245
27.0369
27.1121
27.2624
27.4973
27.8258
28.2579
28.8036
29.4733
18.1887
18.1856
18.2636
18.4553
18.788
19.2786
19.9278
20.6741
21.402
21.9756
22.3578
22.5727
22.6615
22.6629
22.6167
22.5511
22.4845
22.4294
22.3963
22.3927
22.4253
22.5
22.6226
22.7989
23.0353
23.3378
18.1414
18.1212
18.1668
18.2991
18.5323
18.8688
19.2939
19.7631
20.1962
20.5171
20.7047
20.7807
20.788
20.7574
20.7075
20.6499
20.5932
20.5452
20.5123
20.4998
20.5113
20.5496
20.617
20.7153
20.846
21.007
18.126
18.1034
18.1395
18.2481
18.433
18.686
18.9819
19.2809
19.5372
19.7177
19.8139
19.8383
19.818
19.7758
19.7246
19.6727
19.6262
19.59
19.5674
19.5603
19.5697
19.5963
19.64
19.7001
19.7743
18.1367
18.1231
18.1656
18.2721
18.4376
18.6437
18.8627
19.0638
19.2245
19.3342
19.3897
19.3957
19.3691
19.3276
19.2831
19.2422
19.2088
19.1854
19.1728
19.1707
19.1792
19.1974
19.2244
19.2579
19.296
18.1691
18.1741
18.2367
18.358
18.5241
18.7091
18.8845
19.0292
19.1353
19.2037
19.2357
19.2339
19.2084
19.1721
19.1348
19.1018
19.0749
19.0547
19.0406
19.0313
19.026
19.0239
19.0239
19.025
19.0269
18.2491
18.3435
18.4938
18.6755
18.8562
19.0099
19.1256
19.2051
19.2546
19.2776
19.2765
19.2567
19.227
19.1951
19.165
19.1377
19.1126
19.0888
19.0649
19.0404
19.0157
18.991
18.9662
18.9411
18.4684
18.6572
18.8652
19.0529
19.1987
19.3014
19.3697
19.4124
19.4344
19.4376
19.4246
19.3998
19.369
19.3358
19.3016
19.2665
19.2299
19.1916
19.1518
19.1121
19.0728
19.034
18.9958
18.5797
18.8057
19.0427
19.2434
19.3899
19.4886
19.5534
19.5949
19.6187
19.6266
19.6185
19.5955
19.562
19.5227
19.4806
19.4366
19.3909
19.3436
19.2955
19.248
19.202
19.1575
19.1146
18.896
19.1514
19.3615
19.5105
19.6086
19.6728
19.7149
19.7413
19.7536
19.7501
19.7299
19.6968
19.6565
19.6124
19.5663
19.5184
19.469
19.419
19.3699
19.3228
19.2778
19.2349
18.8954
19.1501
19.3595
19.5077
19.6054
19.6692
19.7109
19.7368
19.7486
19.7446
19.7239
19.6904
19.6496
19.6052
19.5587
19.5106
19.461
19.4109
19.362
19.3151
19.2702
19.2275
18.8048
19.0404
19.2394
19.3843
19.4816
19.5451
19.5853
19.6077
19.6141
19.6043
19.5798
19.545
19.5045
19.4612
19.4163
19.3698
19.322
19.2734
19.2257
19.1796
19.1351
19.0924
19.0519
18.6567
18.8634
19.0494
19.1934
19.2943
19.361
19.4019
19.4218
19.4229
19.4075
19.3804
19.3473
19.3119
19.2757
19.2387
19.2007
19.1611
19.1205
19.0798
19.0401
19.0011
18.963
18.9262
18.4938
18.6747
18.854
19.006
19.1196
19.1967
19.2437
19.2642
19.2606
19.2384
19.2064
19.1722
19.1397
19.11
19.0827
19.0569
19.0314
19.0056
18.9798
18.9543
18.9287
18.9032
18.878
18.3585
18.5241
18.708
18.8816
19.0237
19.1264
19.1911
19.2195
19.2146
19.1863
19.1475
19.1079
19.0725
19.0432
19.0207
19.0045
18.9933
18.9864
18.9828
18.9816
18.9814
18.9821
18.983
18.4382
18.6437
18.861
19.0594
19.2162
19.3215
19.3727
19.3754
19.3462
19.3024
19.2556
19.2123
19.1765
19.1505
19.1352
19.1305
19.136
19.1512
19.1748
19.2051
19.2396
19.2784
19.3193
18.4336
18.6859
18.98
19.2763
19.5293
19.7059
19.7995
19.8223
19.8013
19.7585
19.7066
19.6539
19.6064
19.5688
19.5446
19.5356
19.543
19.5673
19.6083
19.6653
19.7368
19.8192
19.9178
18.5324
18.8675
19.2891
19.7575
20.1894
20.5099
20.7003
20.7812
20.7936
20.7675
20.7211
20.6662
20.6118
20.5655
20.5339
20.5224
20.5346
20.5732
20.6408
20.7391
20.8701
21.033
21.2189
18.7874
19.2754
19.9153
20.6852
21.4304
22.0162
22.4123
22.6439
22.7492
22.7641
22.728
22.6704
22.6108
22.5632
22.5379
22.5436
22.5874
22.6754
22.814
23.0099
23.2704
23.6032
24.0164
23.6673
24.823
25.7476
26.4454
26.9893
27.2797
27.3812
27.3919
27.3811
27.3931
27.4561
27.5904
27.8106
28.1275
28.5514
29.093
29.7633
30.5741
31.5396
26.1442
28.441
30.4698
31.9715
40.1619
40.7811
41.414
41.6839
41.842
42.0362
42.3339
42.7647
43.3346
44.0337
44.8471
45.7633
46.7778
47.8962
49.137
45.7393
51.6323
55.4931
56.4759
55.7302
81.3397
80.4563
79.3394
78.3091
77.3908
76.5632
75.8326
75.213
74.7142
74.3196
74.0353
73.8725
73.8518
106.21
157.792
136.982
123.067
113.739
158.4
146.307
136.524
128.551
121.925
116.319
111.521
107.385
103.801
100.69
98.0021
95.7095
351.934
384.258
294.035
231.699
258.866
226.828
201.645
181.438
165.397
152.566
142.115
133.459
126.186
120.003
114.696
110.116
841.463
577.495
458.946
350.944
301.22
264.275
235.501
212.493
193.671
178.057
164.965
153.91
144.478
136.101
128.698
385.756
347.461
312.691
282.642
257.141
235.136
216.166
199.818
185.689
173.428
162.725
153.289
144.899
18.8331
19.0406
19.3452
19.7496
20.2195
20.7056
21.1563
21.531
21.8087
21.9861
22.0719
22.0844
22.0524
22.008
19.1292
19.5343
20.163
21.0284
22.0229
23.0942
24.1435
25.0441
25.7054
26.1005
26.2594
26.2644
26.2432
26.1925
19.5447
20.309
21.5855
23.4106
25.5251
28.1868
31.0508
33.5546
35.294
36.1569
36.3221
36.3251
36.283
36.2001
36.1236
36.0797
36.0874
36.1991
36.568
37.1375
37.8854
38.7913
19.3865
20.1147
21.5236
24.029
27.9789
29.1986
35.2844
44.2228
53.1578
59.4175
62.3129
62.4707
61.7826
77.0773
75.504
74.2694
73.4237
73.2904
74.0981
75.4251
77.0764
78.9024
80.7975
19.6771
20.839
23.2763
28.126
30.631
45.6502
78.3744
124.851
156.217
168.253
166.852
159.85
151.494
142.762
173.737
167.497
163.879
162.393
161.464
160.316
158.832
156.904
154.533
19.8969
21.5629
25.3457
27.9597
45.3891
100.923
193.451
455.182
523.19
508.323
497.044
428.402
364.384
360.874
328.664
344.255
316.294
291.291
268.978
248.971
231.185
215.561
201.883
189.901
19.9314
21.7414
23.2275
32.95
71.7619
172.511
1013.71
962.084
667.758
509.293
430.478
358.697
316.486
284.11
258.643
237.99
220.919
206.584
194.388
183.898
19.696
21.4055
22.8996
34.4912
64.1215
363.614
659.441
505.125
412.479
342.871
305.961
277.537
254.514
235.314
219.213
205.621
194.086
184.266
19.2422
20.5427
23.9114
27.1384
54.6237
160.543
1014.21
895.517
573.245
412.788
319.984
281.824
253.673
231.934
214.557
200.377
188.633
178.778
170.419
163.284
157.18
18.8043
19.4064
20.9176
22.1446
28.5588
45.8027
87.0878
230.016
305.799
312.002
301.706
283.615
220.806
204.421
192.742
177.669
171.512
165.722
160.311
155.241
150.526
146.199
142.275
138.754
135.638
132.934
18.4956
18.7191
19.2897
20.3479
21.0601
23.588
27.8362
33.6943
40.5717
47.3633
54.3363
61.1211
66.5866
69.8179
75.1132
76.0647
76.7337
77.6197
78.8342
80.3512
81.9668
83.6069
85.2204
86.7845
88.3126
89.8486
18.3099
18.3767
18.5866
19.0041
19.6596
20.525
21.6893
23.3896
25.654
27.8519
29.6429
31.6152
32.9745
33.7349
34.2213
34.5663
34.9255
35.4026
36.0757
36.9814
38.1466
39.5855
41.3097
43.3112
45.5783
48.0945
18.2067
18.2122
18.3057
18.5214
18.8821
19.4157
20.1375
21.0914
22.1006
22.8961
23.4036
23.7728
24.0101
24.131
24.1896
24.232
24.2991
24.4229
24.6291
24.935
25.3612
25.9232
26.6398
27.5313
28.6168
29.9107
18.1571
18.141
18.1933
18.3362
18.5865
18.9571
19.4429
19.9966
20.5133
20.8994
21.1127
21.2069
21.2382
21.2347
21.217
21.2027
21.2085
21.2491
21.3387
21.4879
21.7045
21.9991
22.3811
22.8588
23.4389
24.1088
18.1467
18.1296
18.1736
18.2938
18.4962
18.7775
19.1088
19.4477
19.7449
19.964
20.0789
20.1094
20.0939
20.0594
20.0222
19.9941
19.9849
20.0035
20.0578
20.1529
20.2932
20.4837
20.7272
21.0238
21.369
18.1677
18.1644
18.2216
18.3475
18.5367
18.7702
19.0187
19.2453
19.4299
19.5604
19.6294
19.6419
19.6213
19.5903
19.5642
19.5521
19.5609
19.5952
19.658
19.752
19.8798
20.043
20.2407
20.4668
20.7169
18.2142
18.2379
18.3268
18.4814
18.6839
18.9034
19.1071
19.2709
19.3925
19.4802
19.5342
19.5515
19.5426
19.5262
19.5162
19.5192
19.5386
19.575
19.6284
19.6979
19.7834
19.8852
20.001
20.1273
20.2601
18.342
18.48
18.6844
18.922
19.1507
19.3405
19.4823
19.5857
19.6638
19.7209
19.7555
19.7706
19.7779
19.7878
19.8051
19.831
19.8645
19.9034
19.9444
19.9869
20.0319
20.0788
20.1246
20.1682
18.6589
18.9306
19.2232
19.4821
19.6836
19.8331
19.9488
20.0444
20.1258
20.1918
20.2396
20.2732
20.2998
20.3246
20.349
20.3726
20.3936
20.4095
20.421
20.4306
20.438
20.4407
20.4378
18.8222
19.1627
19.5173
19.8183
20.0454
20.2146
20.3515
20.4716
20.581
20.6781
20.7554
20.808
20.8409
20.8629
20.8793
20.8914
20.8984
20.8985
20.8928
20.8843
20.8734
20.8574
20.8356
19.3032
19.6999
20.0335
20.2844
20.4737
20.6309
20.7735
20.911
21.0419
21.1531
21.2327
21.2834
21.3172
21.3421
21.3603
21.3717
21.3742
21.3691
21.3604
21.3486
21.3308
21.3051
19.3022
19.6977
20.0297
20.2793
20.4677
20.624
20.7658
20.9024
21.0322
21.1423
21.221
21.2709
21.3039
21.328
21.3457
21.3565
21.3588
21.3541
21.3462
21.3352
21.3182
21.2935
19.1614
19.5137
19.8118
20.0364
20.2038
20.3393
20.4576
20.565
20.6599
20.7349
20.7854
20.8163
20.8364
20.851
20.8615
20.8672
20.8662
20.8597
20.8505
20.8392
20.8232
20.8014
20.7745
18.9302
19.221
19.4775
19.6768
19.8246
19.9387
20.0323
20.1114
20.1741
20.2184
20.2485
20.2716
20.2928
20.3135
20.3337
20.3517
20.365
20.374
20.3816
20.3874
20.389
20.3855
20.3773
18.6849
18.9216
19.1488
19.337
19.4768
19.5778
19.6533
19.7082
19.7406
19.7534
19.7585
19.7659
19.7803
19.8029
19.833
19.8683
19.9058
19.9447
19.9856
20.0286
20.0706
20.1105
20.1482
18.4825
18.6845
18.903
19.105
19.2661
19.3837
19.4664
19.5155
19.5287
19.5163
19.4967
19.4834
19.4828
19.498
19.5303
19.5794
19.6446
19.7257
19.823
19.9346
20.0563
20.1843
20.3135
18.5383
18.7716
19.019
19.243
19.4231
19.548
19.6119
19.6202
19.5955
19.5602
19.5291
19.5112
19.5126
19.5385
19.5916
19.6741
19.7884
19.9362
20.1166
20.325
20.5568
20.8054
21.0561
18.4976
18.7786
19.1081
19.4457
19.74
19.9547
20.0665
20.0951
20.0781
20.0414
20.001
19.9685
19.9534
19.9645
20.0093
20.0938
20.2212
20.3961
20.6216
20.8979
21.2218
21.5961
22.0212
18.5868
18.9553
19.4393
20.0048
20.5306
20.9198
21.1371
21.2359
21.2704
21.2687
21.2515
21.2373
21.2422
21.2811
21.3669
21.5112
21.7215
22.0086
22.3821
22.8507
23.4226
24.0888
24.8518
18.882
19.411
20.1515
21.0942
22.1444
22.9486
23.4655
23.8453
24.1018
24.2459
24.3307
24.4043
24.506
24.6682
24.9125
25.262
25.7365
26.3567
27.1441
28.1218
29.3129
30.7366
32.3834
25.6046
27.8213
29.6975
31.9455
33.6052
34.624
35.3316
35.8799
36.4501
37.15
38.0685
39.2553
40.7337
42.5069
44.5666
46.9035
49.5024
52.3474
55.4333
29.7027
33.6829
37.4573
40.9716
43.9455
45.8106
73.9007
75.5592
76.8956
78.3309
79.9788
81.8456
83.7857
85.6831
87.4934
89.2025
90.8313
92.4283
94.0663
85.3117
95.611
102.942
107.806
109.852
109.447
166.19
161.15
156.458
152.066
147.929
144.06
140.491
137.239
134.306
131.696
129.418
127.499
553.031
567.55
461.862
351.152
348.375
297.428
317.539
277.553
248.5
226.436
209.087
195.129
183.702
174.202
166.205
159.417
153.634
148.724
1190.02
668.129
499.051
393.232
345.774
306.267
276.091
252.066
232.292
215.911
202.234
190.736
181.02
172.789
165.816
670.725
544.122
446.207
363.067
319.425
285.614
259.286
238.172
220.843
206.347
194.07
183.564
174.497
166.621
451.916
340.339
313.75
289.623
267.646
247.613
229.84
214.255
200.629
188.699
178.219
168.973
160.785
18.7246
18.8728
19.1115
19.4569
19.8888
20.3689
20.846
21.2714
21.6148
21.8661
22.0257
22.1011
22.1078
22.1051
22.0829
18.934
19.2327
19.7349
20.4874
21.4212
22.523
23.6843
24.7552
25.6152
26.2132
26.541
26.639
26.6936
26.699
26.6647
19.2239
19.7941
20.8222
22.4135
24.4702
27.4263
30.7566
33.8108
36.14
37.5658
38.0875
38.1666
38.1253
37.9711
37.8437
37.6722
37.4954
37.3368
37.2036
37.1064
37.0516
37.0429
37.0827
19.613
20.6641
22.6614
26.118
27.5772
35.0149
45.8722
56.3103
64.1784
68.6951
69.9812
69.2231
67.5648
65.7449
78.2858
75.9663
73.9454
72.2542
70.9028
69.8644
69.0987
68.5646
68.2269
20.0808
21.8828
25.5618
27.9271
44.3826
87.9069
132.812
177.133
198.679
201.812
194.174
183.532
169.768
155.602
144.047
160.118
152.453
146.266
141.217
137.025
133.466
130.361
127.579
20.5195
23.1448
25.1024
39.2026
101.302
269.667
515.925
1314.82
663.064
750.37
712.709
555.392
441.422
343.572
328.109
290.569
289.877
265.461
245.519
228.688
214.332
201.878
190.959
181.307
20.7357
23.9321
27.4181
53.3538
152.385
893.45
642.492
477.41
373.102
325.798
291.218
264.497
243.184
225.744
211.172
198.794
188.03
20.4781
23.4389
27.3734
57.5359
319.711
655.526
465.198
322.639
268.094
234.527
210.843
193.533
180.093
169.225
160.105
152.204
19.7656
21.7962
24.0529
45.7806
129.414
781.794
559.759
418.362
302.841
268.211
242.675
223.025
207.464
194.709
183.967
174.735
166.705
159.629
19.0639
20.2541
22.9982
26.1991
47.0315
141.491
355.014
662.232
808.582
469.055
664.234
474.376
424.912
408.723
360.225
294.208
270.148
249.906
232.366
217.051
203.791
192.319
182.404
173.812
166.417
160.006
18.6171
18.9968
19.9596
21.6838
23.3844
29.058
38.3045
49.9634
68.0981
92.1098
115.851
143.257
166.64
179.987
184.789
178.125
172.49
167.818
163.837
160.301
156.989
153.811
150.738
147.786
145.022
142.52
18.3672
18.4837
18.7892
19.3603
20.145
21.1458
22.5549
23.8725
29.4525
38.5942
47.104
62.6365
66.6447
68.1524
68.831
69.2503
69.991
71.4371
73.5905
76.3439
79.576
83.1644
86.911
90.6166
94.2178
97.666
18.241
18.264
18.3872
18.65
19.0581
19.6588
20.479
21.0684
23.1276
25.7297
27.7214
30.6808
32.027
32.8267
33.3913
33.9863
34.7443
35.7469
37.1029
38.8307
40.9266
43.3676
46.1541
49.2908
52.7672
18.19
18.1845
18.254
18.4231
18.7136
19.1462
19.778
20.627
21.5446
22.3851
22.9039
23.178
23.6315
24.0186
24.3996
24.841
25.3974
26.1064
27.0063
28.1298
29.4877
31.0821
32.9107
34.9705
37.2419
18.1919
18.1895
18.256
18.4084
18.6579
18.9941
19.4297
19.8938
20.3104
20.6715
20.907
21.0104
21.1487
21.3075
21.4981
21.7518
22.1016
22.5773
23.2031
23.9931
24.9613
26.1048
27.4115
28.8479
30.3809
18.2359
18.2598
18.3569
18.5366
18.7915
19.0959
19.4196
19.6983
19.9288
20.1298
20.2635
20.32
20.3928
20.4977
20.6616
20.9101
21.2667
21.7456
22.3576
23.1083
23.9784
24.9738
26.0736
27.2326
28.4372
18.3154
18.388
18.5489
18.7969
19.1019
19.413
19.6861
19.8923
20.0615
20.2169
20.3529
20.4484
20.5178
20.6174
20.7742
20.9928
21.2781
21.6341
22.0638
22.5674
23.1493
23.8136
24.5437
25.3062
26.0743
18.5659
18.8268
19.1884
19.5915
19.9572
20.2476
20.464
20.6539
20.839
21.0226
21.1882
21.3334
21.4833
21.6582
21.8673
22.1164
22.4064
22.7299
23.0717
23.4281
23.8048
24.1973
24.5754
24.9418
19.1623
19.6929
20.263
20.7719
21.1864
21.5252
21.8243
22.112
22.4027
22.6815
22.9316
23.159
23.3782
23.5985
23.8215
24.0461
24.2647
24.4623
24.6421
24.8156
24.9786
25.1137
25.2198
19.4756
20.1916
20.9637
21.648
22.2062
22.6677
23.0878
23.495
23.9069
24.3115
24.6709
24.9562
25.1802
25.3744
25.5511
25.7132
25.8557
25.964
26.0449
26.1159
26.1729
26.201
26.1995
20.4999
21.4233
22.2554
22.9454
23.5248
24.0704
24.6277
25.2231
25.8296
26.3676
26.7789
27.0763
27.3156
27.5237
27.7076
27.8609
27.9686
28.0442
28.1067
28.1498
28.1547
28.1196
20.4972
21.4168
22.244
22.9298
23.5067
24.0503
24.6054
25.1983
25.8022
26.3382
26.748
27.0441
27.2823
27.4896
27.6734
27.8276
27.9383
28.0186
28.0856
28.1334
28.1428
28.1118
20.1888
20.9558
21.6345
22.1889
22.6494
23.0697
23.4768
23.888
24.2912
24.6493
24.9332
25.1548
25.3462
25.5203
25.6803
25.8198
25.9249
26.0029
26.0712
26.1259
26.1517
26.148
26.1248
19.6925
20.2593
20.7644
21.176
21.514
21.813
22.1001
22.3885
22.6627
22.9073
23.1285
23.3399
23.5515
23.7648
23.9792
24.1874
24.3737
24.543
24.7061
24.8593
24.9853
25.0826
25.1611
19.1899
19.592
19.9562
20.2451
20.4611
20.6497
20.8399
21.0302
21.1998
21.3467
21.4966
21.6687
21.8717
22.1103
22.3855
22.6898
23.0081
23.3367
23.6825
24.0399
24.3861
24.7244
25.0501
18.799
19.1031
19.4129
19.6843
19.887
20.0499
20.1965
20.3234
20.4118
20.4749
20.5681
20.7169
20.9256
21.1977
21.5399
21.9549
22.4425
23.0089
23.6601
24.3782
25.1287
25.8834
26.6167
18.7947
19.1
19.4237
19.7005
19.9252
20.1166
20.2405
20.2887
20.3457
20.4283
20.5634
20.7759
21.0849
21.5105
22.0642
22.7509
23.5509
24.4725
25.4993
26.5921
27.7373
28.8895
29.949
18.6608
18.9972
19.432
19.9015
20.3186
20.6698
20.8933
20.9879
21.1096
21.2441
21.404
21.6204
21.924
22.3454
22.9095
23.6337
24.5288
25.5923
26.8164
28.17
29.6211
31.1952
32.8293
18.7149
19.1436
19.7906
20.6488
21.5857
22.4212
22.9426
23.2167
23.6643
24.0413
24.4076
24.8293
25.3614
26.0455
26.9198
28.0135
29.3321
30.8864
32.6766
34.7031
36.9571
39.335
41.9258
19.0614
19.6576
20.6366
22.1545
22.4895
23.5373
24.4678
30.5535
32.006
32.9485
33.6684
34.417
35.3134
36.4611
37.9605
39.8401
42.0934
44.7201
47.7181
51.093
54.8444
58.8893
62.9986
26.0777
30.5916
34.5776
65.3193
70.8617
73.5265
74.8906
75.7329
76.9069
78.687
81.1279
84.1565
87.6539
91.2153
94.7464
98.1891
101.48
104.608
107.609
41.2637
56.8472
73.7095
93.1847
108.991
117.118
182.664
177.311
172.664
168.696
165.204
161.949
158.797
155.663
152.545
149.506
146.629
143.994
141.671
151.642
201.11
204.379
236.55
244.484
241.732
287.802
264.915
245.616
228.878
214.249
201.51
190.465
180.885
172.552
165.296
158.97
153.441
1842.35
1006.15
597.197
541.023
496.079
393.23
307.706
271.616
245.081
224.633
208.456
195.29
184.275
174.91
166.802
159.681
153.362
606.088
436.327
322.971
270.681
238.003
214.533
196.998
183.189
171.928
162.463
154.297
147.095
140.626
654.064
488.142
373.278
325.248
289.805
262.231
240.243
222.319
207.421
194.694
183.708
174.162
165.825
522.545
411.924
291.675
267.299
247.461
230.712
216.427
204.022
193.131
183.484
174.886
167.194
160.312
18.7442
18.9138
19.1837
19.5511
19.9952
20.4686
20.9163
21.303
21.6099
21.8332
21.9735
22.0403
22.0693
22.095
22.1023
18.9898
19.352
19.9405
20.7374
21.7767
22.9584
24.1133
25.1996
26.0398
26.5869
26.837
26.8964
26.9601
26.9916
26.9862
19.3551
20.0912
21.2921
23.0178
25.8663
29.3347
32.6472
36.8772
39.4183
40.6121
40.5473
40.6266
40.5629
40.3387
39.9986
39.6082
39.2105
38.831
38.4864
38.1795
37.9093
37.675
37.4756
19.8861
21.2908
23.6846
24.9155
31.6946
43.1309
54.621
86.7168
89.5796
89.3317
87.5225
85.5716
81.0744
75.7259
70.8574
73.5233
71.1509
69.0256
67.1569
65.5301
64.1167
62.8888
61.8227
20.5811
23.0509
24.5774
35.0197
72.1312
122.953
173.786
194.832
201.086
197.994
188.951
176.983
162.796
147.532
133.732
123.64
134.523
127.969
122.233
117.215
112.819
108.946
105.51
21.308
25.341
29.6383
59.5732
179.43
488.003
550.737
514.215
433.181
416.234
446.095
548.735
547.337
396.153
340.656
281.222
271.757
242
219.497
201.643
187.057
174.879
164.532
155.622
21.3681
23.08
36.7387
71.2274
715.283
939.835
501.749
384.796
310.224
275.687
249.134
227.981
210.729
196.365
184.207
173.778
21.0389
22.8026
37.5755
88.1428
1002.67
451.272
374.775
288.677
259.478
238.129
221.231
207.305
195.491
185.237
176.193
20.2042
21.3951
31.0613
87.5033
739.51
341.729
278.825
258.931
232.615
212.174
200.112
191.658
183.528
175.976
169.044
162.726
156.88
19.4671
21.0583
22.9477
36.2229
88.5803
353.041
1008.87
441.595
490.161
612.559
665.882
732.417
552.882
523.682
385.521
324.298
274.079
253.389
235.658
219.796
206.079
194.213
183.874
174.794
166.804
159.848
18.7717
19.3929
20.7102
22.2273
28.1751
39.5603
53.682
70.3835
112.09
249.223
409.543
444.85
425.134
386.538
345.476
281.533
262.363
246.1
231.978
219.426
208.016
197.791
188.536
180.067
172.466
165.739
18.4402
18.624
19.0591
19.7507
20.6212
21.711
22.8757
28.4592
51.9185
129.855
211.297
224.972
248.88
232.572
216.612
203.146
192.265
183.673
177.014
171.826
167.635
164.13
161.109
158.438
155.929
153.379
18.2895
18.3399
18.5077
18.8205
19.2666
19.8447
20.391
23.1348
30.2046
46.0745
57.0495
63.3308
91.6045
92.2788
92.0672
91.9885
92.5022
93.7284
95.6158
98.0523
100.581
103.08
105.548
107.992
110.388
18.2427
18.2589
18.3623
18.576
18.9159
19.3638
19.7275
21.2597
23.8869
27.5673
31.0604
32.7746
43.0183
46.2275
48.968
51.4579
54.0368
56.8292
59.8572
63.1114
66.5595
70.1216
73.7421
77.317
80.7173
18.2684
18.298
18.413
18.6331
18.964
19.3521
19.5514
20.409
21.4291
22.6434
24.1282
25.0556
28.509
30.324
32.1806
34.1753
36.458
39.0869
42.0748
45.3494
48.9109
52.6292
56.399
59.9944
63.4583
18.3546
18.4368
18.6223
18.9218
19.3037
19.7659
20.3025
20.7805
21.1771
21.2556
21.6549
22.0354
24.1472
25.7258
27.5255
29.6483
32.1579
35.0424
38.2871
41.5749
44.8939
48.2824
51.6722
54.9688
58.2302
18.4973
18.6765
19.0038
19.4732
19.9972
20.5279
20.976
21.2853
21.7249
22.1808
22.6795
23.0994
23.5021
24.5987
26.0004
27.4472
29.0373
30.8477
32.9375
35.3128
37.9997
40.9514
44.0472
47.0278
49.8037
19.0164
19.5793
20.3245
21.1283
21.8559
22.4101
22.8234
23.4266
24.0144
24.6218
25.2124
25.7713
26.4089
27.2104
28.232
29.5165
31.0633
32.8045
34.593
36.3689
38.1644
39.9515
41.5293
20.3277
21.5628
22.9502
24.2809
25.4408
26.409
27.2353
28.005
28.8364
29.6942
30.4931
31.2711
32.0716
32.9141
33.7904
34.7122
35.6366
36.4314
37.1602
37.9025
38.6057
39.164
21.0592
22.8761
25.0207
27.0285
28.7257
30.1353
31.3529
32.4508
33.5907
34.7692
35.8229
36.6107
37.2041
37.7177
38.1812
38.6101
38.9807
39.202
39.3587
39.5276
39.6613
39.6973
23.6953
26.4567
29.1026
31.3432
33.2428
35.1165
37.096
39.2616
41.2897
42.8675
43.8943
44.5363
45.0358
45.4514
45.8174
46.1031
46.2309
46.2824
46.3508
46.3722
46.2696
46.0703
23.6877
26.4353
29.0639
31.2902
33.183
35.0521
37.0248
39.1844
41.2102
42.7902
43.821
44.4661
44.9705
45.3979
45.7848
46.0946
46.2432
46.3156
46.406
46.4484
46.3617
46.1765
22.8709
25.0115
27.0214
28.7228
30.1476
31.383
32.4967
33.651
34.8432
35.9059
36.6962
37.2841
37.7933
38.2514
38.6741
39.0332
39.2408
39.3837
39.5376
39.6564
39.6754
39.6297
21.5644
22.9483
24.2778
25.437
26.4148
27.2537
28.0319
28.87
29.7272
30.5151
31.2734
32.0443
32.8518
33.6863
34.5571
35.432
36.1787
36.8548
37.5379
38.1841
38.6902
39.1048
39.5348
20.3288
21.132
21.8588
22.4131
22.8326
23.4489
24.1308
24.824
25.4473
26.008
26.6302
27.3965
28.3591
29.5477
30.9589
32.528
34.1202
35.706
37.3274
38.9433
40.3954
41.7748
43.113
19.4748
19.9941
20.522
20.9683
21.2726
21.6919
22.1211
22.5858
22.9853
23.372
24.4502
25.8305
27.2497
28.799
30.5688
32.629
34.9772
37.6482
40.6074
43.7115
46.7117
49.5007
52.051
19.3083
19.7726
20.3142
20.7966
21.1821
21.1959
21.4254
21.7249
23.8385
25.1837
26.7596
28.6758
30.9396
33.6136
36.6831
39.8102
42.9986
46.2894
49.6267
52.9239
56.2218
59.3315
61.8478
18.9693
19.3603
19.5535
20.1602
20.7698
21.4181
22.1871
22.7206
28.0959
29.6747
31.3098
33.0956
35.1518
37.5711
40.3587
43.4698
46.8946
50.4938
54.1967
57.7421
61.1742
64.5361
67.657
18.9188
19.368
19.6475
20.7405
22.3034
24.2596
26.3558
27.5991
42.9046
45.8433
48.4172
50.7852
53.278
56.0142
59.0124
62.2529
65.6913
69.2572
72.9019
76.5885
80.1429
83.368
86.9132
19.2698
19.8618
20.2401
22.1044
26.6794
33.7053
39.8501
42.9063
90.5996
91.8172
92.1615
92.5642
93.5024
95.1083
97.3426
100.112
102.851
105.495
108.061
110.579
113.028
115.401
117.426
38.5039
57.6217
100.704
117.066
258.005
241.296
224.881
210.641
198.963
189.645
182.35
176.562
171.802
167.755
164.234
161.123
158.004
155.134
152.506
73.2259
171.424
334.204
381.002
370.943
335.008
298.049
278.106
259.802
244.155
230.329
217.604
206.32
196.103
186.737
178.31
170.837
164.236
158.356
318.119
534.948
510.496
467.124
410.074
358.477
311.145
274.072
252.001
233.774
218.056
204.477
192.654
182.338
173.317
165.37
158.054
150.754
824.11
764.275
1122.34
1362.38
703.458
477.786
323.668
275.892
227.693
207.519
194.983
186.346
178.76
171.559
164.877
158.776
153.184
147.98
445.15
281.841
272.482
285.353
256.646
235.629
218.947
205.187
193.519
183.403
174.489
166.541
159.398
1058.47
485.638
396.728
311.425
277.05
250.503
229.305
212.005
197.61
185.431
174.992
165.956
158.084
873.175
425.603
277.549
247.228
224.324
206.158
191.318
178.927
168.395
159.319
151.423
144.516
138.469
18.7452
18.9296
19.2244
19.6202
20.0847
20.5572
20.9875
21.3427
21.6182
21.8162
21.9377
21.9944
22.0369
22.0839
22.118
19.0209
19.4306
20.1101
21.023
22.177
23.3987
24.6275
25.6361
26.3587
26.7987
26.9649
27.0141
27.0709
27.1198
27.1414
19.4519
20.3216
21.8142
23.9704
27.3421
30.9321
35.7244
38.9419
40.7195
41.4032
41.2705
41.1586
41.0846
40.8789
40.5277
40.121
39.643
39.1715
38.7433
38.3553
38.0086
37.7018
37.4331
20.1184
21.8341
25.1335
26.9793
36.6871
49.3458
82.82
86.8328
87.7979
87.0909
85.2689
82.6398
80.2849
75.2671
70.0436
71.0983
68.5597
66.2158
64.1179
62.2588
60.6151
59.1597
57.8685
21.0427
24.0999
26.5656
45.3544
96.6793
152.326
182.855
195.166
193.421
186.874
178.351
165.881
154.239
140.348
126.579
113.855
125.828
117.906
111.101
105.226
100.127
95.6741
91.7617
21.8699
23.6017
36.5171
102.497
370.229
983.945
467.589
378.113
384.571
382.304
369.405
387.196
540.783
465.641
305.046
273.387
224.07
216.034
194.274
177.037
162.974
151.267
141.36
132.871
22.3925
25.2267
46.0782
142.338
558.74
394.34
301.385
261.582
232.977
210.889
193.132
178.464
166.099
155.521
21.9991
25.0259
49.8281
243.411
560.092
392.925
301.795
265.382
238.98
218.318
201.539
187.567
175.664
165.296
20.8647
22.9248
40.744
123.408
356.099
353.355
286.813
257.639
235.285
216.975
201.713
188.726
177.494
167.663
158.934
19.8625
22.0795
25.2537
47.8494
236.711
619.251
219.131
261.082
478.563
574.718
641.44
696.647
580.497
441.861
321.828
280.285
254.333
240.455
226.15
212.618
200.246
189.038
178.92
169.786
161.473
18.9185
19.7742
21.5959
23.9334
33.2109
51.4038
64.3175
81.0682
125.295
881.54
559.556
433.659
362.295
319.709
300.174
280.054
260.135
242.449
227.339
214.803
203.819
191.575
180.273
170.877
162.681
18.5134
18.7717
19.3489
20.1978
21.1757
22.4546
23.995
32.565
142.067
996.112
551.179
422.449
365.851
322.322
289.48
264.143
244.462
229.309
216.968
206.621
197.933
190.401
183.396
176.601
169.596
18.3466
18.4369
18.6714
19.0516
19.4895
19.8706
21.2852
28.2262
114.592
265.914
352.24
452.028
386.531
334.509
295.125
264.883
241.216
222.332
207
194.347
183.835
175.127
167.972
162.154
157.283
18.3152
18.371
18.5365
18.8274
19.1885
19.4688
20.6837
26.4702
62.5025
86.3758
124.96
177.809
179.042
256.426
236.405
218.932
204.08
191.601
181.154
172.318
164.789
158.232
152.417
147.979
143.881
18.3826
18.4751
18.6869
19.0399
19.4521
19.6999
20.8227
24.403
32.5515
49.3391
61.1047
73.6777
75.1214
128.496
126.216
124.948
124.694
125.335
126.66
127.561
129.506
130.62
130.996
128.611
125.072
18.5426
18.7429
19.1174
19.668
20.238
20.4598
21.3946
23.1099
25.0156
28.4505
34.4732
39.4302
43.2403
79.0597
84.4453
90.0608
96.2508
102.739
109.482
107.902
106.878
107.94
110.45
114.089
118.231
18.8019
19.2086
19.919
20.8932
21.876
22.0178
22.8297
23.7496
28.1576
28.2601
29.9274
32.2822
33.9746
51.042
58.085
58.1174
60.3151
64.8484
71.4201
80.0851
90.0106
100.123
109.563
117.282
122.955
19.9031
21.1633
22.8245
24.7276
24.8492
25.659
26.5161
32.9095
32.6844
33.0789
34.1996
35.4441
37.3939
40.5349
45.2082
51.3141
58.6713
67.0455
75.4683
83.119
89.8795
95.7922
100.617
22.9552
26.0957
30.3088
34.5588
38.173
40.9034
40.5857
40.7411
41.8006
43.9122
46.1881
48.7762
52.1882
56.4119
61.1069
66.0722
71.1183
75.5189
78.9137
82.2115
85.2935
87.7177
36.968
43.5716
48.7759
52.6901
52.1961
52.2837
53.4397
55.689
58.2517
60.3299
61.7752
62.9351
63.9075
64.8189
65.7471
66.3849
66.534
66.9054
67.3931
67.7768
41.6994
50.8231
57.8986
63.4318
69.0673
74.8105
80.9875
80.0569
80.0589
80.6035
80.6347
80.5647
80.5213
80.5996
80.8151
80.7556
80.2749
79.9662
79.7917
79.4458
78.7222
41.6325
50.6981
57.7122
63.2254
68.8457
74.5723
80.7496
80.2861
81.2385
82.7157
83.5945
84.3143
85.0432
85.9092
86.8917
87.4918
87.646
87.9456
88.3933
88.5414
88.2102
37.075
43.7937
49.0532
53.0723
52.999
53.9571
56.0457
59.4596
63.1863
65.9439
67.4671
68.4987
69.2762
69.9597
70.6172
70.8925
70.6623
70.5915
70.6015
70.4191
69.8811
26.1186
30.3714
34.6662
38.2883
41.0754
41.2317
42.1848
43.9345
46.6062
49.3376
51.79
54.1145
56.399
58.6335
60.932
63.4209
65.5708
67.0919
68.7849
70.5396
72.054
72.9731
74.0352
22.8389
24.7474
25.3701
26.863
28.3137
33.137
35.2386
35.4709
36.9841
38.9156
41.3811
44.7785
49.4125
55.2777
62.0596
69.2409
75.5683
80.5975