/*--------------------------------*- C++ -*----------------------------------*\
  =========                 |
  \\      /  F ield         | OpenFOAM: The Open Source CFD Toolbox
   \\    /   O peration     | Website:  https://openfoam.org
    \\  /    A nd           | Version:  13
     \\/     M anipulation  |
\*---------------------------------------------------------------------------*/
FoamFile
{
    format      ascii;
    class       volScalarField;
    location    "900";
    object      p;
}
// * * * * * * * * * * * * * * * * * * * * * * * * * * * * * * * * * * * * * //

dimensions      [0 2 -2 0 0 0 0];

internalField   nonuniform List<scalar> 
169916
(
11.0611
8.31553
5.02005
1.32352
-2.46165
-5.88973
-8.54748
-10.2295
-10.9912
-10.9855
-10.3451
-9.18271
-7.64294
-5.93448
12.444
9.23808
5.16744
0.371825
-4.70804
-9.33634
-12.8814
-14.8868
-15.5094
-15.0601
-13.767
-11.8077
-9.38436
-6.8506
14.5085
10.8527
5.83201
-0.505591
-7.46426
-13.7464
-18.4993
-20.9668
-21.4205
-20.3204
-18.0305
-14.9219
-11.2257
-7.54792
-4.52955
-2.28815
-0.717975
0.312411
0.920276
1.21147
1.27853
1.19701
19.9278
17.5652
13.6337
7.55523
-0.956889
-11.1922
-17.6024
-24.3764
-27.6396
-28.1394
-26.2867
-22.7495
-17.6604
-12.23
-7.26203
-3.70046
-1.23135
0.392427
1.36582
1.85724
2.01178
1.94946
1.76091
23.6993
21.9855
18.4217
11.8659
1.17036
-10.3799
-24.8823
-36.814
-42.2779
-41.6175
-36.5651
-29.373
-21.0992
-13.2052
-5.34456
-2.0743
0.0902284
1.46073
2.20404
2.45971
2.38707
2.12724
1.78214
28.118
27.7727
25.8699
21.0383
10.2003
-6.95471
-32.9587
-58.1134
-64.775
-63.5635
-51.2742
-35.5311
-22.7219
-10.8881
-1.53443
1.00837
1.91862
2.33401
2.45119
2.30313
1.97806
1.57148
1.14989
0.762333
32.4043
33.7919
34.7009
30.8009
25.5883
9.81085
-18.0914
-67.022
-91.1078
-127.484
-75.8618
-41.6029
-22.4109
-9.04337
-3.66598
-1.63033
0.201861
1.14221
1.43735
1.33264
1.00665
0.596117
0.181255
-0.186395
-0.45579
35.4826
37.9673
40.6669
40.739
40.8608
35.3734
17.3214
-26.8687
-49.0813
-90.6889
-44.2259
-26.0471
-11.43
-5.83465
-4.15312
-2.24761
-0.821275
-0.0682403
0.139352
0.0108569
-0.272056
-0.602028
-0.913603
-1.14277
36.8275
39.3179
41.8759
43.3658
44.0467
40.1481
30.2593
8.3626
-17.1669
-68.6289
-79.5629
-58.3827
-29.3377
-14.7222
-9.18265
-5.62821
-3.55928
-1.79423
-0.71194
-0.293103
-0.28247
-0.477486
-0.769344
-1.08546
-1.35309
-1.49602
36.7465
38.5152
39.8873
40.0631
39.5823
34.0524
23.1481
6.91702
-11.287
-28.2019
-37.4325
-34.8058
-25.0719
-15.888
-9.48181
-6.94456
-4.52838
-2.45363
-1.15492
-0.568161
-0.437158
-0.570317
-0.855704
-1.21109
-1.56016
-1.82828
35.9263
36.8992
37.225
36.2902
33.2669
27.8158
21.2128
10.1842
-1.46519
-12.9252
-20.8631
-22.6618
-17.3948
-13.6451
-10.5827
-7.87582
-5.33252
-3.27401
-1.93059
-1.23428
-1.00677
-1.09761
-1.39661
-1.8144
-2.27187
-2.69728
34.8773
35.2061
34.8418
33.3765
30.3616
25.6038
18.9997
11.1232
2.47241
-5.90297
-12.0294
-14.6276
-14.3539
-12.2633
-9.86607
-7.53321
-5.43294
-3.75469
-2.61823
-2.00375
-1.81129
-1.93137
-2.27021
-2.75132
-3.31148
-3.89526
33.8667
33.7112
32.8872
31.1349
28.2074
23.9809
18.4695
11.8764
4.69853
-2.15897
-7.42476
-10.2465
-10.7893
-9.89626
-8.44259
-6.86337
-5.37904
-4.15351
-3.30104
-2.84986
-2.75829
-2.95842
-3.38291
-3.9729
-4.67712
-5.44956
33.0104
32.4931
31.3401
29.3948
26.5197
22.6452
17.8084
12.1877
6.19797
0.514435
-4.05442
-6.92476
-8.07023
-7.99027
-7.26562
-6.29298
-5.31258
-4.48972
-3.93442
-3.69251
-3.75467
-4.08304
-4.63331
-5.3616
-6.22608
-7.1864
32.3479
31.5521
30.1454
28.0369
25.1591
21.495
17.1084
12.1816
7.0654
2.25501
-1.73496
-4.50978
-5.97142
-6.39049
-6.19421
-5.72475
-5.20241
-4.77421
-4.53738
-4.54125
-4.79354
-5.2795
-5.97614
-6.85409
-7.87684
31.8782
30.8625
29.2481
26.9844
24.0564
20.5034
16.4329
12.037
7.60472
3.47947
-0.0263932
-2.65774
-4.30166
-5.0869
-5.31754
-5.275
-5.15151
-5.07616
-5.13563
-5.37747
-5.81755
-6.4572
-7.29173
-8.30321
-9.45956
31.5802
30.3909
28.6017
26.1861
23.1729
19.6607
15.8064
11.8075
7.89047
4.27674
1.14676
-1.347
-3.10429
-4.16793
-4.73631
-5.03386
-5.23172
-5.44648
-5.75523
-6.20137
-6.80414
-7.57424
-8.51981
-9.63338
-10.8895
30.099
28.1638
25.6026
22.4831
18.9638
15.2538
11.5539
8.0266
4.79201
1.94012
-0.440001
-2.26864
-3.54333
-4.37821
-4.94135
-5.38557
-5.82223
-6.32327
-6.92858
-7.65624
-8.52032
-9.5393
-10.7195
-12.0396
27.8905
25.2009
21.9712
18.4153
14.7927
11.3054
8.0572
5.08762
2.42583
0.122983
-1.75995
-3.1954
-4.23144
-4.984
-5.59374
-6.17608
-6.80287
-7.51116
-8.31735
-9.23829
-10.3027
-11.5259
-12.8864
27.7385
24.953
21.6327
18.0337
14.456
11.1023
8.03349
5.23348
2.69206
0.435746
-1.4872
-3.03299
-4.20154
-5.06789
-5.76775
-6.42797
-7.12485
-7.89337
-8.74768
-9.70577
-10.8011
-12.0524
-13.4382
24.8254
21.4544
17.8283
14.2688
10.9794
7.99843
5.28227
2.80193
0.569904
-1.37244
-2.97268
-4.20537
-5.12421
-5.86401
-6.5597
-7.29019
-8.08834
-8.96644
-9.94297
-11.053
-12.3169
-13.7138
24.8145
21.4421
17.8153
14.2561
10.9673
7.98672
5.271
2.79166
0.561224
-1.37914
-2.97746
-4.20863
-5.12638
-5.86521
-6.56008
-7.29011
-8.08827
-8.96677
-9.94397
-11.055
-12.3202
-13.7187
24.9212
21.5965
17.9949
14.4167
11.0637
7.99557
5.19679
2.65834
0.406645
-1.51049
-3.05045
-4.21422
-5.07704
-5.77392
-6.43165
-7.12714
-7.89571
-8.75139
-9.71188
-10.8103
-12.0657
-13.4566
-14.9472
25.151
21.9147
18.3541
14.7295
11.2419
7.99492
5.02843
2.3725
0.0771274
-1.7972
-3.22395
-4.25237
-4.99899
-5.60372
-6.18186
-6.80625
-7.51464
-8.32323
-9.24846
-10.3184
-11.5485
-12.9176
-14.3904
25.5383
22.4103
18.8841
15.1695
11.4675
7.94139
4.71258
1.87127
-0.496648
-2.31386
-3.57853
-4.4049
-4.96148
-5.40042
-5.83284
-6.33205
-6.93887
-7.67096
-8.54152
-9.56882
-10.7586
-12.0901
-13.531
26.1109
23.0875
19.5664
15.7052
11.7024
7.78565
4.17871
1.06269
-1.4143
-3.15622
-4.20722
-4.76498
-5.05445
-5.24661
-5.45758
-5.76575
-6.21595
-6.82626
-7.60563
-8.56215
-9.68856
-10.9587
-12.3447
23.9638
20.4015
16.3234
11.9225
7.48892
3.36849
-0.123976
-2.73831
-4.36663
-5.13753
-5.35409
-5.30004
-5.17014
-5.09333
-5.15618
-5.40689
-5.85946
-6.51266
-7.361
-8.38733
-9.55969
-10.8481
-12.2279
25.0635
21.3908
16.9975
12.0683
6.94852
2.1377
-1.8421
-4.60228
-6.05101
-6.45408
-6.23704
-5.74828
-5.21529
-4.78675
-4.55752
-4.57472
-4.84399
-5.34798
-6.06236
-6.95755
-7.99801
-9.14595
-10.3683
26.4241
22.5428
17.7021
12.0875
6.08784
0.380155
-4.18944
-7.04821
-8.18299
-8.08293
-7.32542
-6.32113
-5.32519
-4.50546
-3.96586
-3.74534
-3.83068
-4.18158
-4.75252
-5.49949
-6.38105
-7.3584
-8.38678
28.1149
23.8833
18.3673
11.7942
4.62624
-2.30309
-7.60192
-10.4313
-10.9708
-10.0428
-8.52242
-6.8791
-5.36252
-4.13901
-3.31021
-2.89123
-2.83349
-3.06527
-3.51787
-4.13226
-4.85795
-5.65003
-6.46629
2.30429
-6.12652
-12.2724
-14.8993
-14.6555
-12.5168
-10.0041
-7.57087
-5.42547
-3.74979
-2.6417
-2.06393
-1.90846
-2.06257
-2.43149
-2.93877
-3.52209
-4.12746
-4.70612
1.44662
-8.59327
-15.9989
-18.8386
-17.9483
-14.0649
-10.7246
-7.82277
-5.21078
-3.17794
-1.90054
-1.27476
-1.1105
-1.25598
-1.60161
-2.05892
-2.5508
-3.00829
-3.36967
-19.2739
-27.9888
-28.6247
-22.7937
-16.3145
-9.99971
-7.10546
-4.49195
-2.40444
-1.17919
-0.679771
-0.6285
-0.831006
-1.1743
-1.57653
-1.96376
-2.26565
-2.41449
-47.5
-45.1298
-28.8923
-16.4208
-10.3081
-5.72757
-3.41325
-1.64357
-0.654949
-0.333021
-0.407702
-0.680248
-1.03962
-1.41211
-1.7276
-1.91368
-1.8973
-67.0968
-31.2152
-13.8434
-7.99371
-4.30127
-2.00649
-0.559634
0.0741136
0.175988
-0.0333398
-0.391074
-0.78878
-1.15832
-1.43865
-1.56408
-1.46666
-26.2234
-9.98078
-4.23542
-1.7958
0.295404
1.32017
1.57137
1.40487
1.01833
0.543898
0.066389
-0.35882
-0.681573
-0.848437
-0.804607
-1.75487
1.02579
2.06948
2.4759
2.53152
2.31867
1.93206
1.46588
0.988403
0.549824
0.194987
-0.0326836
-0.0917355
11.0317
8.24408
4.88706
1.12644
-2.67575
-6.02257
-8.51769
-10.054
-10.7572
-10.7918
-10.2575
-9.21124
-7.74453
-6.04173
12.4039
9.11564
4.90772
-0.0524074
-5.20275
-9.73195
-12.8962
-14.5697
-15.0769
-14.7425
-13.7026
-11.9835
-9.68876
-7.11955
14.4761
10.6701
5.3591
-1.30847
-8.41924
-14.6022
-18.6064
-20.4148
-20.6476
-19.8342
-18.1093
-15.405
-11.9636
-8.19137
-4.86715
-2.38147
-0.704326
0.355844
0.964886
1.24573
1.29799
1.20036
20.0353
17.6055
13.4225
6.7914
-2.57532
-9.62946
-18.9237
-24.4989
-26.8681
-26.9439
-25.5637
-22.9675
-18.8584
-13.4473
-8.32264
-4.14301
-1.26496
0.506482
1.51589
1.99609
2.1172
2.01515
1.78952
23.9912
22.2804
18.4278
11.1083
1.0989
-13.82
-29.3012
-38.8849
-40.4828
-38.6897
-35.5484
-30.7857
-23.5586
-14.6856
-6.65599
-2.07399
0.431836
1.76719
2.4561
2.67669
2.5696
2.27408
1.89361
28.7247
28.6349
26.9173
19.7005
8.34322
-16.4746
-40.5954
-62.3613
-65.5786
-56.1178
-45.5403
-39.77
-27.0207
-12.2661
-3.86761
2.25261
3.49168
3.61398
3.33616
2.85565
2.29552
1.72737
1.1908
0.721979
33.3406
35.3199
33.6554
33.8812
26.114
5.59455
-44.9205
-28.3457
-7.40695
-0.265186
-0.0169412
0.327821
1.49801
1.61575
1.22764
0.723066
0.214928
-0.263884
-0.675898
-0.969879
36.5663
39.8201
40.8713
45.3423
42.6164
36.6593
-9.47678
-5.37518
-4.85062
-3.05883
-0.880665
-0.130409
-0.106148
-0.336685
-0.667725
-1.03014
-1.36846
-1.61435
37.8028
40.9794
44.7158
47.0542
48.2125
45.0182
21.0889
-48.072
-16.6971
-10.6861
-8.94329
-4.89651
-2.27763
-1.07273
-0.743095
-0.803266
-1.0288
-1.33525
-1.65813
-1.92022
-2.0437
37.4899
39.6815
41.6169
42.6747
41.8207
34.3033
23.5859
6.82245
-11.1165
-25.9426
-38.6863
-45.0162
-29.6255
-17.3345
-12.2574
-8.81803
-5.43656
-2.76664
-1.30666
-0.733344
-0.646482
-0.821744
-1.14769
-1.5416
-1.92539
-2.21931
36.4587
37.6629
38.2357
37.4067
35.897
30.1473
21.8092
11.3449
-0.145906
-12.5741
-21.7648
-24.5935
-21.717
-16.4319
-11.9041
-8.90749
-5.74298
-3.26533
-1.76518
-1.05145
-0.868753
-1.03178
-1.41074
-1.90488
-2.42889
-2.90687
35.2689
35.7312
35.4963
34.0959
30.9888
26.266
19.9113
12.0452
2.99269
-6.43375
-13.1841
-16.041
-15.5111
-13.2045
-10.6582
-7.98067
-5.5223
-3.6143
-2.38042
-1.75054
-1.58469
-1.7486
-2.13527
-2.66528
-3.2779
-3.91874
34.1825
34.1102
33.3683
31.6766
28.7682
24.5628
19.0994
12.3846
4.82824
-2.68951
-8.39932
-11.3664
-11.6928
-10.59
-8.91368
-7.08321
-5.39094
-4.02572
-3.09914
-2.62394
-2.53994
-2.76515
-3.22389
-3.85435
-4.60631
-5.43561
33.2964
32.8324
31.731
29.8271
26.9748
23.1021
18.2174
12.3999
6.0268
-0.0797553
-4.93226
-7.82709
-8.75027
-8.41815
-7.48817
-6.35304
-5.25107
-4.34567
-3.74551
-3.49087
-3.56291
-3.91657
-4.50262
-5.27429
-6.18974
-7.20962
32.6341
31.8712
30.4884
28.3886
25.5012
21.7991
17.314
12.1873
6.80232
1.76428
-2.39464
-5.19995
-6.50049
-6.6881
-6.31758
-5.73155
-5.12958
-4.65108
-4.39081
-4.39361
-4.66105
-5.17487
-5.91102
-6.83908
-7.91788
32.1852
31.1864
29.5672
27.2707
24.2839
20.6469
16.4595
11.9149
7.34195
3.12146
-0.496044
-3.17962
-4.72518
-5.31947
-5.39814
-5.26051
-5.08099
-4.97808
-5.03245
-5.28598
-5.74851
-6.41802
-7.29483
-8.3602
-9.57639
31.9235
30.7379
28.9134
26.4174
23.2894
19.6493
15.6713
11.5721
7.60134
3.96985
0.799265
-1.73167
-3.43848
-4.37177
-4.82009
-5.04399
-5.20592
-5.40958
-5.7255
-6.19036
-6.81487
-7.61032
-8.59502
-9.76235
-11.0762
30.4816
28.4803
25.7868
22.4922
18.8046
14.9759
11.2277
7.71314
4.51097
1.66156
-0.737592
-2.54759
-3.74827
-4.49808
-5.00196
-5.41816
-5.85113
-6.36614
-6.99385
-7.7382
-8.61357
-9.65834
-10.8852
-12.2543
28.2187
25.348
21.8823
18.1194
14.3897
10.9005
7.71119
4.80327
2.17121
-0.136129
-2.02535
-3.43665
-4.41753
-5.11194
-5.68691
-6.26022
-6.8952
-7.6186
-8.42991
-9.3469
-10.4268
-11.6926
-13.0975
28.0803
25.0758
21.4694
17.6304
13.9528
10.6305
7.65349
4.93722
2.44199
0.186451
-1.76366
-3.32371
-4.45586
-5.25074
-5.89608
-6.53524
-7.2341
-8.01371
-8.86822
-9.81606
-10.9219
-12.2128
-13.6405
24.9337
21.2501
17.366
13.7093
10.4686
7.59665
4.97825
2.55349
0.323657
-1.6581
-3.29077
-4.4938
-5.33138
-6.00528
-6.67461
-7.40521
-8.21281
-9.08877
-10.0524
-11.1707
-12.4723
-13.9098
24.9217
21.2366
17.3524
13.6968
10.4572
7.5854
4.96698
2.54302
0.314877
-1.66458
-3.29494
-4.4965
-5.33305
-6.00579
-6.67402
-7.40398
-8.21139
-9.08753
-10.0517
-11.1711
-12.4741
-13.9133
25.0412
21.4295
17.5886
13.9122
10.5915
7.61461
4.89867
2.40627
0.155747
-1.78717
-3.33985
-4.46707
-5.25859
-5.90037
-6.53626
-7.23315
-8.01246
-8.86813
-9.81818
-10.9272
-12.2224
-13.6554
-15.1846
25.2945
21.8211
18.054
14.3235
10.8348
7.64634
4.74114
2.11524
-0.184968
-2.0638
-3.4635
-4.43592
-5.1243
-5.69336
-6.26101
-6.89261
-7.61585
-8.42977
-9.35111
-10.4364
-11.7091
-13.1229
-14.6378
25.7187
22.4143
18.7195
14.886
11.1356
7.62245
4.4285
1.59357
-0.793787
-2.59167
-3.78026
-4.52148
-5.01948
-5.42981
-5.85667
-6.3684
-6.99746
-7.74634
-8.6284
-9.6814
-10.9179
-12.2985
-13.7898
26.3382
23.1985
19.5483
15.5619
11.4574
7.4875
3.86653
0.7165
-1.79269
-3.48186
-4.40212
-4.84145
-5.05918
-5.21598
-5.41427
-5.72796
-6.19749
-6.83031
-7.63526
-8.6313
-9.81164
-11.1401
-12.5913
24.1863
20.5384
16.3411
11.7901
7.21592
3.00384
-0.590076
-3.24905
-4.77761
-5.35878
-5.42618
-5.27958
-5.09595
-4.99185
-5.04815
-5.3118
-5.78855
-6.47228
-7.36288
-8.44268
-9.67435
-11.0367
-12.5173
25.4006
21.6883
17.1951
12.0696
6.68069
1.64459
-2.49048
-5.27488
-6.56549
-6.73858
-6.34848
-5.74528
-5.13572
-4.65887
-4.40705
-4.42511
-4.71156
-5.24498
-5.99946
-6.94473
-8.0407
-9.25331
-10.5615
26.8733
22.9918
18.1027
12.311
5.90825
-0.201649
-5.02489
-7.9121
-8.84067
-8.49337
-7.53388
-6.37183
-5.26012
-4.36321
-3.78236
-3.55126
-3.6477
-4.02414
-4.63017
-5.41905
-6.34959
-7.38437
-8.47677
28.6663
24.4495
18.9697
12.34
4.70797
-2.83593
-8.51965
-11.508
-11.8487
-10.7079
-8.96287
-7.07151
-5.356
-4.0038
-3.1103
-2.6742
-2.62806
-2.88627
-3.37252
-4.02539
-4.79606
-5.6419
-6.51509
2.84251
-6.61925
-13.348
-16.2392
-15.7863
-13.4478
-10.7826
-8.00918
-5.51744
-3.62239
-2.4209
-1.82812
-1.69849
-1.89517
-2.31023
-2.86421
-3.49798
-4.15832
-4.79089
2.35913
-8.63457
-16.8653
-20.1504
-19.2149
-15.7967
-11.9319
-8.74965
-5.59081
-3.19619
-1.78846
-1.15349
-1.0344
-1.24897
-1.66992
-2.19829
-2.75173
-3.25764
-3.64904
-18.267
-28.6319
-31.3255
-26.3815
-17.916
-12.7114
-8.81303
-5.26959
-2.66975
-1.34332
-0.887108
-0.891697
-1.13827
-1.51853
-1.95309
-2.36762
-2.68901
-2.84264
-42.2343
-62.6316
-55.1568
-36.8048
-16.8611
-12.3466
-9.03361
-4.64838
-2.03988
-0.961977
-0.756164
-0.921516
-1.23571
-1.61383
-1.99431
-2.30451
-2.46992
-2.41636
-61.284
-14.5889
-9.48678
-7.12419
-2.60488
-0.497709
0.110205
0.00986505
-0.33182
-0.755476
-1.19201
-1.59023
-1.8865
-2.01289
-1.90043
-7.8343
-1.82262
-1.49294
0.616526
1.78253
1.84827
1.38818
0.80579
0.223419
-0.321791
-0.793274
-1.14142
-1.31236
-1.25059
-1.05754
2.27934
3.65173
3.77814
3.44087
2.88662
2.25383
1.61899
1.02356
0.503088
0.0964412
-0.155912
-0.214088
13.2125
10.9784
8.11562
4.64737
0.783566
-3.00614
-6.16271
-8.37068
-9.66741
-10.278
-10.3809
-10.0267
-9.19403
-7.8751
-6.20271
14.8215
12.3239
8.87857
4.41106
-0.810793
-6.02457
-10.1622
-12.6994
-13.8575
-14.1988
-14.0561
-13.4415
-12.1813
-10.1509
-7.59527
17.0696
14.3932
10.2798
4.44793
-2.81769
-10.1245
-15.5611
-18.3782
-19.1585
-19.08
-18.7024
-17.9088
-16.1558
-13.0802
-9.27314
-5.55777
-2.70089
-0.816966
0.321341
0.949109
1.22654
1.26666
1.15328
20.2065
17.6262
12.9171
5.26633
-2.23477
-13.0573
-20.6288
-24.227
-24.8442
-24.3651
-23.8353
-22.9561
-20.5535
-15.9598
-10.1527
-5.28851
-1.84957
0.196013
1.32685
1.86154
2.00471
1.90909
1.68162
24.497
22.7524
18.3812
10.2534
-3.47632
-22.5949
-35.562
-38.6897
-35.1031
-32.1345
-31.4221
-31.4741
-28.2669
-20.2808
-10.7438
-3.71879
-0.16781
1.42018
2.1463
2.37547
2.28173
2.00744
1.65158
29.8128
30.2528
25.9043
20.2403
-1.5939
-34.0356
-62.2534
-68.7668
-51.9173
-38.4852
-41.927
-44.5616
-37.4884
-22.6969
-8.29714
-1.525
2.20557
3.26056
3.19886
2.71999
2.14249
1.56418
1.015
0.530034
35.0383
38.4324
38.0343
38.6688
26.413
-27.214
-3.35197
-1.3091
-1.39138
1.35374
1.77431
1.24506
0.6616
0.167705
-0.281424
-0.678581
-0.968367
38.515
43.5399
47.0408
54.7769
57.4103
-13.0266
-11.0714
-5.74833
-1.87373
-0.697679
-0.849527
-1.25595
-1.59355
-1.89462
-2.15547
-2.31058
39.4872
43.8955
47.8825
55.3903
60.1348
-32.5314
-19.6791
-13.272
-6.59466
-2.82987
-1.342
-1.10059
-1.27537
-1.56712
-1.93236
-2.3203
-2.63152
-2.77752
38.7728
41.6914
44.5177
47.2002
44.237
33.7952
17.3137
8.908
-0.14536
-21.7557
-40.3249
-43.1119
-39.8713
-23.2509
-17.0779
-10.803
-6.13586
-2.97084
-1.42406
-0.883033
-0.830689
-1.02817
-1.37698
-1.80178
-2.23807
-2.60037
37.3803
38.9898
39.9666
39.2763
37.6679
30.3862
22.7537
15.3192
3.79952
-13.2861
-23.7171
-26.617
-24.6754
-19.6248
-14.0561
-9.94377
-5.83644
-2.86343
-1.18052
-0.474718
-0.415175
-0.743053
-1.28192
-1.91004
-2.53978
-3.09928
35.9573
36.6581
36.6528
35.3796
32.3042
27.8165
22.2568
15.6712
5.74671
-7.20393
-15.7714
-17.9709
-17.5366
-15.0786
-11.9382
-8.50271
-5.39912
-3.1016
-1.69844
-1.04994
-0.951494
-1.21321
-1.69878
-2.32739
-3.04853
-3.8114
34.7529
34.8365
34.2551
32.7061
29.9371
25.9454
20.8535
14.9834
6.47781
-2.99123
-10.1073
-12.9945
-13.1208
-11.7828
-9.59482
-7.23939
-5.1525
-3.54985
-2.51613
-2.02122
-1.96854
-2.25033
-2.77707
-3.48376
-4.32664
33.8319
33.4741
32.4822
30.6857
27.9408
24.1742
19.2703
13.1021
5.8128
-1.16381
-6.66133
-9.4728
-9.99297
-9.24936
-7.86787
-6.35621
-4.99719
-3.93742
-3.26164
-2.98789
-3.08045
-3.48398
-4.13991
-4.9948
-6.00987
33.1905
32.4996
31.1747
29.1133
26.2465
22.5269
17.8619
12.3806
6.42983
0.934348
-3.68761
-6.58573
-7.56443
-7.28947
-6.53544
-5.67184
-4.88842
-4.30672
-4.00277
-4.00433
-4.30124
-4.87699
-5.6993
-6.72885
-7.91894
32.8042
31.8502
30.2319
27.8827
24.7955
21.0087
16.5787
11.7056
6.86007
2.51866
-1.33204
-4.17044
-5.52315
-5.71755
-5.48916
-5.15259
-4.86013
-4.71224
-4.76995
-5.05056
-5.55526
-6.30054
-7.283
-8.47039
-9.81096
32.6391
31.4742
29.588
26.9323
23.5699
19.6707
15.4208
11.0836
7.03159
3.44694
0.192691
-2.48562
-4.09235
-4.71969
-4.9089
-4.98522
-5.08733
-5.29217
-5.64527
-6.16225
-6.83337
-7.68704
-8.76478
-10.0541
-11.4763
31.3149
29.1881
26.2127
22.5347
18.4969
14.4155
10.5666
7.11235
4.03043
1.1815
-1.30076
-3.08752
-4.11521
-4.68223
-5.07412
-5.45101
-5.8996
-6.46584
-7.15612
-7.92789
-8.80708
-9.90018
-11.2288
-12.6806
28.9757
25.7051
21.6958
17.4821
13.5618
10.1158
7.09747
4.32471
1.74397
-0.605466
-2.54432
-3.92067
-4.78379
-5.35449
-5.86339
-6.42378
-7.08267
-7.8474
-8.65639
-9.53708
-10.6422
-12.0063
-13.4884
28.8854
25.3881
21.1034
16.7305
12.9
9.72483
6.99749
4.45129
2.03618
-0.251364
-2.31444
-3.95858
-5.01137
-5.62353
-6.14024
-6.72894
-7.43323
-8.2471
-9.09193
-9.99113
-11.1143
-12.5007
-14.0021
25.2191
20.7865
16.3213
12.5257
9.484
6.90031
4.49923
2.17976
-0.0770392
-2.22089
-4.0058
-5.14968
-5.77174
-6.28493
-6.88772
-7.61616
-8.45087
-9.30866
-10.2172
-11.3493
-12.7417
-14.249
25.2046
20.7699
16.3064
12.5149
9.47505
6.89
4.48759
2.16864
-0.0861906
-2.22689
-4.00895
-5.15213
-5.77346
-6.28508
-6.88671
-7.61469
-8.44889
-9.30604
-10.2149
-11.3483
-12.7423
-14.2513
25.3467
21.0538
16.6817
12.8582
9.68659
6.95618
4.40761
1.99507
-0.286359
-2.33866
-3.97252
-5.02208
-5.6314
-6.143
-6.72759
-7.42998
-8.24311
-9.08809
-9.98897
-11.1154
-12.506
-14.0129
-15.5866
25.6434
21.6234
17.4074
13.4902
10.0467
7.02651
4.25412
1.68162
-0.662851
-2.58722
-3.94567
-4.79991
-5.36473
-5.86523
-6.41638
-7.07012
-7.83465
-8.64663
-9.53096
-10.6412
-12.013
-13.5054
-15.0719
26.1364
22.4458
18.4005
14.313
10.461
7.00762
3.93817
1.1248
-1.35295
-3.13059
-4.14263
-4.70323
-5.09156
-5.46021
-5.89676
-6.45596
-7.14647
-7.92248
-8.80735
-9.9079
-11.2463
-12.7114
-14.2729
26.8445
23.4669
19.5557
15.2919
10.9434
6.89256
3.32935
0.113322
-2.53301
-4.11813
-4.73195
-4.91871
-4.99456
-5.09251
-5.28582
-5.63171
-6.15383
-6.83289
-7.69638
-8.78641
-10.0892
-11.5282
-13.0983
24.6879
20.8864
16.4383
11.5496
6.70395
2.38116
-1.42791
-4.22938
-5.56087
-5.73777
-5.5043
-5.16491
-4.87574
-4.72587
-4.77754
-5.06757
-5.58448
-6.34347
-7.34041
-8.54214
-9.89785
-11.4329
-13.1703
26.1367
22.4021
17.7208
12.2386
6.29937
0.806459
-3.76571
-6.6357
-7.60699
-7.31895
-6.54915
-5.67279
-4.88848
-4.30945
-4.01261
-4.02891
-4.34416
-4.94049
-5.78197
-6.82919
-8.0338
-9.40882
-10.9511
27.8282
24.0439
19.1193
13.0292
5.64314
-1.32047
-6.71119
-9.50939
-10.0646
-9.31485
-7.90828
-6.3728
-5.00824
-3.95805
-3.30016
-3.04837
-3.1637
-3.58867
-4.26266
-5.13243
-6.15994
-7.32295
-8.57271
29.8176
25.7864
20.5474
14.0119
6.5637
-1.87917
-8.10261
-13.0645
-13.231
-11.8497
-9.60288
-7.20419
-5.11206
-3.53447
-2.53745
-2.08195
-2.06667
-2.38017
-2.93169
-3.65704
-4.51529
-5.47535
-6.47804
5.87651
-5.25192
-12.9912
-18.1237
-17.824
-15.274
-11.9396
-8.41296
-5.31117
-3.05464
-1.69749
-1.09494
-1.04238
-1.34657
-1.86834
-2.52755
-3.27548
-4.061
-4.81735
5.02141
-10.227
-19.4572
-21.946
-21.5407
-18.002
-13.8999
-9.59139
-5.57587
-2.7675
-1.22669
-0.627489
-0.648636
-1.03695
-1.61931
-2.27958
-2.93512
-3.5182
-3.95999
-14.3037
-30.0572
-31.1734
-29.6397
-21.5084
-15.848
-10.3146
-5.60114
-2.67458
-1.38313
-1.04568
-1.14053
-1.44005
-1.85749
-2.32629
-2.78374
-3.16193
-3.37649
-46.6745
-64.5744
-46.8702
-24.2412
-19.8572
-12.2975
-6.15331
-2.4171
-1.09495
-1.04885
-1.38633
-1.80099
-2.25488
-2.70788
-3.07305
-3.26157
-3.19472
-19.9092
-13.0933
-5.3728
-1.63629
-0.536832
-0.792466
-1.31217
-1.74655
-2.12324
-2.44467
-2.65034
-2.67157
-2.44199
-10.3115
-5.89124
-0.938915
1.781
2.13755
1.50903
0.805833
0.20111
-0.339087
-0.810636
-1.16236
-1.33322
-1.25994
-4.51765
-1.24869
2.43355
3.49976
3.39606
2.842
2.18061
1.52408
0.906813
0.362412
-0.0637132
-0.323437
-0.369582
13.1975
10.9239
7.97914
4.38482
0.443039
-3.26544
-6.17118
-8.05803
-9.1033
-9.62495
-9.80133
-9.63815
-9.05019
-7.93388
-6.33494
14.8089
12.2302
8.59424
3.82321
-1.63677
-6.73222
-10.3625
-12.2451
-12.8915
-13.0923
-13.1198
-12.8879
-12.143
-10.5234
-8.0493
17.0992
14.2833
9.80105
3.28688
-4.45713
-11.6438
-16.1567
-17.798
-17.5827
-17.3329
-17.3522
-17.3371
-16.6883
-14.3396
-10.3674
-6.25038
-2.9669
-0.79235
0.481617
1.15053
1.42787
1.45025
1.30981
20.3829
17.6335
12.43
5.40867
-5.5572
-15.9624
-22.0112
-24.0922
-21.898
-21.0001
-21.3891
-21.6137
-21.8632
-18.9291
-13.0455
-6.41503
-2.32949
0.141628
1.47729
2.08651
2.24998
2.1504
1.90552
25.0398
23.3718
17.6816
8.28262
-11.2087
-31.9762
-39.2335
-33.9065
-27.8112
-25.1734
-25.1691
-29.2405
-33.1953
-28.4134
-16.6174
-6.95896
-0.56215
1.70926
2.6489
2.90151
2.78912
2.48928
2.10419
30.9454
32.0536
27.9765
16.8182
-13.6401
-63.6529
-82.0766
-51.1661
-21.8419
-20.0189
-18.8192
-38.6201
-59.3064
-39.6199
-17.4183
-5.52904
1.42887
3.72725
4.05864
3.62672
3.01721
2.40212
1.81044
1.27284
36.7704
37.7934
44.0937
40.8504
19.473
-14.1242
-4.72173
-0.675394
2.44598
3.05967
2.32372
1.48345
0.815281
0.243878
-0.249032
-0.609364
40.573
44.5435
55.6538
65.8229
-19.9861
-14.4112
-7.11788
-1.7608
0.321235
0.078728
-0.564236
-1.09208
-1.57718
-2.03008
-2.35584
41.3108
45.7326
55.4884
65.5764
66.2636
-21.0648
-15.3739
-8.70531
-2.90316
-0.915012
-0.702579
-0.9454
-1.23549
-1.59061
-2.00216
-2.38734
-2.63341
40.2408
44.0506
48.5091
51.7397
46.9797
24.8297
16.1403
24.6903
14.9351
-40.6857
-31.0567
-35.844
-35.0167
-24.537
-20.0647
-14.0409
-5.83518
-2.43952
-1.06088
-0.769132
-0.929281
-1.27918
-1.73174
-2.20805
-2.65697
-3.01341
38.4505
40.5369
41.9366
42.8625
38.4202
31.0183
26.9512
24.5126
11.9674
-18.2628
-27.2674
-29.4554
-28.2051
-23.5015
-17.6372
-9.76834
-4.95186
-1.74023
0.0698279
0.710926
0.490572
-0.209344
-1.12193
-2.07509
-2.95889
-3.71654
36.7846
37.7717
38.0211
36.8023
34.0853
30.445
26.7568
22.1973
9.70705
-13.5555
-22.0751
-22.7698
-19.6424
-16.8076
-12.5525
-8.30674
-4.57461
-1.89821
-0.305813
0.340437
0.294105
-0.170278
-0.861539
-1.70427
-2.67778
-3.72634
35.4763
35.7586
35.387
34.0421
31.5934
28.2344
24.6601
18.912
6.85583
-7.3964
-15.833
-15.7633
-15.0409
-13.3544
-10.397
-7.2553
-4.59618
-2.65258
-1.45709
-0.920337
-0.902141
-1.26363
-1.89205
-2.71677
-3.71034
34.5532
34.3419
33.5068
31.8924
29.4124
26.0688
22.5052
16.2384
6.79513
-2.06507
-9.58793
-11.8832
-11.018
-10.0812
-8.23274
-6.24633
-4.52485
-3.23988
-2.45474
-2.14975
-2.26551
-2.73795
-3.487
-4.44658
-5.57684
33.9842
33.4015
32.1667
30.1866
27.4326
23.8644
20.2393
14.2949
7.21211
0.912701
-5.16733
-8.69378
-8.55507
-7.83739
-6.69956
-5.50359
-4.47669
-3.75929
-3.40413
-3.40983
-3.73549
-4.39842
-5.35339
-6.53885
-7.74348
33.7327
32.8529
31.2398
28.8217
25.6175
21.6453
16.8493
11.2982
6.21679
2.51541
-2.16359
-5.72319
-6.42763
-6.04671
-5.41752
-4.81536
-4.37385
-4.19606
-4.30327
-4.68046
-5.15175
-5.97845
-7.13905
-8.54089
-10.0178
33.7525
32.6305
30.6497
27.7325
23.9991
19.693
15.048
10.2587
6.17286
2.81807
-0.627487
-3.75408
-5.03946
-5.10511
-4.9036
-4.76664
-4.75056
-4.97653
-5.42828
-6.07155
-6.77868
-7.71863
-8.98674
-10.5308
-12.0973
32.6648
30.3377
26.8662
22.506
17.8757
13.4599
9.5014
6.24935
3.47799
0.620989
-2.12281
-3.86376
-4.55066
-4.82715
-5.06313
-5.3838
-5.89068
-6.59908
-7.45748
-8.26172
-9.12294
-10.3254
-11.8767
30.2398
26.2411
21.1846
16.127
11.9873
8.76579
6.24638
3.78647
1.31999
-1.17504
-3.26706
-4.61484
-5.28819
-5.68971
-6.13083
-6.69112
-7.42374
-8.31697
-9.08229
-9.85571
-11.0272
-12.6017
30.2539
25.844
20.2117
14.8159
10.8534
8.13424
6.07341
3.90536
1.66098
-0.726335
-3.08432
-5.00884
-5.88991
-6.18414
-6.53123
-7.05593
-7.79919
-8.72303
-9.4961
-10.2575
-11.4368
-13.03
25.6273
19.6979
14.1012
10.2109
7.73221
5.82226
3.9072
1.8249
-0.471981
-2.95979
-5.17509
-6.1703
-6.41086
-6.71089
-7.23071
-7.99342
-8.92777
-9.70224
-10.4648
-11.6506
-13.2431
-14.7855
25.6081
19.6752
14.0855
10.2067
7.73077
5.81334
3.89301
1.81055
-0.483632
-2.96337
-5.17416
-6.17128
-6.41058
-6.70613
-7.22316
-7.98619
-8.91967
-9.69231
-10.4562
-11.6443
-13.2385
-14.7807
25.7908
20.1413
14.7545
10.8153
8.10556
6.02782
3.84964
1.60548
-0.772993
-3.10547
-5.014
-5.89896
-6.18779
-6.52203
-7.0378
-7.77998
-8.70256
-9.47634
-10.2411
-11.4246
-13.0208
-14.5637
26.1657
21.0904
16.037
11.9109
8.69809
6.16459
3.69516
1.23187
-1.25429
-3.31031
-4.62971
-5.29762
-5.69301
-6.11885
-6.66142
-7.38726
-8.28057
-9.05113
-9.82661
-11.0009
-12.5815
-14.1171
-15.6581
26.7765
22.3977
17.762
13.3361
9.37363
6.11119
3.34432
0.555886
-2.18083
-3.89732
-4.56078
-4.84022
-5.08033
-5.38802
-5.87039
-6.56794
-7.42638
-8.23423
-9.09768
-10.3057
-11.864
-13.4046
-14.9933
27.6292
23.874
19.5588
14.8858
10.0668
5.97627
2.66191
-0.699227
-3.76964
-5.02882
-5.07444
-4.89245
-4.7686
-4.74638
-4.93926
-5.3845
-6.03953
-6.75109
-7.69981
-8.97971
-10.537
-12.1272
-13.853
25.497
21.5064
16.6721
11.0675
5.97659
2.82648
-1.11696
-4.46485
-6.44521
-6.03857
-5.40512
-4.80574
-4.38998
-4.1899
-4.3084
-4.71557
-5.18377
-6.01565
-7.18726
-8.60116
-10.0918
-11.908
-14.1669
27.3148
23.7279
18.8207
13.1244
7.01416
1.67635
-3.55886
-7.20906
-8.5423
-7.81019
-6.66068
-5.46468
-4.4614
-3.7483
-3.41425
-3.44319
-3.78813
-4.47402
-5.4506
-6.66273
-7.86794
-9.44642
-11.4214
29.2954
25.934
21.0634
14.8672
6.7725
-0.567887
-7.25468
-10.3971
-11.0348
-10.1111
-8.25574
-6.26402
-4.55641
-3.29204
-2.53198
-2.25235
-2.39251
-2.88381
-3.64526
-4.61192
-5.74248
-7.07741
-8.55849
31.4724
28.0888
23.3183
17.1795
6.74746
-4.72857
-12.6403
-13.8232
-14.9342
-13.1832
-10.2192
-7.1136
-4.52028
-2.65161
-1.51986
-1.03456
-1.05762
-1.44755
-2.0905
-2.92177
-3.91966
-5.07306
-6.30417
7.90347
-7.76596
-18.5288
-18.6701
-20.1784
-17.0745
-12.5874
-8.25206
-4.58593
-1.99366
-0.455518
0.151941
0.0716951
-0.419525
-1.12396
-1.97738
-2.96475
-4.02252
-5.04993
11.4967
-14.8747
-21.3387
-25.236
-24.8394
-21.4783
-15.7259
-9.68718
-5.07604
-2.05673
-0.362353
0.2256
-0.0144967
-0.713633
-1.61189
-2.55277
-3.43446
-4.18694
-4.7307
-21.2755
-33.6842
-32.0799
-30.4431
-24.6756
-18.745
-12.2619
-5.81026
-2.71555
-1.55927
-1.43339
-1.694
-2.08488
-2.54603
-3.0133
-3.42952
-3.74768
-3.90999
-52.9119
-25.8937
-36.1595
-37.2445
-25.9744
-22.6428
-14.7546
-8.26333
-2.98631
-1.14422
-1.09746
-1.47143
-1.843
-2.2385
-2.65978
-3.03824
-3.27881
-3.29001
-21.6678
-14.4864
-8.21573
-1.77067
0.302219
-0.00908874
-0.745925
-1.35017
-1.88772
-2.38054
-2.7483
-2.90509
-2.78114
-19.2836
-9.40684
-3.85411
2.54316
3.07642
2.23179
1.28182
0.524221
-0.109466
-0.646478
-1.04128
-1.23333
-1.16026
-14.4869
-3.94041
1.58591
3.83114
4.095
3.58388
2.89682
2.21474
1.56844
0.985511
0.515079
0.211084
0.126296
13.1872
10.8945
7.90458
4.24461
0.279593
-3.32265
-5.99424
-7.58611
-8.41846
-8.88088
-9.12071
-9.10415
-8.71562
-7.79999
-6.3122
14.7883
12.1526
8.39425
3.43266
-2.16116
-7.1013
-10.2971
-11.5287
-11.8238
-11.9929
-12.1559
-12.1789
-11.8099
-10.6071
-8.31273
17.0902
14.1528
9.41148
2.39915
-5.70444
-12.6573
-16.469
-16.566
-15.8722
-15.7213
-15.9825
-16.4133
-16.5614
-15.049
-11.2162
-6.7785
-3.12888
-0.701648
0.677167
1.3627
1.61912
1.60368
1.41692
20.4446
17.4777
11.7949
3.56538
-8.26228
-18.3758
-24.9441
-21.5014
-19.09
-18.4144
-18.9189
-20.794
-21.7624
-21.2631
-15.5292
-7.4308
-2.65316
0.243834
1.73366
2.37822
2.53079
2.39492
2.09916
25.3213
23.4432
17.0599
5.28141
-19.0891
-38.4182
-38.7438
-28.6426
-23.6201
-21.7476
-21.2507
-24.186
-32.9798
-35.5766
-22.7035
-9.68236
-0.762617
2.25626
3.34737
3.57292
3.39426
3.01629
2.54652
31.8581
30.3424
29.3654
10.8723
-36.487
-77.8421
-77.8878
-20.2584
-20.1598
-20.2197
-17.3712
-16.9412
-54.836
-74.6668
-33.9983
-8.4553
-0.233428
4.41381
5.25686
4.86867
4.14142
3.39456
2.67545
2.01028
38.5594
41.4039
48.5617
46.6208
-7.84727
0.765475
4.09235
5.34914
4.70267
3.62343
2.66863
1.83133
1.08962
0.49589
42.657
49.1352
63.6832
81.6388
-13.1406
-4.4822
-0.213293
2.02875
1.84214
1.08238
0.423353
-0.179575
-0.754032
-1.22449
43.0878
49.7511
61.9819
77.2257
-14.9223
-7.65918
-1.55764
0.499284
0.34668
-0.271621
-0.822588
-1.3618
-1.90262
-2.38335
-2.70796
41.5304
46.1507
52.4485
53.9769
40.5676
20.5181
28.208
44.695
50.0915
-41.6432
-36.4788
-32.5756
-25.7518
-20.6643
-12.1795
-2.43734
0.69466
2.00582
2.03992
1.45008
0.611019
-0.362326
-1.35796
-2.25386
-2.97532
39.3837
41.8832
43.5913
44.6723
38.6444
32.5752
33.7782
39.5086
45.273
-41.2552
-31.3409
-29.7145
-24.274
-17.5396
-7.29839
-2.4706
0.137666
1.87261
2.58236
2.32355
1.50771
0.442964
-0.694781
-1.79482
-2.79823
37.5486
38.8016
39.3117