/*--------------------------------*- C++ -*----------------------------------*\
  =========                 |
  \\      /  F ield         | OpenFOAM: The Open Source CFD Toolbox
   \\    /   O peration     | Website:  https://openfoam.org
    \\  /    A nd           | Version:  13
     \\/     M anipulation  |
\*---------------------------------------------------------------------------*/
FoamFile
{
    format      ascii;
    class       volScalarField;
    location    "600";
    object      nut;
}
// * * * * * * * * * * * * * * * * * * * * * * * * * * * * * * * * * * * * * //

dimensions      [0 2 -1 0 0 0 0];

internalField   nonuniform List<scalar> 
173327
(
0.018412
0.0183995
0.0183872
0.0183752
0.0183634
0.0183519
0.0183407
0.0183297
0.018319
0.0183085
0.0182983
0.0182882
0.0182784
0.0182687
0.0182591
0.0182497
0.0182403
0.018231
0.0182218
0.0182127
0.0182036
0.0181945
0.0181854
0.0181763
0.0181673
0.0181582
0.0181491
0.0181401
0.018131
0.0181219
0.0181128
0.0181037
0.0180946
0.0180855
0.0180764
0.0180673
0.0180583
0.0180493
0.0180403
0.0180313
0.0180223
0.0180134
0.0180046
0.0179957
0.0179869
0.0179782
0.0179695
0.0179608
0.0179521
0.0179435
0.0179349
0.0179263
0.0179177
0.0179092
0.0179007
0.0178922
0.0178836
0.0178751
0.0178665
0.017858
0.0178493
0.0178407
0.017832
0.0178233
0.0178145
0.0178058
0.0177969
0.0177881
0.0177791
0.0177702
0.0177612
0.0177521
0.0177431
0.017734
0.0177249
0.0177157
0.0177072
0.0184143
0.0184019
0.0183897
0.0183778
0.0183661
0.0183547
0.0183436
0.0183327
0.018322
0.0183117
0.0183015
0.0182915
0.0182818
0.0182721
0.0182626
0.0182533
0.018244
0.0182348
0.0182256
0.0182165
0.0182075
0.0181984
0.0181894
0.0181803
0.0181713
0.0181623
0.0181532
0.0181442
0.0181351
0.018126
0.018117
0.0181079
0.0180988
0.0180897
0.0180806
0.0180715
0.0180625
0.0180534
0.0180444
0.0180354
0.0180265
0.0180175
0.0180086
0.0179998
0.017991
0.0179822
0.0179735
0.0179647
0.0179561
0.0179474
0.0179388
0.0179302
0.0179216
0.017913
0.0179045
0.0178959
0.0178874
0.0178788
0.0178702
0.0178616
0.0178529
0.0178443
0.0178356
0.0178268
0.017818
0.0178092
0.0178004
0.0177915
0.0177826
0.0177736
0.0177646
0.0177555
0.0177465
0.0177374
0.0177283
0.0177192
0.0177107
0.0184186
0.0184064
0.0183943
0.0183826
0.0183711
0.0183598
0.0183488
0.0183381
0.0183276
0.0183174
0.0183074
0.0182975
0.0182879
0.0182784
0.0182691
0.0182598
0.0182506
0.0182415
0.0182325
0.0182235
0.0182145
0.0182056
0.0181966
0.0181877
0.0181787
0.0181697
0.0181607
0.0181517
0.0181427
0.0181337
0.0181246
0.0181156
0.0181065
0.0180974
0.0180884
0.0180793
0.0180703
0.0180612
0.0180522
0.0180432
0.0180343
0.0180254
0.0180165
0.0180076
0.0179988
0.01799
0.0179813
0.0179726
0.0179639
0.0179552
0.0179466
0.017938
0.0179295
0.0179209
0.0179123
0.0179038
0.0178952
0.0178867
0.0178781
0.0178695
0.0178609
0.0178522
0.0178435
0.0178348
0.0178261
0.0178173
0.0178085
0.0177996
0.0177907
0.0177817
0.0177728
0.0177637
0.0177547
0.0177456
0.0177366
0.0177275
0.017719
0.0184255
0.0184135
0.0184017
0.0183901
0.0183788
0.0183678
0.018357
0.0183465
0.0183362
0.0183262
0.0183164
0.0183067
0.0182973
0.018288
0.0182788
0.0182697
0.0182607
0.0182517
0.0182428
0.0182339
0.0182251
0.0182163
0.0182074
0.0181986
0.0181897
0.0181808
0.0181719
0.018163
0.018154
0.018145
0.0181361
0.0181271
0.0181181
0.018109
0.0181
0.018091
0.018082
0.018073
0.0180641
0.0180551
0.0180462
0.0180373
0.0180285
0.0180196
0.0180109
0.0180021
0.0179934
0.0179848
0.0179761
0.0179675
0.0179589
0.0179504
0.0179418
0.0179333
0.0179248
0.0179163
0.0179078
0.0178993
0.0178907
0.0178822
0.0178736
0.017865
0.0178563
0.0178477
0.017839
0.0178302
0.0178214
0.0178126
0.0178037
0.0177948
0.0177859
0.0177769
0.0177679
0.0177588
0.0177498
0.0177407
0.0177323
0.0184354
0.0184236
0.0184121
0.0184009
0.0183899
0.0183792
0.0183687
0.0183584
0.0183485
0.0183387
0.0183291
0.0183197
0.0183105
0.0183014
0.0182924
0.0182836
0.0182747
0.018266
0.0182572
0.0182485
0.0182398
0.0182311
0.0182224
0.0182137
0.018205
0.0181962
0.0181874
0.0181785
0.0181697
0.0181608
0.0181519
0.018143
0.0181341
0.0181251
0.0181162
0.0181072
0.0180983
0.0180894
0.0180805
0.0180716
0.0180627
0.0180539
0.0180451
0.0180364
0.0180277
0.018019
0.0180103
0.0180017
0.0179932
0.0179846
0.0179761
0.0179676
0.0179591
0.0179507
0.0179422
0.0179337
0.0179253
0.0179168
0.0179083
0.0178998
0.0178913
0.0178828
0.0178742
0.0178656
0.0178569
0.0178482
0.0178394
0.0178307
0.0178218
0.017813
0.017804
0.0177951
0.0177861
0.0177771
0.0177681
0.0177591
0.0177507
0.018449
0.0184376
0.0184265
0.0184157
0.0184051
0.0183947
0.0183846
0.0183747
0.0183651
0.0183556
0.0183464
0.0183373
0.0183284
0.0183196
0.0183108
0.0183022
0.0182936
0.0182851
0.0182765
0.018268
0.0182595
0.018251
0.0182424
0.0182338
0.0182252
0.0182166
0.0182079
0.0181992
0.0181904
0.0181817
0.0181729
0.018164
0.0181552
0.0181464
0.0181375
0.0181286
0.0181198
0.0181109
0.0181021
0.0180933
0.0180845
0.0180758
0.0180671
0.0180584
0.0180498
0.0180412
0.0180326
0.0180241
0.0180156
0.0180071
0.0179986
0.0179902
0.0179818
0.0179734
0.017965
0.0179566
0.0179482
0.0179398
0.0179314
0.017923
0.0179145
0.017906
0.0178975
0.0178889
0.0178803
0.0178717
0.017863
0.0178542
0.0178454
0.0178366
0.0178277
0.0178188
0.0178099
0.0178009
0.0177919
0.017783
0.0177746
0.0184673
0.0184565
0.0184458
0.0184355
0.0184253
0.0184154
0.0184058
0.0183963
0.0183871
0.0183781
0.0183692
0.0183605
0.0183519
0.0183434
0.018335
0.0183266
0.0183183
0.01831
0.0183017
0.0182934
0.0182851
0.0182767
0.0182684
0.0182599
0.0182515
0.018243
0.0182344
0.0182259
0.0182172
0.0182086
0.0181999
0.0181912
0.0181824
0.0181737
0.0181649
0.0181561
0.0181474
0.0181386
0.0181299
0.0181211
0.0181124
0.0181038
0.0180951
0.0180865
0.018078
0.0180695
0.018061
0.0180525
0.0180441
0.0180357
0.0180273
0.018019
0.0180107
0.0180023
0.017994
0.0179857
0.0179774
0.0179691
0.0179607
0.0179523
0.0179439
0.0179355
0.017927
0.0179185
0.01791
0.0179013
0.0178927
0.017884
0.0178752
0.0178665
0.0178576
0.0178488
0.0178398
0.0178309
0.017822
0.017813
0.0178046
0.018492
0.0184817
0.0184717
0.0184619
0.0184523
0.0184429
0.0184338
0.0184249
0.0184161
0.0184075
0.0183991
0.0183908
0.0183826
0.0183744
0.0183663
0.0183583
0.0183503
0.0183422
0.0183342
0.0183261
0.018318
0.0183098
0.0183016
0.0182934
0.0182851
0.0182767
0.0182683
0.0182599
0.0182513
0.0182428
0.0182342
0.0182256
0.0182169
0.0182082
0.0181996
0.0181909
0.0181822
0.0181735
0.0181648
0.0181562
0.0181476
0.018139
0.0181304
0.0181219
0.0181134
0.018105
0.0180966
0.0180882
0.0180799
0.0180715
0.0180632
0.018055
0.0180467
0.0180385
0.0180302
0.018022
0.0180137
0.0180055
0.0179972
0.0179889
0.0179805
0.0179721
0.0179637
0.0179552
0.0179467
0.0179382
0.0179296
0.0179209
0.0179122
0.0179034
0.0178946
0.0178858
0.0178769
0.017868
0.0178591
0.0178501
0.0178418
0.0185252
0.0185157
0.0185064
0.0184972
0.0184883
0.0184795
0.018471
0.0184626
0.0184544
0.0184463
0.0184383
0.0184304
0.0184226
0.0184148
0.0184071
0.0183993
0.0183916
0.0183838
0.018376
0.0183681
0.0183602
0.0183522
0.0183442
0.0183361
0.0183279
0.0183197
0.0183114
0.018303
0.0182946
0.0182861
0.0182776
0.018269
0.0182604
0.0182518
0.0182432
0.0182346
0.0182259
0.0182173
0.0182087
0.0182001
0.0181916
0.018183
0.0181745
0.0181661
0.0181576
0.0181492
0.0181409
0.0181326
0.0181243
0.018116
0.0181078
0.0180996
0.0180914
0.0180832
0.018075
0.0180668
0.0180586
0.0180504
0.0180422
0.0180339
0.0180256
0.0180172
0.0180089
0.0180004
0.0179919
0.0179834
0.0179748
0.0179662
0.0179575
0.0179487
0.0179399
0.0179311
0.0179222
0.0179133
0.0179044
0.0178955
0.0178872
0.0185705
0.0185618
0.0185532
0.0185448
0.0185366
0.0185285
0.0185205
0.0185127
0.018505
0.0184974
0.0184899
0.0184824
0.0184749
0.0184675
0.01846
0.0184526
0.018445
0.0184375
0.0184298
0.0184221
0.0184143
0.0184065
0.0183985
0.0183905
0.0183824
0.0183742
0.0183659
0.0183576
0.0183492
0.0183408
0.0183323
0.0183237
0.0183152
0.0183066
0.0182979
0.0182893
0.0182807
0.0182721
0.0182635
0.0182549
0.0182464
0.0182378
0.0182294
0.0182209
0.0182125
0.0182041
0.0181958
0.0181875
0.0181793
0.018171
0.0181628
0.0181546
0.0181465
0.0181383
0.0181301
0.018122
0.0181138
0.0181056
0.0180974
0.0180891
0.0180808
0.0180725
0.0180641
0.0180556
0.0180471
0.0180386
0.01803
0.0180214
0.0180127
0.0180039
0.0179951
0.0179863
0.0179774
0.0179685
0.0179595
0.0179506
0.0179423
0.0186323
0.0186245
0.0186168
0.0186091
0.0186016
0.0185941
0.0185867
0.0185794
0.0185722
0.018565
0.0185578
0.0185506
0.0185434
0.0185362
0.0185289
0.0185216
0.0185142
0.0185067
0.0184991
0.0184914
0.0184836
0.0184758
0.0184678
0.0184597
0.0184516
0.0184433
0.018435
0.0184266
0.0184182
0.0184096
0.0184011
0.0183924
0.0183838
0.0183751
0.0183664
0.0183577
0.018349
0.0183403
0.0183317
0.018323
0.0183144
0.0183059
0.0182973
0.0182888
0.0182804
0.018272
0.0182636
0.0182553
0.018247
0.0182387
0.0182305
0.0182223
0.0182141
0.0182059
0.0181977
0.0181895
0.0181813
0.018173
0.0181648
0.0181565
0.0181481
0.0181397
0.0181313
0.0181228
0.0181143
0.0181057
0.018097
0.0180883
0.0180796
0.0180708
0.0180619
0.018053
0.0180441
0.0180351
0.0180261
0.0180172
0.0180088
0.0187166
0.0187096
0.0187027
0.0186957
0.0186887
0.0186818
0.0186748
0.0186678
0.0186608
0.0186538
0.0186468
0.0186397
0.0186325
0.0186253
0.018618
0.0186106
0.018603
0.0185954
0.0185876
0.0185798
0.0185718
0.0185637
0.0185555
0.0185473
0.0185389
0.0185304
0.0185218
0.0185132
0.0185045
0.0184957
0.0184869
0.0184781
0.0184692
0.0184603
0.0184514
0.0184425
0.0184336
0.0184247
0.0184159
0.0184071
0.0183983
0.0183896
0.0183809
0.0183723
0.0183637
0.0183551
0.0183466
0.0183382
0.0183298
0.0183214
0.018313
0.0183047
0.0182964
0.0182881
0.0182798
0.0182715
0.0182632
0.0182548
0.0182464
0.018238
0.0182296
0.0182211
0.0182125
0.0182039
0.0181953
0.0181866
0.0181778
0.018169
0.0181601
0.0181512
0.0181422
0.0181332
0.0181242
0.0181151
0.0181061
0.018097
0.0180885
0.0188291
0.0188229
0.0188165
0.0188099
0.0188032
0.0187965
0.0187896
0.0187826
0.0187755
0.0187683
0.0187611
0.0187537
0.0187462
0.0187386
0.0187309
0.018723
0.0187151
0.0187069
0.0186987
0.0186904
0.0186819
0.0186733
0.0186646
0.0186558
0.0186469
0.0186379
0.0186289
0.0186198
0.0186106
0.0186014
0.0185921
0.0185829
0.0185736
0.0185643
0.018555
0.0185457
0.0185365
0.0185273
0.0185181
0.018509
0.0184999
0.0184909
0.018482
0.0184731
0.0184642
0.0184554
0.0184467
0.018438
0.0184293
0.0184207
0.0184122
0.0184036
0.0183951
0.0183866
0.0183781
0.0183696
0.018361
0.0183525
0.0183439
0.0183353
0.0183267
0.018318
0.0183092
0.0183004
0.0182916
0.0182827
0.0182737
0.0182647
0.0182557
0.0182466
0.0182375
0.0182283
0.0182191
0.0182099
0.0182006
0.0181914
0.0181828
0.018972
0.0189662
0.0189601
0.0189536
0.0189468
0.0189397
0.0189324
0.0189249
0.0189172
0.0189094
0.0189014
0.0188933
0.018885
0.0188765
0.018868
0.0188592
0.0188504
0.0188414
0.0188323
0.0188231
0.0188138
0.0188044
0.0187948
0.0187852
0.0187756
0.0187658
0.018756
0.0187462
0.0187363
0.0187264
0.0187165
0.0187066
0.0186966
0.0186868
0.0186769
0.0186671
0.0186573
0.0186476
0.0186379
0.0186283
0.0186188
0.0186094
0.0186
0.0185907
0.0185814
0.0185723
0.0185632
0.0185541
0.0185451
0.0185362
0.0185273
0.0185184
0.0185096
0.0185008
0.018492
0.0184832
0.0184744
0.0184656
0.0184567
0.0184478
0.0184389
0.0184299
0.0184209
0.0184118
0.0184027
0.0183936
0.0183844
0.0183752
0.0183659
0.0183565
0.0183472
0.0183378
0.0183284
0.018319
0.0183095
0.0183001
0.0182914
0.0191352
0.0191296
0.0191233
0.0191164
0.0191089
0.019101
0.0190928
0.0190842
0.0190754
0.0190664
0.0190572
0.0190478
0.0190383
0.0190286
0.0190188
0.0190089
0.0189989
0.0189888
0.0189785
0.0189682
0.0189578
0.0189474
0.0189368
0.0189263
0.0189157
0.018905
0.0188943
0.0188836
0.0188729
0.0188623
0.0188516
0.0188409
0.0188303
0.0188198
0.0188092
0.0187988
0.0187884
0.0187781
0.0187679
0.0187577
0.0187477
0.0187377
0.0187279
0.0187181
0.0187084
0.0186988
0.0186893
0.0186798
0.0186704
0.0186611
0.0186519
0.0186427
0.0186335
0.0186244
0.0186152
0.0186061
0.018597
0.0185879
0.0185788
0.0185696
0.0185604
0.0185512
0.0185419
0.0185326
0.0185232
0.0185139
0.0185044
0.018495
0.0184854
0.0184759
0.0184663
0.0184568
0.0184472
0.0184376
0.018428
0.0184184
0.0184096
0.0192718
0.0192662
0.0192595
0.0192518
0.0192434
0.0192343
0.0192247
0.0192147
0.0192046
0.0191943
0.0191839
0.0191734
0.0191628
0.0191521
0.0191414
0.0191306
0.0191198
0.0191089
0.0190981
0.0190871
0.0190762
0.0190652
0.0190542
0.0190432
0.0190322
0.0190212
0.0190102
0.0189991
0.0189882
0.0189772
0.0189662
0.0189553
0.0189445
0.0189337
0.018923
0.0189123
0.0189017
0.0188912
0.0188808
0.0188705
0.0188603
0.0188501
0.0188401
0.0188302
0.0188204
0.0188107
0.018801
0.0187915
0.018782
0.0187726
0.0187633
0.0187541
0.0187448
0.0187357
0.0187265
0.0187174
0.0187083
0.0186992
0.0186901
0.018681
0.0186719
0.0186627
0.0186535
0.0186443
0.018635
0.0186257
0.0186163
0.0186069
0.0185975
0.0185881
0.0185786
0.0185691
0.0185596
0.0185501
0.0185406
0.0185311
0.0185223
0.019212
0.019205
0.0191969
0.0191882
0.019179
0.0191697
0.0191603
0.0191511
0.019142
0.0191332
0.0191245
0.0191159
0.0191075
0.0190992
0.0190912
0.0190832
0.0190753
0.0190675
0.0190598
0.019052
0.0190443
0.0190365
0.0190287
0.0190209
0.0190129
0.0190049
0.0189969
0.0189887
0.0189805
0.0189723
0.018964
0.0189556
0.0189472
0.0189387
0.0189303
0.0189218
0.0189133
0.0189049
0.0188964
0.018888
0.0188796
0.0188713
0.0188631
0.0188548
0.0188467
0.0188386
0.0188306
0.0188226
0.0188148
0.0188069
0.0187991
0.0187914
0.0187837
0.0187761
0.0187684
0.0187608
0.0187532
0.0187456
0.0187379
0.0187302
0.0187225
0.0187148
0.018707
0.0186992
0.0186912
0.0186833
0.0186752
0.0186671
0.018659
0.0186508
0.0186425
0.0186341
0.0186258
0.0186174
0.0186089
0.0186005
0.0185927
0.0183721
0.0183674
0.0183643
0.018363
0.0183637
0.0183662
0.0183706
0.0183767
0.0183842
0.018393
0.0184028
0.0184135
0.0184248
0.0184365
0.0184484
0.0184604
0.0184723
0.018484
0.0184955
0.0185065
0.0185171
0.0185272
0.0185367
0.0185455
0.0185538
0.0185615
0.0185686
0.0185752
0.0185811
0.0185865
0.0185913
0.0185956
0.0185994
0.0186026
0.0186054
0.0186078
0.0186098
0.0186115
0.0186128
0.0186138
0.0186145
0.018615
0.0186153
0.0186153
0.0186152
0.018615
0.0186147
0.0186142
0.0186136
0.0186129
0.0186121
0.0186113
0.0186103
0.0186092
0.0186081
0.0186068
0.0186054
0.0186039
0.0186023
0.0186005
0.0185985
0.0185964
0.0185941
0.0185916
0.0185889
0.0185861
0.018583
0.0185797
0.0185762
0.0185726
0.0185687
0.0185646
0.0185604
0.018556
0.0185514
0.0185466
0.0185424
0.0155361
0.0155762
0.0156242
0.0156792
0.0157401
0.0158058
0.0158755
0.0159481
0.0160229
0.016099
0.0161757
0.0162526
0.016329
0.0164046
0.016479
0.016552
0.0166233
0.0166927
0.0167602
0.0168256
0.0168889
0.0169499
0.0170087
0.0170651
0.0171193
0.0171713
0.017221
0.0172685
0.0173139
0.0173573
0.0173987
0.0174382
0.0174759
0.0175118
0.0175462
0.017579
0.0176104
0.0176404
0.0176691
0.0176966
0.017723
0.0177485
0.017773
0.0177967
0.0178196
0.0178418
0.0178634
0.0178842
0.0179045
0.0179242
0.0179433
0.0179618
0.0179799
0.0179973
0.0180143
0.0180306
0.0180465
0.0180617
0.0180764
0.0180905
0.018104
0.0181169
0.0181292
0.0181409
0.0181519
0.0181623
0.0181721
0.0181812
0.0181898
0.0181977
0.018205
0.0182118
0.0182179
0.0182236
0.0182287
0.0182339
0.0106378
0.0107375
0.010852
0.0109795
0.011118
0.0112655
0.0114198
0.0115794
0.0117426
0.0119083
0.0120753
0.0122426
0.0124093
0.0125748
0.0127385
0.0128999
0.0130586
0.0132141
0.0133664
0.0135151
0.0136601
0.0138012
0.0139383
0.0140715
0.0142006
0.0143257
0.0144468
0.0145639
0.0146772
0.0147866
0.0148923
0.0149945
0.0150932
0.0151886
0.015281
0.0153704
0.015457
0.0155409
0.0156223
0.0157014
0.0157782
0.0158529
0.0159257
0.0159965
0.0160657
0.0161331
0.0161989
0.0162632
0.0163261
0.0163875
0.0164475
0.0165061
0.0165634
0.0166193
0.0166738
0.0167269
0.0167785
0.0168288
0.0168776
0.016925
0.016971
0.0170154
0.0170584
0.0170999
0.0171399
0.0171783
0.0172153
0.0172507
0.0172847
0.0173172
0.0173483
0.017378
0.0174063
0.0174332
0.0174589
0.0174837
0.00640644
0.00649665
0.00660388
0.00672635
0.00686215
0.00700949
0.00716668
0.00733214
0.00750443
0.0076822
0.00786428
0.00804961
0.00823729
0.00842655
0.00861673
0.00880721
0.00899747
0.00918702
0.00937545
0.0095624
0.00974755
0.0099306
0.0101113
0.0102895
0.0104649
0.0106374
0.010807
0.0109734
0.0111367
0.0112969
0.0114538
0.0116077
0.0117585
0.0119062
0.012051
0.012193
0.0123323
0.012469
0.0126032
0.0127351
0.0128648
0.0129923
0.0131179
0.0132415
0.0133633
0.0134834
0.0136018
0.0137185
0.0138337
0.0139472
0.0140592
0.0141697
0.0142785
0.0143857
0.0144911
0.0145947
0.0146965
0.0147962
0.0148939
0.0149892
0.0150823
0.015173
0.0152612
0.015347
0.0154302
0.015511
0.0155892
0.0156648
0.0157379
0.0158084
0.0158765
0.015942
0.0160051
0.0160659
0.0161243
0.0161805
0.00421933
0.00426812
0.0043328
0.00441209
0.00450445
0.00460845
0.0047229
0.0048467
0.00497871
0.00511788
0.00526321
0.00541377
0.00556868
0.0057071
0.00582742
0.00595707
0.00609475
0.00623919
0.00638929
0.00654407
0.0067027
0.00686443
0.00702868
0.00719492
0.00736276
0.00753194
0.00770213
0.00787298
0.00804422
0.0082156
0.00838676
0.00855745
0.00872759
0.00889709
0.0090659
0.00923122
0.0093818
0.0095318
0.00968126
0.00983035
0.00997916
0.0101278
0.0102764
0.0104251
0.0105738
0.0107227
0.0108718
0.0110208
0.0111698
0.0113187
0.0114673
0.0116152
0.0117622
0.011908
0.0120525
0.0121955
0.0123369
0.0124764
0.0126141
0.0127497
0.0128832
0.0130144
0.0131433
0.0132697
0.0133937
0.0135151
0.0136338
0.0137498
0.0138632
0.0139737
0.0140814
0.0141863
0.0142882
0.0143872
0.0144833
0.014576
0.00363892
0.00365834
0.00349973
0.00334629
0.00325349
0.00321299
0.00320883
0.00323361
0.0032819
0.00334783
0.00342863
0.00352211
0.00362588
0.00373806
0.00385739
0.00398294
0.00411314
0.00424645
0.00438246
0.00452075
0.00466085
0.00480228
0.00494465
0.00508751
0.00523047
0.00537328
0.00551554
0.00565671
0.00579649
0.00593456
0.00607053
0.00620417
0.00633545
0.00646424
0.00659042
0.00671386
0.00683446
0.00695219
0.0070671
0.00717923
0.00728863
0.00739537
0.00749956
0.00760136
0.007701
0.0077987
0.00789477
0.00798953
0.00808331
0.00817644
0.00826934
0.00836245
0.00845633
0.0085515
0.00864846
0.00874768
0.00884966
0.00895496
0.00906427
0.00917836
0.00929737
0.00942181
0.00955216
0.00968898
0.00983286
0.00998437
0.0101434
0.0103105
0.0104863
0.0106709
0.0108646
0.0110667
0.0112748
0.0114849
0.0116815
0.0119506
0.00317562
0.00326775
0.00346576
0.00369895
0.0039529
0.00420431
0.00444134
0.00466828
0.00488407
0.00508526
0.00527853
0.00546441
0.00564418
0.00581927
0.00599083
0.00616021
0.00632811
0.00649341
0.0066559
0.00681537
0.0069719
0.00712554
0.00727627
0.00742169
0.00755866
0.00768826
0.00781144
0.00792934
0.00804275
0.00815364
0.00826165
0.00836679
0.00846886
0.00856776
0.00866337
0.00875547
0.00884381
0.00892742
0.00900647
0.00908102
0.00915124
0.00921736
0.00927966
0.00933841
0.00939383
0.00944618
0.0094958
0.00954298
0.00958802
0.00963118
0.00967285
0.00971352
0.00975369
0.00979377
0.00983419
0.00987542
0.00991797
0.00996239
0.0100093
0.0100591
0.0101123
0.0101694
0.0102307
0.010297
0.0103687
0.0104465
0.0105306
0.0106213
0.0107187
0.0108226
0.0109326
0.011047
0.0111616
0.0112592
0.0114258
0.00781745
0.0106304
0.0105164
0.0106059
0.0106964
0.0106062
0.0106032
0.0105226
0.0104674
0.0102339
0.0100065
0.00976692
0.00953294
0.00931212
0.00910679
0.00921139
0.00944042
0.00962055
0.009771
0.00990234
0.0100206
0.0101307
0.0102376
0.0103368
0.0104341
0.0105312
0.0106298
0.0107302
0.0108329
0.0109358
0.0110392
0.0111427
0.0112462
0.0113494
0.0114512
0.0115517
0.0116509
0.0117496
0.0118472
0.0119438
0.0120389
0.0121324
0.0122239
0.0123131
0.0123997
0.0124834
0.012564
0.0126409
0.0127139
0.0127825
0.0128448
0.0129014
0.0129529
0.0129995
0.013042
0.013081
0.0131174
0.0131523
0.0131866
0.0132209
0.0132554
0.0132905
0.0133271
0.0133657
0.013407
0.0134514
0.0134991
0.0135503
0.0136049
0.013663
0.013724
0.0137868
0.0138476
0.0138846
0.0139953
0.0122279
0.0130786
0.012947
0.012869
0.0130066
0.0132228
0.0134715
0.0137123
0.0139564
0.014095
0.0142657
0.0144371
0.0146085
0.0147769
0.0149375
0.0150861
0.0152258
0.0153579
0.0154834
0.0156038
0.0157265
0.0158758
0.0160422
0.0161825
0.0163064
0.0164268
0.0165512
0.0159187
0.015331
0.0148732
0.0145102
0.0142253
0.0139996
0.0138247
0.0140312
0.0142182
0.0144015
0.0145953
0.0147912
0.0149891
0.0151888
0.0153901
0.0155914
0.0157909
0.0159857
0.0161733
0.0163513
0.0165165
0.0166688
0.0168075
0.0169317
0.0170407
0.0171367
0.0172225
0.0173002
0.0173719
0.0174396
0.0175049
0.0175689
0.0176329
0.0176964
0.0177572
0.0178134
0.0178647
0.0179091
0.0179473
0.01798
0.0180079
0.018032
0.0180531
0.0180726
0.0180919
0.0181095
0.0180967
0.0181586
0.00995241
0.0102081
0.0104348
0.0106978
0.0110033
0.0112732
0.0115465
0.0118118
0.0120634
0.0123157
0.0125805
0.0128609
0.0131454
0.0134458
0.0137344
0.0139978
0.014252
0.0145024
0.0147522
0.0150014
0.0152486
0.0154911
0.0157284
0.0159617
0.0161917
0.0164182
0.0166409
0.0168596
0.0170735
0.0172796
0.0174787
0.0176705
0.0178554
0.0180339
0.0182056
0.0183716
0.0185331
0.0186916
0.0188464
0.0189972
0.0191435
0.0192849
0.0194209
0.019551
0.0196744
0.0197903
0.0198978
0.0199951
0.0200822
0.0201597
0.0202319
0.0203018
0.0203713
0.0204419
0.0205145
0.0205895
0.0206667
0.0207448
0.0208211
0.0208911
0.0209477
0.0209774
0.0209818
0.0209687
0.0209443
0.0209139
0.0208815
0.0208497
0.0208202
0.0207943
0.0207731
0.0207572
0.0207471
0.0207437
0.0207449
0.00850138
0.00891141
0.00929293
0.0096543
0.0100371
0.010322
0.0105913
0.0108559
0.0111183
0.0113749
0.011626
0.0118726
0.0121158
0.0123509
0.0125776
0.0127964
0.0130113
0.0132264
0.013445
0.0136689
0.013898
0.0141315
0.0143681
0.014611
0.0148584
0.0151074
0.015356
0.0156029
0.015847
0.0160873
0.0163223
0.016546
0.016762
0.0169709
0.0171742
0.0173726
0.0175676
0.0177643
0.0179597
0.0181525
0.0183401
0.0185237
0.0187031
0.0188784
0.0190497
0.0192169
0.0193797
0.0195381
0.0196919
0.0198414
0.0199872
0.0201301
0.0202715
0.0204125
0.020554
0.0206964
0.0208396
0.020983
0.0211251
0.0212637
0.021396
0.0215183
0.0216278
0.0217232
0.0218039
0.0218692
0.0219192
0.0219559
0.0219821
0.0220007
0.0220147
0.0220276
0.0220446
0.0220723
0.0221031
0.00741802
0.00780588
0.0081759
0.0084666
0.00927784
0.00958259
0.00986032
0.01013
0.0103939
0.0106478
0.0108931
0.0111321
0.0113665
0.0115969
0.0118231
0.0120393
0.0122526
0.0124663
0.0126816
0.0128993
0.0131189
0.0133392
0.0135592
0.0137784
0.0139962
0.0142119
0.0144253
0.014636
0.0148441
0.0150482
0.0152479
0.0154429
0.0156337
0.0158205
0.0160039
0.0161842
0.016362
0.0165375
0.0167107
0.0168816
0.0170501
0.0172163
0.0173803
0.0175426
0.017704
0.0178645
0.0180248
0.0181849
0.0183451
0.0185053
0.0186655
0.0188257
0.0189861
0.0191468
0.0193081
0.0194698
0.019632
0.0197941
0.0199556
0.0201149
0.0202698
0.0204172
0.0205515
0.0206756
0.0207922
0.0209035
0.0210122
0.0211214
0.0212351
0.0213511
0.0214672
0.0215816
0.0216952
0.0218091
0.0219206
0.00832539
0.0084994
0.00882548
0.00934616
0.00934021
0.0094762
0.00964929
0.00983002
0.00988573
0.0101735
0.0103247
0.0104823
0.0106517
0.0108347
0.0110296
0.0112333
0.0114424
0.0116549
0.0118696
0.0120852
0.0123003
0.0125131
0.0127224
0.0129276
0.0131284
0.0133249
0.0135159
0.013702
0.0138844
0.0140639
0.0142409
0.0144154
0.0145876
0.0147577
0.0149259
0.0150924
0.0152572
0.0154205
0.0155825
0.0157431
0.0159024
0.0160603
0.0162169
0.016372
0.0165256
0.0166778
0.0168285
0.0169778
0.0171258
0.0172725
0.0174181
0.0175628
0.0177067
0.01785
0.0179929
0.0181356
0.0182784
0.0184214
0.0185649
0.0187092
0.0188538
0.018998
0.019141
0.0192816
0.0194195
0.0195542
0.0196856
0.0198135
0.0199375
0.0200577
0.0201747
0.0202892
0.0204025
0.0205161
0.020631
0.0207409
0.00331437
0.0037774
0.00429132
0.00491813
0.00545749
0.00602425
0.00657657
0.00710373
0.00760847
0.00809823
0.00856357
0.00900218
0.00941053
0.00978849
0.0101554
0.0104777
0.0107776
0.0110653
0.0113309
0.0115746
0.0117982
0.0120039
0.0121939
0.0123704
0.0125358
0.0126926
0.0128435
0.0129907
0.0131354
0.0132785
0.0134207
0.0135627
0.0137053
0.0138489
0.013994
0.0141404
0.0142879
0.0144367
0.0145869
0.0147384
0.0148911
0.0150446
0.0151986
0.0153528
0.0155067
0.0156598
0.0158119
0.0159625
0.0161115
0.0162589
0.0164045
0.0165483
0.0166905
0.0168312
0.0169704
0.0171084
0.0172454
0.0173815
0.0175169
0.0176517
0.0177861
0.0179201
0.0180537
0.0181872
0.0183204
0.0184535
0.0185867
0.01872
0.0188532
0.0189859
0.0191176
0.0192484
0.0193781
0.0195071
0.0196354
0.0197578
0.00454228
0.00434238
0.00430681
0.00432702
0.00440861
0.00454516
0.00472715
0.00494662
0.00519652
0.00547074
0.00576221
0.00606326
0.00636717
0.0066658
0.00695376
0.00722814
0.0074882
0.0077329
0.00798101
0.00823049
0.00847984
0.00872887
0.00897692
0.0092235
0.00946869
0.00971172
0.00995192
0.0101872
0.0104186
0.0106477
0.0108758
0.0111033
0.0113313
0.01156
0.0117882
0.0120169
0.0122468
0.0124787
0.0127129
0.01295
0.0131901
0.0134333
0.0136794
0.013928
0.0141782
0.0144273
0.0146497
0.0148265
0.0149981
0.0151644
0.0153261
0.0154837
0.0156377
0.0157886
0.0159368
0.0160828
0.0162269
0.0163694
0.0165105
0.0166506
0.0167899
0.0169285
0.0170667
0.0172048
0.0173428
0.0174809
0.0176193
0.0177578
0.0178967
0.0180358
0.0181752
0.0183149
0.0184551
0.0185958
0.018737
0.0188741
0.00916916
0.00895085
0.00846119
0.00778232
0.00728322
0.00693074
0.00667945
0.00649092
0.00636884
0.00633862
0.00639342
0.00647168
0.00657142
0.00669289
0.00683452
0.00699302
0.0071609
0.00733743
0.00750392
0.0076603
0.00780597
0.00794019
0.00806267
0.00817365
0.00827458
0.00836889
0.00846571
0.00857502
0.00869508
0.00882565
0.00896559
0.00911434
0.00927163
0.00943635
0.00960598
0.00978023
0.00995909
0.0101424
0.0103298
0.0105214
0.0107167
0.0109148
0.0111157
0.0113195
0.011526
0.0117349
0.0119464
0.0121601
0.0123762
0.0125944
0.0128145
0.0130362
0.0132591
0.013483
0.0137073
0.0139319
0.0141562
0.01438
0.0146028
0.0148242
0.0150438
0.0152609
0.0154748
0.0156991
0.0159222
0.0161396
0.0163513
0.0165572
0.0167575
0.0169519
0.0171403
0.0173223
0.0174974
0.0176595
0.0178026
0.0179706
0.0132605
0.0130255
0.0128224
0.0126457
0.0124877
0.0123437
0.0122099
0.0120848
0.0119678
0.0118595
0.0115589
0.0113537
0.0111997
0.011077
0.0109831
0.0109147
0.0108699
0.0108486
0.0108482
0.0108641
0.0108927
0.0109318
0.010979
0.0110314
0.0110871
0.0111289
0.0111513
0.0111567
0.011147
0.0111241
0.0110908
0.0110493
0.0110055
0.0109739
0.0109543
0.0109469
0.0109513
0.0109673
0.0109937
0.0110283
0.0110712
0.0111225
0.0111824
0.0112504
0.0113264
0.01141
0.0115009
0.0115994
0.0117053
0.0118185
0.0119388
0.0120654
0.012198
0.0123362
0.0124796
0.0126279
0.0127806
0.0129373
0.0130978
0.0132621
0.0134296
0.0136
0.0137728
0.0139471
0.0141226
0.0142987
0.014475
0.0146508
0.014825
0.0149969
0.0151655
0.0153299
0.0154884
0.0156418
0.0158915
0.0167072
0.016551
0.0164026
0.0162601
0.0161214
0.015985
0.0158497
0.015715
0.0155806
0.0154468
0.0153142
0.0151833
0.015055
0.0149304
0.0148104
0.014696
0.0145882
0.0144876
0.0143949
0.0143105
0.0142348
0.0141677
0.0141093
0.0140594
0.0140179
0.0139842
0.0139582
0.0139393
0.0139274
0.013922
0.0139225
0.0139286
0.0139401
0.013957
0.0139791
0.0140065
0.0140392
0.014077
0.01412
0.0141668
0.014217
0.0142705
0.0143276
0.0143883
0.0144526
0.0145211
0.0145939
0.0146709
0.0146183
0.0145479
0.0144857
0.0144322
0.0143876
0.0143527
0.0143278
0.0143129
0.0143083
0.0143137
0.0143291
0.0143543
0.0143889
0.0144328
0.0144855
0.0145466
0.0146153
0.0146909
0.0147727
0.0148596
0.0149507
0.0150454
0.0151428
0.0152426
0.0153461
0.015462
0.0156319
0.0186154
0.0185406
0.0184647
0.0183876
0.0183088
0.0182282
0.0181456
0.0180608
0.0179739
0.017885
0.0177941
0.0177015
0.0176077
0.0175129
0.0174176
0.0173224
0.0172277
0.0171342
0.0170423
0.0169525
0.0168653
0.0167812
0.0167006
0.0166239
0.0165512
0.0164829
0.016419
0.0163598
0.0163051
0.0162553
0.0162103
0.0161699
0.0161342
0.0161031
0.0160766
0.0160548
0.0160374
0.016024
0.0160146
0.0160093
0.0160079
0.0160107
0.0160175
0.0160284
0.0160435
0.0160617
0.0160832
0.0161081
0.0161363
0.0161681
0.0162037
0.0162431
0.0162864
0.0163334
0.0163843
0.016439
0.0164975
0.0165597
0.0166257
0.0166952
0.0167683
0.0168449
0.0169249
0.0170082
0.0170946
0.017184
0.0172763
0.0173713
0.0174689
0.0175689
0.017671
0.0177751
0.0178809
0.017988
0.0180932
0.0194214
0.0193987
0.0193723
0.0193427
0.0193101
0.0192748
0.0192369
0.0191967
0.0191541
0.0191093
0.0190624
0.0190135
0.0189625
0.0189098
0.0188553
0.0187992
0.0187417
0.0186831
0.0186233
0.0185628
0.0185017
0.0184404
0.0183792
0.0183183
0.018258
0.0181986
0.0181405
0.0180837
0.0180286
0.0179754
0.0179243
0.0178754
0.0178289
0.0177848
0.0177434
0.0177047
0.0176689
0.0176358
0.0176055
0.0175779
0.0175531
0.017531
0.0175118
0.0174951
0.017481
0.0174694
0.0174605
0.0174542
0.0174507
0.0174497
0.0174511
0.0174548
0.017461
0.0174697
0.0174811
0.017495
0.0175117
0.017531
0.0175532
0.0175782
0.017606
0.0176368
0.0176705
0.0177072
0.0177469
0.0177896
0.0178353
0.017884
0.0179357
0.0179904
0.018048
0.0181084
0.0181715
0.018237
0.018303
0.0195468
0.0195554
0.0195598
0.0195606
0.0195582
0.0195529
0.0195449
0.0195346
0.0195221
0.0195074
0.0194907
0.0194719
0.0194512
0.0194285
0.0194038
0.0193772
0.0193487
0.0193184
0.0192862
0.0192524
0.0192169
0.01918
0.0191416
0.0191021
0.0190617
0.0190205
0.0189788
0.0189369
0.0188949
0.0188531
0.0188117
0.0187708
0.0187307
0.0186915
0.0186534
0.0186165
0.0185809
0.0185467
0.018514
0.0184828
0.0184532
0.0184252
0.018399
0.0183744
0.0183515
0.0183301
0.0183103
0.0182921
0.0182754
0.0182602
0.0182464
0.018234
0.0182231
0.0182135
0.0182052
0.0181983
0.0181927
0.0181885
0.0181857
0.0181845
0.0181847
0.0181866
0.01819
0.0181952
0.0182022
0.018211
0.0182218
0.0182345
0.0182493
0.0182662
0.0182854
0.0183068
0.0183304
0.0183563
0.0183838
0.0184253
0.0191573
0.019373
0.019389
0.019402
0.0194123
0.0194201
0.0194258
0.0194294
0.0194311
0.0194308
0.0194285
0.0194244
0.0194183
0.0194103
0.0194003
0.0193882
0.0193742
0.0193582
0.0193402
0.0193204
0.0192987
0.0192754
0.0192504
0.0192238
0.0191959
0.0191668
0.0191368
0.0191061
0.0190747
0.0190431
0.0190112
0.0189794
0.0189477
0.0189163
0.0188854
0.0188549
0.018825
0.0187959