/*--------------------------------*- C++ -*----------------------------------*\
  =========                 |
  \\      /  F ield         | OpenFOAM: The Open Source CFD Toolbox
   \\    /   O peration     | Website:  https://openfoam.org
    \\  /    A nd           | Version:  13
     \\/     M anipulation  |
\*---------------------------------------------------------------------------*/
FoamFile
{
    format      ascii;
    class       volScalarField;
    location    "600";
    object      omega;
}
// * * * * * * * * * * * * * * * * * * * * * * * * * * * * * * * * * * * * * //

dimensions      [0 0 -1 0 0 0 0];

internalField   nonuniform List<scalar> 
173327
(
14.9462
14.8916
14.8376
14.7842
14.7313
14.6791
14.6274
14.5763
14.5257
14.4756
14.426
14.3769
14.3282
14.28
14.2321
14.1845
14.1374
14.0905
14.0439
13.9976
13.9516
13.9058
13.8602
13.8149
13.7698
13.7249
13.6802
13.6357
13.5914
13.5473
13.5035
13.4598
13.4163
13.373
13.33
13.2872
13.2446
13.2022
13.1601
13.1182
13.0765
13.035
12.9938
12.9529
12.9122
12.8717
12.8315
12.7915
12.7517
12.7122
12.6729
12.6339
12.595
12.5564
12.518
12.4799
12.4419
12.4041
12.3665
12.3291
12.2919
12.2548
12.2179
12.1811
12.1445
12.1081
12.0718
12.0357
11.9996
11.9638
11.928
11.8924
11.857
11.8217
11.7865
11.7514
11.7169
14.9482
14.8937
14.8398
14.7865
14.7337
14.6815
14.6299
14.5789
14.5284
14.4784
14.4289
14.3799
14.3313
14.2831
14.2353
14.1878
14.1407
14.0939
14.0473
14.0011
13.9551
13.9093
13.8637
13.8184
13.7733
13.7284
13.6837
13.6392
13.5949
13.5508
13.5069
13.4632
13.4197
13.3764
13.3333
13.2904
13.2477
13.2053
13.1631
13.1211
13.0793
13.0378
12.9966
12.9556
12.9148
12.8742
12.8339
12.7939
12.7541
12.7145
12.6751
12.636
12.5972
12.5585
12.5201
12.4819
12.4438
12.406
12.3684
12.331
12.2937
12.2566
12.2197
12.183
12.1464
12.11
12.0737
12.0376
12.0016
11.9657
11.93
11.8945
11.8591
11.8238
11.7887
11.7537
11.7193
14.9518
14.8975
14.8437
14.7905
14.7379
14.6858
14.6343
14.5834
14.533
14.4832
14.4338
14.3849
14.3364
14.2883
14.2406
14.1932
14.1462
14.0994
14.053
14.0068
13.9608
13.9151
13.8696
13.8243
13.7792
13.7344
13.6897
13.6452
13.6009
13.5568
13.5129
13.4691
13.4256
13.3823
13.3392
13.2963
13.2536
13.2111
13.1689
13.1268
13.085
13.0435
13.0022
12.9611
12.9203
12.8797
12.8394
12.7993
12.7594
12.7198
12.6804
12.6413
12.6024
12.5637
12.5252
12.487
12.4489
12.4111
12.3734
12.336
12.2987
12.2616
12.2247
12.188
12.1514
12.115
12.0787
12.0426
12.0066
11.9707
11.935
11.8995
11.8641
11.8288
11.7937
11.7587
11.7243
14.9575
14.9033
14.8497
14.7967
14.7443
14.6924
14.6411
14.5904
14.5402
14.4905
14.4412
14.3924
14.3441
14.2961
14.2485
14.2012
14.1543
14.1076
14.0612
14.0151
13.9692
13.9235
13.8781
13.8329
13.7878
13.743
13.6983
13.6538
13.6095
13.5654
13.5215
13.4778
13.4342
13.3909
13.3478
13.3048
13.2621
13.2196
13.1774
13.1353
13.0935
13.0519
13.0106
12.9695
12.9286
12.888
12.8477
12.8076
12.7677
12.728
12.6886
12.6495
12.6105
12.5718
12.5333
12.4951
12.457
12.4192
12.3815
12.344
12.3067
12.2696
12.2327
12.196
12.1594
12.1229
12.0866
12.0505
12.0145
11.9786
11.9429
11.9073
11.8719
11.8366
11.8015
11.7665
11.732
14.9657
14.9118
14.8585
14.8057
14.7535
14.7019
14.6509
14.6003
14.5503
14.5008
14.4518
14.4031
14.3549
14.3071
14.2597
14.2125
14.1657
14.1191
14.0728
14.0268
13.9809
13.9353
13.8899
13.8447
13.7997
13.7549
13.7102
13.6658
13.6215
13.5774
13.5335
13.4897
13.4462
13.4028
13.3597
13.3167
13.274
13.2315
13.1892
13.1471
13.1053
13.0637
13.0223
12.9812
12.9403
12.8997
12.8593
12.8191
12.7792
12.7396
12.7001
12.6609
12.622
12.5832
12.5447
12.5064
12.4684
12.4305
12.3928
12.3553
12.318
12.2809
12.2439
12.2071
12.1705
12.134
12.0977
12.0615
12.0255
11.9896
11.9538
11.9182
11.8827
11.8474
11.8122
11.7772
11.7427
14.977
14.9234
14.8704
14.818
14.7661
14.7148
14.6641
14.6138
14.5641
14.5148
14.466
14.4176
14.3696
14.3219
14.2746
14.2276
14.1809
14.1345
14.0882
14.0423
13.9965
13.951
13.9056
13.8604
13.8154
13.7706
13.726
13.6815
13.6372
13.5931
13.5492
13.5054
13.4619
13.4185
13.3753
13.3323
13.2896
13.247
13.2047
13.1626
13.1207
13.079
13.0376
12.9965
12.9555
12.9149
12.8744
12.8343
12.7943
12.7546
12.7151
12.6759
12.6369
12.5982
12.5596
12.5213
12.4832
12.4452
12.4075
12.37
12.3326
12.2955
12.2585
12.2216
12.185
12.1484
12.1121
12.0758
12.0397
12.0038
11.968
11.9323
11.8968
11.8614
11.8261
11.791
11.7565
14.9923
14.9392
14.8866
14.8346
14.7831
14.7321
14.6817
14.6318
14.5824
14.5334
14.4848
14.4367
14.3889
14.3414
14.2943
14.2474
14.2008
14.1545
14.1084
14.0625
14.0168
13.9713
13.926
13.8808
13.8358
13.791
13.7464
13.7019
13.6576
13.6134
13.5694
13.5256
13.482
13.4386
13.3954
13.3523
13.3095
13.2669
13.2245
13.1823
13.1404
13.0987
13.0572
13.016
12.975
12.9343
12.8938
12.8536
12.8136
12.7738
12.7343
12.695
12.656
12.6171
12.5785
12.5401
12.502
12.464
12.4262
12.3886
12.3512
12.314
12.2769
12.24
12.2033
12.1667
12.1302
12.0939
12.0578
12.0218
11.9859
11.9501
11.9145
11.879
11.8437
11.8085
11.7738
15.0129
14.9603
14.9082
14.8566
14.8056
14.7551
14.7051
14.6555
14.6064
14.5577
14.5095
14.4615
14.414
14.3667
14.3197
14.273
14.2266
14.1803
14.1343
14.0885
14.0428
13.9973
13.952
13.9068
13.8618
13.817
13.7723
13.7278
13.6834
13.6392
13.5951
13.5512
13.5075
13.464
13.4207
13.3776
13.3347
13.2919
13.2495
13.2072
13.1652
13.1234
13.0818
13.0405
12.9994
12.9586
12.918
12.8777
12.8376
12.7978
12.7582
12.7188
12.6797
12.6408
12.6021
12.5636
12.5254
12.4873
12.4495
12.4118
12.3743
12.337
12.2998
12.2628
12.226
12.1893
12.1528
12.1164
12.0801
12.044
12.008
11.9721
11.9364
11.9008
11.8653
11.83
11.7953
15.0407
14.9887
14.9371
14.8861
14.8355
14.7855
14.7359
14.6867
14.6379
14.5896
14.5416
14.4939
14.4465
14.3994
14.3526
14.306
14.2596
14.2134
14.1674
14.1216
14.0759
14.0304
13.985
13.9398
13.8947
13.8498
13.805
13.7604
13.7159
13.6715
13.6273
13.5833
13.5395
13.4958
13.4524
13.4091
13.366
13.3232
13.2806
13.2381
13.196
13.154
13.1123
13.0709
13.0297
12.9887
12.948
12.9076
12.8674
12.8274
12.7877
12.7482
12.7089
12.6699
12.6311
12.5925
12.5542
12.516
12.478
12.4402
12.4026
12.3652
12.3279
12.2908
12.2538
12.217
12.1803
12.1438
12.1074
12.0711
12.035
11.999
11.9631
11.9273
11.8917
11.8563
11.8214
15.0784
15.027
14.976
14.9255
14.8754
14.8258
14.7766
14.7278
14.6793
14.6312
14.5834
14.5359
14.4886
14.4416
14.3949
14.3483
14.3019
14.2557
14.2096
14.1637
14.1179
14.0723
14.0268
13.9814
13.9361
13.891
13.8461
13.8012
13.7565
13.712
13.6676
13.6233
13.5793
13.5354
13.4917
13.4482
13.4049
13.3619
13.319
13.2764
13.234
13.1919
13.15
13.1083
13.0669
13.0258
12.9849
12.9442
12.9038
12.8637
12.8238
12.7841
12.7447
12.7055
12.6666
12.6278
12.5893
12.5509
12.5128
12.4748
12.437
12.3994
12.3619
12.3246
12.2875
12.2505
12.2136
12.1769
12.1403
12.1039
12.0676
12.0314
11.9953
11.9594
11.9236
11.8879
11.8528
15.1299
15.0791
15.0287
14.9786
14.929
14.8797
14.8308
14.7822
14.7339
14.6859
14.6381
14.5906
14.5434
14.4963
14.4494
14.4027
14.3561
14.3097
14.2634
14.2172
14.1712
14.1253
14.0795
14.0338
13.9882
13.9428
13.8975
13.8523
13.8073
13.7624
13.7176
13.6731
13.6287
13.5845
13.5404
13.4966
13.453
13.4096
13.3664
13.3235
13.2808
13.2383
13.1961
13.1542
13.1125
13.0711
13.0299
12.989
12.9483
12.9079
12.8678
12.8279
12.7882
12.7488
12.7096
12.6706
12.6318
12.5932
12.5548
12.5166
12.4786
12.4407
12.403
12.3655
12.3281
12.2908
12.2537
12.2168
12.1799
12.1432
12.1067
12.0702
12.0339
11.9977
11.9617
11.9258
11.8904
15.2011
15.1508
15.1008
15.051
15.0016
14.9524
14.9035
14.8549
14.8065
14.7583
14.7103
14.6626
14.615
14.5676
14.5203
14.4731
14.4261
14.3792
14.3324
14.2857
14.2391
14.1926
14.1463
14.1
14.0539
14.0079
13.962
13.9163
13.8707
13.8253
13.78
13.7349
13.69
13.6452
13.6007
13.5564
13.5123
13.4684
13.4248
13.3814
13.3382
13.2953
13.2527
13.2103
13.1682
13.1264
13.0848
13.0435
13.0025
12.9617
12.9212
12.8809
12.8409
12.8011
12.7615
12.7222
12.6831
12.6442
12.6054
12.5669
12.5285
12.4903
12.4523
12.4144
12.3767
12.3392
12.3017
12.2644
12.2273
12.1902
12.1533
12.1166
12.0799
12.0434
12.0071
11.9708
11.9352
15.3013
15.2512
15.2013
15.1514
15.1017
15.0522
15.0028
14.9536
14.9046
14.8557
14.807
14.7584
14.71
14.6617
14.6135
14.5654
14.5174
14.4695
14.4218
14.3741
14.3265
14.2791
14.2318
14.1846
14.1375
14.0906
14.0438
13.9972
13.9507
13.9044
13.8582
13.8123
13.7666
13.721
13.6757
13.6306
13.5858
13.5412
13.4969
13.4528
13.409
13.3654
13.3222
13.2792
13.2365
13.1941
13.1519
13.1101
13.0685
13.0272
12.9861
12.9453
12.9048
12.8645
12.8245
12.7847
12.7451
12.7057
12.6665
12.6275
12.5886
12.55
12.5115
12.4732
12.435
12.397
12.3591
12.3214
12.2838
12.2463
12.209
12.1718
12.1348
12.0978
12.0611
12.0244
11.9884
15.4468
15.3964
15.3458
15.2951
15.2444
15.1936
15.1428
15.0921
15.0414
14.9909
14.9404
14.8901
14.8398
14.7897
14.7397
14.6898
14.64
14.5904
14.5408
14.4914
14.4422
14.393
14.3441
14.2953
14.2466
14.1981
14.1498
14.1017
14.0538
14.0061
13.9586
13.9114
13.8644
13.8176
13.7711
13.7248
13.6788
13.6331
13.5877
13.5426
13.4978
13.4533
13.4091
13.3651
13.3215
13.2783
13.2353
13.1926
13.1502
13.1081
13.0663
13.0247
12.9834
12.9424
12.9017
12.8611
12.8208
12.7808
12.7409
12.7012
12.6618
12.6225
12.5833
12.5444
12.5056
12.467
12.4285
12.3902
12.352
12.3139
12.276
12.2383
12.2006
12.1632
12.1258
12.0887
12.0521
15.671
15.6192
15.5667
15.5136
15.4601
15.4063
15.3523
15.2983
15.2441
15.1901
15.136
15.0821
15.0283
14.9746
14.9211
14.8677
14.8146
14.7616
14.7089
14.6563
14.604
14.5519
14.5
14.4484
14.397
14.3459
14.2951
14.2445
14.1942
14.1442
14.0945
14.045
13.9959
13.9471
13.8986
13.8505
13.8026
13.7551
13.708
13.6612
13.6147
13.5686
13.5229
13.4775
13.4324
13.3877
13.3434
13.2994
13.2557
13.2123
13.1692
13.1265
13.084
13.0419
13
12.9584
12.917
12.8759
12.835
12.7943
12.7539
12.7136
12.6735
12.6336
12.5939
12.5543
12.515
12.4758
12.4367
12.3979
12.3591
12.3206
12.2822
12.2439
12.2059
12.168
12.1307
16.0511
15.9962
15.9395
15.8814
15.8222
15.7621
15.7013
15.6401
15.5787
15.5173
15.4559
15.3947
15.3336
15.2729
15.2124
15.1522
15.0924
15.033
14.9739
14.9153
14.8571
14.7992
14.7419
14.6849
14.6284
14.5723
14.5167
14.4615
14.4068
14.3525
14.2986
14.2452
14.1922
14.1397
14.0877
14.036
13.9849
13.9341
13.8839
13.834
13.7846
13.7357
13.6872
13.6391
13.5914
13.5442
13.4973
13.4509
13.4049
13.3592
13.314
13.2691
13.2245
13.1803
13.1364
13.0928
13.0495
13.0066
12.9639
12.9214
12.8792
12.8373
12.7956
12.7541
12.7129
12.6718
12.631
12.5903
12.5499
12.5096
12.4696
12.4298
12.3901
12.3507
12.3114
12.2724
12.2341
16.8095
16.7468
16.6798
16.6094
16.5363
16.4612
16.3847
16.3073
16.2293
16.1511
16.0729
15.9949
15.9173
15.8402
15.7638
15.6882
15.6134
15.5395
15.4664
15.3942
15.3229
15.2525
15.1831
15.1145
15.0468
14.98
14.914
14.8489
14.7845
14.721
14.6583
14.5964
14.5353
14.4749
14.4152
14.3562
14.2979
14.2404
14.1835
14.1272
14.0716
14.0166
13.9623
13.9085
13.8553
13.8027
13.7507
13.6992
13.6483
13.5978
13.5479
13.4985
13.4495
13.401
13.3529
13.3053
13.2581
13.2113
13.1648
13.1188
13.0731
13.0278
12.9828
12.9382
12.8938
12.8498
12.8061
12.7627
12.7196
12.6768
12.6343
12.592
12.5501
12.5084
12.467
12.4259
12.3856
18.6568
18.5666
18.466
18.3571
18.2416
18.1215
17.9981
17.8729
17.7467
17.6206
17.4949
17.3704
17.2473
17.126
17.0067
16.8895
16.7747
16.6621
16.5519
16.4441
16.3387
16.2355
16.1345
16.0357
15.9391
15.8447
15.7523
15.662
15.5735
15.4869
15.4021
15.319
15.2375
15.1576
15.0791
15.0022
14.9266
14.8523
14.7793
14.7075
14.6369
14.5675
14.4991
14.4317
14.3654
14.3
14.2356
14.172
14.1094
14.0476
13.9867
13.9266
13.8672
13.8087
13.7509
13.6938
13.6374
13.5817
13.5267
13.4724
13.4187
13.3657
13.3133
13.2614
13.2102
13.1596
13.1095
13.06
13.011
12.9626
12.9147
12.8672
12.8203
12.7739
12.728
12.6825
12.6381
23.6216
23.3811
23.1209
22.8467
22.5637
22.2761
21.9873
21.7
21.4163
21.1378
20.8656
20.6005
20.343
20.0934
19.8519
19.6185
19.3931
19.1756
18.9657
18.7632
18.5679
18.3795
18.1978
18.0224
17.8531
17.6896
17.5316
17.3788
17.231
17.0878
16.9491
16.8146
16.684
16.5572
16.4338
16.3138
16.1969
16.0828
15.9715
15.8629
15.7567
15.6529
15.5514
15.452
15.3548
15.2595
15.1661
15.0746
14.9849
14.8969
14.8106
14.726
14.6429
14.5615
14.4815
14.403
14.3261
14.2505
14.1764
14.1036
14.0323
13.9622
13.8935
13.8261
13.7599
13.695
13.6312
13.5687
13.5072
13.4469
13.3877
13.3295
13.2723
13.2161
13.1608
13.1071
36.9286
36.2334
35.4939
34.728
33.9507
33.1731
32.4024
31.6459
30.9084
30.1937
29.504
28.8409
28.205
27.5964
27.0149
26.4598
25.9305
25.426
24.9452
24.4872
24.0509
23.6351
23.2389
22.861
22.5004
22.1563
21.8274
21.513
21.2122
20.924
20.6476
20.3823
20.1274
19.882
19.6457
19.4177
19.1974
18.9845
18.7785
18.5788
18.3851
18.1971
18.0145
17.8369
17.6641
17.496
17.3321
17.1725
17.017
16.8653
16.7175
16.5734
16.4328
16.2957
16.162
16.0317
15.9046
15.7808
15.6602
15.5428
15.4285
15.3173
15.209
15.1038
15.0015
14.9019
14.8052
14.7112
14.6198
14.5309
14.4445
14.3605
14.2788
14.1992
14.1217
14.0471
61.805
60.3993
58.8921
57.3233
55.7249
54.1217
52.5331
50.9739
49.4547
47.9831
46.5638
45.1998
43.8924
42.6417
41.447
40.3075
39.2216
38.1876
37.2038
36.268
35.3782
34.5321
33.7275
32.9623
32.2344
31.5414
30.8815
30.2526
29.6527
29.08
28.5326
28.0089
27.5073
27.0262
26.5641
26.1199
25.692
25.2796
24.8813
24.4964
24.1238
23.7628
23.4127
23.0729
22.7427
22.4216
22.1093
21.8053
21.5093
21.2212
20.9405
20.667
20.4005
20.1409
19.888
19.6422
19.4031
19.1709
18.9453
18.7262
18.5137
18.3077
18.1083
17.9153
17.7288
17.5487
17.3748
17.2071
17.0454
16.8896
16.7395
16.5949
16.4556
16.3215
16.1923
16.0691
92.6375
90.7446
88.7253
86.631
84.4995
82.3585
80.2315
78.1369
76.087
74.0901
72.1511
70.2724
68.455
66.699
65.0038
63.3688
61.7933
60.2762
58.8165
57.4126
56.0633
54.7669
53.5217
52.3257
51.1769
50.0733
49.0126
47.9925
47.0108
46.065
45.1528
44.2721
43.4205
42.5958
41.796
41.0191
40.2631
39.5263
38.8072
38.1042
37.4161
36.7417
36.08
35.4302
34.7914
34.1633
33.5453
32.9372
32.3389
31.7504
31.1718
30.6031
30.0447
29.4969
28.9601
28.4346
27.9211
27.4198
26.9313
26.4561
25.9944
25.5467
25.1133
24.6944
24.2902
23.9008
23.5262
23.1662
22.8209
22.49
22.1733
21.8706
21.5815
21.3055
21.0423
20.7936
147.587
147.642
146.169
144.606
143.212
141.873
140.505
139.046
137.453
135.71
133.812
131.769
129.595
127.313
124.948
122.522
120.059
117.581
115.107
112.652
110.228
107.846
105.513
103.234
101.015
98.8571
96.7608
94.7262
92.7522
90.8369
88.9778
87.1719
85.4156
83.7052
82.0369
80.4066
78.8105
77.2447
75.7057
74.1899
72.6943
71.2159
69.7523
68.3015
66.8619
65.4321
64.0116
62.6001
61.1976
59.8047
58.4225
57.0523
55.6957
54.3543
53.0302
51.7251
50.4412
49.1806
47.9451
46.7367
45.5573
44.4086
43.2924
42.21
41.1626
40.1514
39.177
38.2401
37.3411
36.4799
35.6567
34.8711
34.1229
33.4117
32.7375
32.1036
294.083
306.428
315.675
320.403
320.512
316.943
310.84
303.071
294.33
285.201
275.991
266.903
258.059
249.527
241.34
233.49
225.96
218.748
211.855
205.279
199.017
193.062
187.408
182.047
176.978
172.19
167.668
163.395
159.35
155.514
151.867
148.391
145.069
141.886
138.825
135.874
133.019
130.249
127.554
124.922
122.346
119.817
117.328
114.872
112.443
110.038
107.653
105.285
102.932
100.593
98.2684
95.9583
93.6638
91.3865
89.1286
86.8924
84.6808
82.4967
80.3432
78.2235
76.1411
74.0992
72.1009
70.1493
68.247
66.3965
64.6001
62.8597
61.177
59.5534
57.9904
56.4892
55.0515
53.6816
52.3847
359.066
268.838
196.563
169.789
160.926
160.04
160.473
161.761
163.199
165.629
168.851
172.843
177.505
182.733
188.386
192.04
193.399
193.472
192.792
191.649
190.203
188.55
186.749
184.582
182.138
179.523
176.806
174.039
171.259
168.509
165.794
163.119
160.491
157.912
155.378
152.891
150.448
148.043
145.676
143.345
141.046
138.777
136.534
134.311
132.106
129.915
127.735
125.562
123.396
121.234
119.077
116.927
114.783
112.646
110.518
108.398
106.288
104.189
102.103
100.03
97.9735
95.9351
93.9171
91.9216
89.9509
88.0076
86.0941
84.2131
82.3673
80.5594
78.7923
77.0688
75.393
73.7742
72.2212
129.814
118.877
114.949
111.996
110.028
108.122
106.117
103.916
101.727
99.1559
97.3194
95.7089
94.3204
93.1545
92.1756
91.3063
90.5185
89.7855
89.1044
88.4763
87.9585
87.7698
87.8407
88.5346
89.7174
91.2036
92.8579
94.5764
96.2727
97.8496
99.31
100.638
101.823
102.861
103.505
103.898
104.121
104.19
104.133
103.981
103.758
103.479
103.157
102.801
102.416
102.007
101.577
101.117
100.634
100.131
99.6028
99.0458
98.4591
97.8425
97.1971
96.524
95.8249
95.1009
94.3526
93.58
92.7822
91.9575
91.1049
90.2243
89.3164
88.3824
87.4238
86.4427
85.4416
84.423
83.3896
82.3443
81.2906
80.2381
79.1937
117.224
117.474
117.236
116.292
113.941
110.924
107.484
104.012
100.781
97.7659
94.9987
92.4882
90.1408
88.1377
86.2686
84.407
82.6739
81.0998
79.6899
78.4317
77.3039
76.2689
75.3113
74.4482
73.684
73.0122
72.4222
71.902
71.4379
71.0076
70.6077
70.2293
69.8668
69.5166
69.1714
68.8302
68.4947
68.1716
67.8577
67.5527
67.2572
66.9724
66.6988
66.4364
66.1851
65.9442
65.7149
65.5097
65.3241
65.1604
65.0509
65.0147
65.0646
65.2103
65.4579
65.8102
66.2657
66.8192
67.4592
68.1648
68.8977
69.5709
70.1575
70.6633
71.0888
71.4293
71.6845
71.8638
71.9745
72.0224
72.0129
71.9501
71.8378
71.6831
71.4813
144.703
143.355
140.939
138.337
133.742
129.271
125.022
120.996
117.191
113.555
110.094
106.813
103.713
100.765
97.9622
95.291
92.7611
90.3824
88.1626
86.1002
84.1913
82.4287
80.8017
79.32
77.9754
76.7487
75.624
74.5875
73.6272
72.732
71.8878
71.044
70.218
69.4117
68.6281
67.8678
67.1352
66.4589
65.8202
65.2075
64.6053
64.0182
63.4448
62.8844
62.3367
61.8019
61.2797
60.7705
60.2748
59.7938
59.3294
58.8844
58.4623
58.0671
57.702
57.3693
57.0707
56.8066
56.5763
56.378
56.2079
56.0605
55.9316
55.8199
55.7305
55.6735
55.6539
55.6659
55.706
55.7713
55.8613
55.9765
56.1294
56.3416
56.5861
168.225
166.515
163.774
161.18
155.727
150.308
145.233
140.556
136.124
131.875
127.832
124.009
120.408
117.024
113.842
110.765
107.856
105.133
102.594
100.238
98.0545
96.0279
94.1428
92.3855
90.7427
89.2005
87.7462
86.3691
85.0597
83.8058
82.5991
81.4332
80.3042
79.2084
78.1443
77.1102
76.1043
75.1251
74.1701
73.2375
72.3254
71.4325
70.5579
69.7011
68.862
68.0404
67.2362
66.4495
65.6801
64.9282
64.1935
63.4763
62.7768
62.0955
61.4323
60.7873
60.1601
59.5501
58.9558
58.3744
57.8005
57.2244
56.6223
56.004
55.379
54.7566
54.1483
53.5681
53.0358
52.547
52.0951
51.6719
51.2788
50.9217
50.6169
141.467
161.109
173.108
184.102
179.299
176.348
173.011
169.959
167.118
163.087
158.517
153.865
149.312
144.954
140.819
136.905
133.197
129.681
126.368
123.268
120.379
117.688
115.183
112.848
110.664
108.614
106.664
104.799
103.017
101.311
99.6742
98.0971
96.573
95.096
93.6609
92.2643
90.9034
89.5759
88.28
87.0144
85.778
84.5701
83.3899
82.2369
81.1105
80.0098
78.9344
77.8835
76.8565
75.8529
74.8723
73.9142
72.9785
72.0646
71.1717
70.2994
69.447
68.6137
67.7988
67.0012
66.2199
65.4536
64.7007
63.9589
63.2267
62.5024
61.7848
61.0726
60.3649
59.6615
58.9628
58.2697
57.5835
56.906
56.2389
55.5747
321.708
329.587
331.8
326.92
317.924
305.988
292.368
277.812
263.345
249.545
236.753
225.086
214.534
205.018
196.387
188.537
181.37
174.816
168.831
163.348
158.299
153.625
149.278
145.215
141.4
137.804
134.404
131.181
128.12
125.207
122.431
119.78
117.246
114.822
112.501
110.273
108.129
106.069
104.09
102.187
100.358
98.5993
96.9071
95.2783
93.7098
92.1988
90.7426
89.3393
87.9866
86.6822
85.4239
84.2094
83.0365
81.9034
80.8077
79.7477
78.7213
77.7266
76.7617
75.8247
74.9137
74.0268
73.1622
72.3181
71.4927
70.6841
69.8904
69.1091
68.3397
67.5811
66.8322
66.0918
65.3595
64.6348
63.9178
63.2049
149.482
159.066
167.537
175.161
182.03
188.03
193.014
196.877
199.577
201.119
201.57
201.05
199.706
197.612
194.923
191.805
188.404
184.845
181.164
177.41
173.629
169.858
166.128
162.461
158.874
155.379
151.921
148.461
145.03
141.649
138.335
135.102
131.961
128.919
125.985
123.16
120.446
117.841
115.345
112.955
110.666
108.476
106.381
104.377
102.459
100.624
98.8692
97.1898
95.582
94.0382
92.5553
91.1305
89.7614
88.4452
87.1794
85.9612
84.7882
83.6576
82.5671
81.5141
80.4963
79.5116
78.5582
77.6344
76.7381
75.8673
75.0203
74.1954
73.391
72.6052
71.8368
71.0843
70.3467
69.6232
68.9129
68.2155
62.8453
65.9711
68.7703
71.3811
73.9337
76.501
79.11
81.7666
84.4459
87.0845
89.6032
91.9676
94.1398
96.0839
97.7716
99.1844
100.316
101.172
101.769
102.122
102.257
102.201
101.985
101.635
101.177
100.632
100.063
99.5225
99.0047
98.5055
98.0217
97.5506
97.0891
96.6221
96.1036
95.5393
94.9348
94.295
93.6246
92.927
92.2057
91.4639
90.7047
89.9307
89.144
88.3469
87.5413
86.7298
85.9144
85.0972
84.2799
83.4642
82.6516
81.8436
81.0414
80.2461
79.4585
78.6796
77.9099
77.1501
76.4005
75.6616
74.9338
74.2151
73.5059
72.8069
72.1187
71.4417
70.7764
70.1231
69.4825
68.855
68.2411
67.6423
67.0603
66.4951
34.8675
35.709
36.476
37.2188
37.9653
38.7352
39.5378
40.3796
41.2636
42.1869
43.1392
44.1068
45.0758
46.0321
46.9613
47.8502
48.6874
49.4631
50.1699
50.8028
51.3591
51.8383
52.2417
52.573
52.8383
53.0458
53.2046
53.3225
53.4068
53.4645
53.5017
53.5239
53.5463
53.6114
53.7157
53.8555
54.0272
54.2272
54.4519
54.6864
54.924
55.1623
55.3992
55.6323
55.859
56.0771
56.2839
56.4773
56.6551
56.8162
56.9591
57.0824
57.1852
57.2668
57.3268
57.365
57.3816
57.3767
57.351
57.3052
57.2402
57.1569
57.0566
56.9404
56.8095
56.6654
56.5094
56.343
56.1679
55.986
55.7992
55.6095
55.4191
55.2299
55.0382
24.704
24.9717
25.2197
25.4566
25.69
25.9261
26.1693
26.4229
26.6893
26.9694
27.2624
27.5677
27.8835
28.2076
28.537
28.8684
29.1985
29.5242
29.8422
30.1498
30.4445
30.7241
30.9872
31.2328
31.46
31.6689
31.8597
32.033
32.1898
32.3314
32.4613
32.5814
32.6938
32.801
32.9054
33.0087
33.1124
33.2176
33.3252
33.4468
33.5856
33.7403
33.9093
34.0911
34.2842
34.4826
34.6851
34.8906
35.0978
35.3047
35.5106
35.7144
35.9153
36.1124
36.3049
36.4923
36.674
36.8494
37.0183
37.1803
37.3352
37.483
37.6238
37.7576
37.8848
38.0058
38.1209
38.2309
38.3364
38.4384
38.5377
38.6353
38.7322
38.829
38.9245
21.1006
21.1846
21.2604
21.3305
21.3974
21.4631
21.5292
21.597
21.6675
21.7414
21.819
21.9003
21.9853
22.0736
22.1648
22.2583
22.3533
22.4493
22.5454
22.6408
22.7349
22.827
22.9168
23.0039
23.0879
23.1688
23.2464
23.3208
23.3921
23.4606
23.5267
23.5904
23.6521
23.7122
23.7711
23.8292
23.8872
23.9461
24.0061
24.0674
24.1304
24.1953
24.262
24.3305
24.4006
24.4765
24.5578
24.6438
24.734
24.8272
24.9217
25.0171
25.1131
25.2093
25.3056
25.4017
25.4975
25.5929
25.6878
25.7822
25.8762
25.9698
26.0632
26.1567
26.2505
26.3449
26.4404
26.5374
26.6364
26.7378
26.8423
26.9504
27.0625
27.1783
27.2965
19.7959
19.8159
19.8305
19.8408
19.8479
19.8528
19.8562
19.8589
19.8612
19.8635
19.8661
19.8692
19.8727
19.8767
19.881
19.8856
19.8903
19.895
19.8995
19.9035
19.9071
19.9101
19.9125
19.9142
19.9154
19.916
19.9161
19.9158
19.9153
19.9146
19.9139
19.9134
19.9132
19.9135
19.9144
19.9161
19.919
19.9227
19.9275
19.9333
19.9403
19.9484
19.9577
19.9688
19.9818
19.9964
20.0127
20.0305
20.0498
20.0704
20.0936
20.1189
20.1463
20.1752
20.2048
20.2351
20.2658
20.2969
20.3284
20.3603
20.3927
20.4256
20.4591
20.4934
20.5288
20.5654
20.6036
20.6437
20.6862
20.7314
20.7797
20.8315
20.8871
20.9463
21.0083
19.4492
19.446
19.4381
19.426
19.4106
19.3924
19.372
19.3498
19.3262
19.3014
19.2757
19.2491
19.2217
19.1935
19.1646
19.1348
19.1043
19.0729
19.0406
19.0074
18.9733
18.9382
18.9021
18.8652
18.8275
18.7892
18.7505
18.7114
18.6721
18.6329
18.5938
18.555
18.5167
18.4791
18.4422
18.4062
18.3711
18.3371
18.3042
18.2724
18.2418
18.2124
18.1844
18.1575
18.1317
18.1069
18.0831
18.0602
18.0381
18.0172
17.9973
17.9784
17.9604
17.9434
17.9275
17.9127
17.8988
17.8856
17.8733
17.8618
17.851
17.8411
17.832
17.8239
17.8169
17.811
17.8065
17.8036
17.8025
17.8033
17.8064
17.8119
17.8199
17.8305
17.8432
19.5217
19.5114
19.4964
19.4771
19.454
19.4277
19.3986
19.3673
19.3338
19.2986
19.2618
19.2235
19.1838
19.1428
19.1004
19.0568
19.0118
18.9654
18.9178
18.8689
18.8187
18.7672
18.7146
18.6608
18.6059
18.55
18.4933
18.4359
18.3781
18.3199
18.2616
18.2033
18.1452
18.0875
18.0301
17.9732
17.9169
17.8613
17.8065
17.7526
17.6998
17.6479
17.5971
17.5473
17.4986
17.4508
17.404
17.3582
17.3133
17.2692
17.2258
17.183
17.1409
17.0995
17.0587
17.0186
16.9791
16.9401
16.9016
16.8635
16.8258
16.7885
16.7516
16.7153
16.6796
16.6445
16.6101
16.5767
16.5442
16.513
16.4829
16.4543
16.4272
16.4016
16.3777
19.7081
19.6955
19.6778
19.6556
19.6293
19.5995
19.5665
19.5309
19.4929
19.4528
19.4107
19.3669
19.3214
19.2742
19.2255
19.1752
19.1233
19.07
19.0151
18.9588
18.9011
18.842
18.7815
18.7198
18.6569
18.5929
18.5279
18.4622
18.3958
18.3289
18.2618
18.1946
18.1275
18.0605
17.9939
17.9277
17.8621
17.797
17.7324
17.6686
17.6055
17.5433
17.4819
17.4215
17.3619
17.3033
17.2455
17.1885
17.1323
17.0768
17.0219
16.9676
16.9139
16.8606
16.8076
16.7552
16.7031
16.6515
16.6001
16.549
16.4983
16.4479
16.3978
16.348
16.2987
16.2498
16.2014
16.1536
16.1065
16.0603
16.0149
15.9704
15.927
15.8848
15.8436
19.6771
19.6627
19.6432
19.6191
19.5909
19.5591
19.5242
19.4865
19.4464
19.4041
19.3598
19.3137
19.2659
19.2165
19.1656
19.1131
19.0592
19.0038
18.9471
18.8889
18.8295
18.7689
18.7071
18.6442
18.5803
18.5154
18.4498
18.3836
18.317
18.2501
18.1833
18.1165
18.0499
17.9838
17.9181
17.853
17.7886
17.7249
17.6618
17.5995
17.5381
17.4776
17.418
17.3594
17.3017
17.2449
17.189
17.1338
17.0795
17.0258
16.9726
16.9199
16.8676
16.8158
16.7644
16.7134
16.6627
16.6123
16.5622
16.5124
16.4629
16.4139
16.3652
16.3169
16.2692
16.222
16.1754
16.1297
16.0847
16.0408
15.998
15.9564
15.916
15.8771
15.8396
19.418
19.4037
19.3847
19.3616
19.3348
19.3047
19.2719
19.2366
19.1992
19.1599
19.1188
19.0763
19.0322
18.9869
18.9402
18.8923
18.8432
18.793
18.7417
18.6893
18.636
18.5817
18.5265
18.4706
18.4139
18.3568
18.2993
18.2416
18.184
18.1265
18.0693
18.0125
17.9564
17.9009
17.8461
17.7921
17.7389
17.6867
17.6355
17.5855
17.5365
17.4886
17.4419
17.3964
17.3517
17.308
17.265
17.2228
17.1814
17.1406
17.1006
17.0614
17.0227
16.9847
16.9471
16.9099
16.8732
16.8372
16.8018
16.7672
16.7332
16.6998
16.6672
16.6353
16.6043
16.5741
16.545
16.5172
16.4909
16.4663
16.4435
16.4228
16.4042
16.3877
16.3736
19.2732
19.2628
19.2484
19.2303
19.2092
19.1855
19.1597
19.132
19.1029
19.0725
19.041
19.0085
18.9752
18.9411
18.9062
18.8707
18.8345
18.7977
18.7602
18.7221
18.6834
18.6441
18.6045
18.5647
18.5247
18.4848
18.4451
18.4056
18.3667
18.3284
18.2908
18.2541
18.2184
18.1838
18.1504
18.1181
18.0874
18.0579
18.0298
18.0028
17.9771
17.9527
17.9295
17.9075
17.8872
17.8684
17.8509
17.8345
17.8191
17.8045
17.7906
17.7772
17.7642
17.7518
17.7404
17.7299
17.7203
17.7113
17.7029
17.6952
17.6883
17.6822
17.6771
17.6732
17.6707
17.6697
17.6705
17.6734
17.6786
17.6863
17.6967
17.7101
17.7268
17.7468
17.7697
19.5177
19.5245
19.5273
19.5268
19.5237
19.5186
19.5121
19.5046
19.4964
19.4878
19.4788
19.4698
19.4606
19.4513
19.442
19.4326
19.423
19.4131
19.403
19.3927
19.3824
19.372
19.3617
19.3515
19.3416
19.3321
19.3232
19.315
19.3077
19.3016
19.2968
19.2933
19.2912
19.2906
19.2916
19.2941
19.2983
19.305
19.3143
19.3262
19.3405
19.357
19.3756
19.3959
19.4178
19.4411
19.4652
19.4893
19.5137
19.5389
19.5647
19.591
19.6177
19.6443
19.6704
19.696
19.721
19.7457
19.7702
19.7945
19.819
19.8439
19.8694
19.8959
19.9237
19.9533
19.9849
20.0191
20.0564
20.0971
20.1419
20.1911
20.245
20.3037
20.3665
20.5841
20.6336
20.6774
20.7171
20.7541
20.7894
20.824
20.8583
20.893
20.9282
20.964
21.0006
21.0378
21.0754
21.1135
21.1516
21.1896
21.2275
21.2652
21.3025
21.3395
21.3763
21.4131
21.45
21.4869
21.524
21.5614
21.5993
21.6379
21.6775
21.7191
21.7641
21.8126
21.8646
21.9201
21.9786
22.0396
22.1029
22.1687
22.2366
22.3064
22.3778
22.4523
22.5301
22.6109
22.6942
22.7796
22.8666
22.9541
23.0412
23.1272
23.212
23.2951
23.3765
23.4559
23.5331
23.608
23.6806
23.7511
23.8195
23.8863
23.9517
24.0162
24.0802
24.1443
24.2091
24.2753
24.3434
24.4141
24.4884
24.5667
24.6499
24.7386
24.833
24.9324
23.3807
23.5258
23.6587
23.7834
23.9032
24.0208
24.1379
24.2557
24.3747
24.495
24.6166
24.7388
24.8613
24.9832
25.104
25.2229
25.3394
25.4532
25.5638
25.6709
25.7745
25.8745
25.9715
26.0672
26.1631
26.2593
26.3561
26.4532
26.5515
26.6519
26.7553
26.8624
26.9737
27.0897
27.2107
27.3395
27.4807
27.6335
27.7966
27.969
28.15
28.3384
28.5315
28.7274
28.9252
29.1242
29.323
29.5203
29.7148
29.9053
30.0909
30.2704
30.4433
30.6087
30.7663
30.9148
31.0542
31.1847
31.3067
31.4204
31.5265
31.6255
31.7182
31.8053
31.8877
31.9665
32.0424
32.1166
32.1901
32.2642
32.3399
32.4184
32.5009
32.5881
32.6802
30.3508
30.7461
31.1006
31.4279
31.7392
32.0421
32.3402
32.6362
32.9311
33.224
33.5132
33.7963
34.0713
34.3353
34.5858
34.8211
35.0427
35.2498
35.4418
35.6186
35.782
35.9343
36.0777
36.2145
36.3465
36.4759
36.6046
36.7341
36.8765
37.0467
37.2438
37.4667
37.7147
37.987
38.2828
38.5983
38.9277
39.2699
39.6204
39.9769
40.3368
40.6975
41.0564
41.4108
41.758
42.0955
42.4208
42.7317
43.0262
43.3024
43.5588
43.7941
44.0076
44.1985
44.3665
44.5122
44.6359
44.738
44.8191
44.8802
44.9224
44.947
44.9551
44.9484
44.9282
44.8963
44.8544
44.8042
44.7477
44.6867
44.6231
44.5577
44.4927
44.4306
44.3734
49.8931
51.0656
52.0728
52.9733
53.8121
54.611
55.3789
56.1201
56.8301
57.5004
58.1221
58.6892
59.1867
59.6128
59.9678
60.2532
60.4721
60.6295
60.7307
60.7804
60.8273
60.9179
61.0503
61.222
61.4308
61.674
61.9502
62.2574
62.5818
62.9061
63.2293
63.5501
63.8667
64.1771
64.4784
64.7674
65.041
65.2958
65.5301
65.7404
65.9241
66.0784
66.2013
66.2911
66.3466
66.367
66.3521
66.3021
66.2177
66.0999
65.9498
65.769
65.5592
65.322
65.059
64.7723
64.4639
64.1361
63.7912
63.4314
63.059
62.6759
62.2822
61.8799
61.4717
61.0601
60.6474
60.2356
59.8266
59.4222
59.0238
58.6329
58.2519
57.8823
57.5267
112.946
117.034
120.585
123.765
126.672
129.336
131.686
133.594
135.059
136.109
136.729
136.95
136.928
136.679
136.218
135.573
134.769
133.83
132.778
131.638
130.379
128.975
127.45
125.831
124.14
122.398
120.621
118.823
117.018
115.216
113.427
111.657
109.913
108.2
106.523
104.883
103.282
101.723
100.205
98.7289
97.2935
95.8986
94.543
93.2259
91.9461
90.7024
89.4936
88.3185
87.1759
86.0647
84.9811
83.9226
82.8894
81.8814
80.8985
79.9405
79.0072
78.0982
77.213
76.351
75.5119
74.695
73.9
73.1266
72.3737
71.6404
70.9257
70.2288
69.5492
68.8863
68.24