/*--------------------------------*- C++ -*----------------------------------*\
  =========                 |
  \\      /  F ield         | OpenFOAM: The Open Source CFD Toolbox
   \\    /   O peration     | Website:  https://openfoam.org
    \\  /    A nd           | Version:  13
     \\/     M anipulation  |
\*---------------------------------------------------------------------------*/
FoamFile
{
    format      ascii;
    class       volScalarField;
    location    "600";
    object      p;
}
// * * * * * * * * * * * * * * * * * * * * * * * * * * * * * * * * * * * * * //

dimensions      [0 2 -2 0 0 0 0];

internalField   nonuniform List<scalar> 
173327
(
-11.6307
-11.6847
-11.7047
-11.692
-11.6483
-11.5757
-11.4764
-11.3528
-11.207
-11.041
-10.8567
-10.6561
-10.4412
-10.214
-9.97656
-9.73029
-9.47668
-9.21701
-8.95267
-8.68503
-8.41526
-8.14444
-7.87338
-7.6029
-7.33376
-7.06647
-6.80156
-6.53942
-6.28064
-6.02582
-5.77548
-5.53001
-5.28968
-5.05473
-4.82547
-4.60193
-4.38422
-4.17229
-3.96629
-3.76649
-3.57308
-3.38611
-3.2054
-3.03082
-2.86225
-2.69969
-2.54325
-2.39297
-2.2489
-2.11083
-1.97865
-1.85203
-1.73086
-1.61489
-1.50409
-1.39825
-1.29725
-1.20087
-1.10897
-1.0215
-0.938434
-0.859735
-0.785183
-0.714525
-0.647377
-0.583455
-0.522461
-0.464238
-0.408615
-0.355507
-0.30475
-0.256203
-0.209596
-0.16466
-0.121058
-0.0785644
-0.038995
-11.6727
-11.7254
-11.7436
-11.7289
-11.683
-11.608
-11.5062
-11.38
-11.2315
-11.063
-10.8763
-10.6734
-10.4563
-10.227
-9.98747
-9.73927
-9.48384
-9.22254
-8.95671
-8.68767
-8.41662
-8.14457
-7.8724
-7.60092
-7.33084
-7.06276
-6.79713
-6.53442
-6.27513
-6.01984
-5.76906
-5.52316
-5.28243
-5.04716
-4.81757
-4.59381
-4.37591
-4.1639
-3.9579
-3.75809
-3.56467
-3.37766
-3.19698
-3.02247
-2.85405
-2.69168
-2.53542
-2.38531
-2.24135
-2.10343
-1.97137
-1.84496
-1.72399
-1.6083
-1.49774
-1.39219
-1.29148
-1.19543
-1.10388
-1.01676
-0.934008
-0.855553
-0.781225
-0.710757
-0.643841
-0.580165
-0.519467
-0.461538
-0.406224
-0.353395
-0.302913
-0.254602
-0.208242
-0.163547
-0.120254
-0.078261
-0.0384129
-11.7577
-11.8075
-11.8224
-11.8037
-11.7535
-11.6738
-11.567
-11.4358
-11.2823
-11.1088
-10.9173
-10.7098
-10.4884
-10.2549
-10.0113
-9.75935
-9.50039
-9.23585
-8.96706
-8.69529
-8.4217
-8.14729
-7.87294
-7.59946
-7.32755
-7.0578
-6.79071
-6.52673
-6.26635
-6.01009
-5.7584
-5.51165
-5.27015
-5.03417
-4.80395
-4.57966
-4.36135
-4.14907
-3.9429
-3.743
-3.5495
-3.36242
-3.18172
-3.00727
-2.839
-2.67687
-2.52087
-2.37102
-2.2273
-2.08961
-1.95781
-1.83171
-1.71111
-1.59583
-1.48572
-1.38065
-1.28045
-1.18495
-1.094
-1.00749
-0.925321
-0.847393
-0.773532
-0.703501
-0.637015
-0.573793
-0.513582
-0.456174
-0.401402
-0.349122
-0.299179
-0.251396
-0.205545
-0.161374
-0.118603
-0.0770784
-0.0375685
-11.8865
-11.9321
-11.9417
-11.9169
-11.8599
-11.773
-11.6588
-11.5199
-11.3588
-11.1778
-10.9791
-10.7646
-10.5365
-10.2967
-10.0471
-9.78945
-9.5252
-9.25578
-8.98251
-8.70661
-8.42921
-8.15128
-7.87368
-7.59722
-7.32257
-7.05035
-6.78106
-6.51514
-6.25307
-5.99529
-5.74223
-5.49423
-5.2516
-5.0146
-4.78347
-4.55839
-4.33946
-4.12672
-3.92025
-3.72015
-3.5265
-3.33933
-3.1586
-2.98423
-2.81615
-2.65429
-2.49864
-2.34916
-2.20582
-2.06853
-1.93715
-1.81153
-1.69146
-1.57678
-1.46733
-1.36295
-1.2635
-1.16879
-1.07869
-0.993029
-0.911699
-0.834559
-0.761429
-0.692083
-0.62627
-0.563737
-0.504251
-0.44761
-0.39364
-0.342181
-0.293068
-0.246109
-0.201084
-0.157745
-0.115845
-0.0751745
-0.0366574
-12.0605
-12.1003
-12.1026
-12.0694
-12.0031
-11.9064
-11.782
-11.6328
-11.4614
-11.2702
-11.0616
-10.8378
-10.6007
-10.3525
-10.0948
-9.82959
-9.5583
-9.28238
-9.00313
-8.72174
-8.43927
-8.15669
-7.87482
-7.59444
-7.31622
-7.04075
-6.76853
-6.50003
-6.23566
-5.97585
-5.72095
-5.4713
-5.22719
-4.98887
-4.75659
-4.53051
-4.31075
-4.09738
-3.89046
-3.69004
-3.49618
-3.30888
-3.12812
-2.95383
-2.78596
-2.62444
-2.4692
-2.3202
-2.17738
-2.04064
-1.90987
-1.7849
-1.66556
-1.55168
-1.44308
-1.33961
-1.24112
-1.14742
-1.05836
-0.973767
-0.893494
-0.817374
-0.745218
-0.676813
-0.611932
-0.550347
-0.491842
-0.436223
-0.383313
-0.332943
-0.284937
-0.239097
-0.195204
-0.153025
-0.112315
-0.0728697
-0.0356633
-12.2819
-12.3139
-12.3066
-12.2625
-12.1842
-12.0747
-11.9372
-11.7746
-11.59
-11.3859
-11.1649
-10.929
-10.6806
-10.4216
-10.1538
-9.87913
-9.59905
-9.315
-9.02826
-8.73999
-8.45122
-8.16285
-7.87569
-7.59047
-7.30784
-7.02836
-6.75253
-6.48079
-6.21354
-5.95115
-5.69396
-5.44227
-5.19634
-4.95643
-4.72275
-4.49548
-4.27472
-4.06056
-3.85303
-3.65219
-3.45805
-3.2706
-3.08982
-2.91566
-2.74804
-2.58691
-2.43217
-2.28377
-2.14161
-2.0056
-1.87562
-1.75152
-1.63311
-1.52023
-1.41271
-1.31036
-1.21304
-1.12057
-1.03276
-0.949448
-0.870452
-0.795588
-0.724664
-0.657474
-0.593806
-0.53345
-0.476202
-0.421876
-0.370294
-0.321282
-0.274661
-0.230232
-0.18778
-0.147077
-0.107882
-0.0700016
-0.0344287
-12.5532
-12.5752
-12.5558
-12.4977
-12.4042
-12.2788
-12.1248
-11.9458
-11.7449
-11.5249
-11.2884
-11.038
-10.7757
-10.5036
-10.2236
-9.93754
-9.64689
-9.35309
-9.05739
-8.7609
-8.4646
-8.16935
-7.87591
-7.58496
-7.29711
-7.0129
-6.73279
-6.4572
-6.18651
-5.92104
-5.66112
-5.40701
-5.15895
-4.91718
-4.68188
-4.45321
-4.2313
-4.0162
-3.80796
-3.6066
-3.41213
-3.22452
-3.04374
-2.86973
-2.70243
-2.54175
-2.38762
-2.23993
-2.09859
-1.96348
-1.83449
-1.71145
-1.59419
-1.48252
-1.37628
-1.27529
-1.17936
-1.08833
-1.00199
-0.920173
-0.842676
-0.769308
-0.699873
-0.63417
-0.571994
-0.513146
-0.457431
-0.404666
-0.354677
-0.307288
-0.262323
-0.219588
-0.178875
-0.139956
-0.102595
-0.0666104
-0.0330008
-12.8777
-12.8872
-12.8526
-12.7772
-12.6649
-12.5198
-12.3459
-12.1468
-11.9261
-11.687
-11.4322
-11.1642
-10.8854
-10.5979
-10.3036
-10.0041
-9.70112
-9.39595
-9.08982
-8.78378
-8.47875
-8.17554
-7.87485
-7.5773
-7.28346
-6.9938
-6.70878
-6.42876
-6.15409
-5.88509
-5.62202
-5.36513
-5.11463
-4.87073
-4.63359
-4.40336
-4.18013
-3.96398
-3.75493
-3.55299
-3.35815
-3.17038
-2.98962
-2.81583
-2.64891
-2.48878
-2.33535
-2.1885
-2.04813
-1.91411
-1.7863
-1.66453
-1.54862
-1.4384
-1.33368
-1.23426
-1.13996
-1.05059
-0.965958
-0.885862
-0.810102
-0.73848
-0.670797
-0.606853
-0.546446
-0.489382
-0.435473
-0.38454
-0.336409
-0.290912
-0.247875
-0.207115
-0.168432
-0.131602
-0.0963943
-0.0626371
-0.0313343
-13.2597
-13.2535
-13.2
-13.1033
-12.9682
-12.7993
-12.6011
-12.378
-12.1339
-11.8721
-11.5956
-11.3072
-11.0092
-10.7038
-10.3928
-10.078
-9.76089
-9.44275
-9.12474
-8.80786
-8.49295
-8.18074
-7.87187
-7.56689
-7.2663
-6.97054
-6.67999
-6.395
-6.11588
-5.84289
-5.57629
-5.31628
-5.06306
-4.81678
-4.5776
-4.34564
-4.12097
-3.90367
-3.69373
-3.49117
-3.29595
-3.10803
-2.92734
-2.75381
-2.58736
-2.42789
-2.27528
-2.12943
-1.99019
-1.85743
-1.73099
-1.61071
-1.49638
-1.38783
-1.28485
-1.18724
-1.09481
-1.00735
-0.924661
-0.846531
-0.77276
-0.703143
-0.637477
-0.57556
-0.517193
-0.462185
-0.410351
-0.361515
-0.315509
-0.272168
-0.231329
-0.192822
-0.156457
-0.122017
-0.089278
-0.0580806
-0.0294258
-13.7041
-13.6785
-13.6017
-13.4791
-13.3162
-13.1187
-12.8917
-12.6402
-12.3683
-12.08
-11.7784
-11.4664
-11.1463
-10.8204
-10.4905
-10.1583
-9.82527
-9.49256
-9.16126
-8.83228
-8.50637
-8.18418
-7.86624
-7.55305
-7.24501
-6.94251
-6.64587
-6.35541
-6.07137
-5.794
-5.52351
-5.26007
-5.00384
-4.75497
-4.51356
-4.27972
-4.05351
-3.83496
-3.62409
-3.42088
-3.22528
-3.03723
-2.85667
-2.6835
-2.51762
-2.35892
-2.20727
-2.06256
-1.92462
-1.79332
-1.66846
-1.54988
-1.43736
-1.33071
-1.22972
-1.13417
-1.04386
-0.958557
-0.87806
-0.802156
-0.730635
-0.663286
-0.599901
-0.540278
-0.484218
-0.431531
-0.382037
-0.335563
-0.291945
-0.251028
-0.21266
-0.176682
-0.14292
-0.111169
-0.0812154
-0.0529136
-0.0272557
-14.2174
-14.1676
-14.0623
-13.908
-13.7117
-13.4799
-13.2187
-12.9337
-12.6296
-12.3105
-11.98
-11.6409
-11.2958
-10.9467
-10.5956
-10.244
-9.89315
-9.5443
-9.19835
-8.85607
-8.5181
-8.18498
-7.85716
-7.53501
-7.21887
-6.90905
-6.60581
-6.3094
-6.02004
-5.73793
-5.46322
-5.19607
-4.93661
-4.68493
-4.44113
-4.20528
-3.97743
-3.75758
-3.54574
-3.34187
-3.14592
-2.9578
-2.77743
-2.60471
-2.43951
-2.28172
-2.13119
-1.98778
-1.85134
-1.72168
-1.59862
-1.48196
-1.37149
-1.26699
-1.16823
-1.075
-0.987058
-0.904183
-0.82615
-0.752739
-0.683733
-0.618918
-0.558081
-0.501017
-0.447528
-0.397426
-0.350533
-0.30668
-0.265713
-0.227484
-0.191854
-0.15868
-0.127805
-0.0990411
-0.0721915
-0.0471249
-0.0248189
-14.8073
-14.7274
-14.587
-14.3943
-14.1577
-13.8851
-13.5836
-13.2593
-12.9178
-12.5633
-12.1997
-11.8299
-11.4565
-11.0816
-10.7068
-10.3337
-9.96339
-9.59688
-9.23495
-8.87823
-8.52721
-8.1823
-7.84381
-7.51203
-7.1872
-6.86953
-6.55921
-6.25645
-5.96139
-5.6742
-5.39499
-5.12388
-4.86096
-4.6063
-4.35997
-4.122
-3.89243
-3.67124
-3.45841
-3.2539
-3.05763
-2.86951
-2.68942
-2.51725
-2.35287
-2.19614
-2.04689
-1.90498
-1.77022
-1.64242
-1.52139
-1.40689
-1.29871
-1.19661
-1.10034
-1.00968
-0.924383
-0.844205
-0.768909
-0.698265
-0.632048
-0.570037
-0.512017
-0.45778
-0.407126
-0.359871
-0.315837
-0.274864
-0.236803
-0.20152
-0.168891
-0.138793
-0.111085
-0.0856045
-0.0621752
-0.04069
-0.0221028
-15.4831
-15.3659
-15.1822
-14.9428
-14.6578
-14.3367
-13.9876
-13.6177
-13.2328
-12.8379
-12.4367
-12.0323
-11.6273
-11.2236
-10.8228
-10.4261
-10.0346
-9.64894
-9.26979
-8.89757
-8.53259
-8.1751
-7.82528
-7.48327
-7.14921
-6.82322
-6.50542
-6.19593
-5.89486
-5.6023
-5.31835
-5.04306
-4.77651
-4.51872
-4.26974
-4.02957
-3.79823
-3.57567
-3.36187
-3.15675
-2.96022
-2.77217
-2.59247
-2.42099
-2.25757
-2.10205
-1.95427
-1.81405
-1.68118
-1.55547
-1.43669
-1.3246
-1.21897
-1.11952
-1.02602
-0.938199
-0.85581
-0.778604
-0.706324
-0.638727
-0.575579
-0.516651
-0.461723
-0.410583
-0.363032
-0.318883
-0.277966
-0.240124
-0.205221
-0.173137
-0.143766
-0.117006
-0.092741
-0.0708337
-0.0511414
-0.0335895
-0.0190955
-16.2568
-16.0929
-15.8561
-15.5598
-15.2166
-14.8379
-14.4329
-14.0098
-13.5751
-13.1339
-12.6902
-12.2471
-11.807
-11.3715
-10.9422
-10.5199
-10.1055
-9.69933
-9.3018
-8.9131
-8.53334
-8.16257
-7.8008
-7.44803
-7.10428
-6.76956
-6.44391
-6.12737
-5.81999
-5.52181
-5.23289
-4.95324
-4.68289
-4.42186
-4.17013
-3.92771
-3.69456
-3.47064
-3.25588
-3.0502
-2.85349
-2.66561
-2.48642
-2.31576
-2.15347
-1.99936
-1.85324
-1.71491
-1.58417
-1.46078
-1.3445
-1.23508
-1.13225
-1.03574
-0.945271
-0.860572
-0.781371
-0.707407
-0.638422
-0.574155
-0.514358
-0.458794
-0.407236
-0.359466
-0.315283
-0.274501
-0.236953
-0.202491
-0.170991
-0.14235
-0.116483
-0.0933135
-0.0727566
-0.0547099
-0.0390708
-0.0258036
-0.0157807
-17.1419
-16.9196
-16.6169
-16.2514
-15.8384
-15.3913
-14.921
-14.4363
-13.9443
-13.4505
-12.9589
-12.4726
-11.9935
-11.5233
-11.063
-10.6132
-10.1742
-9.74624
-9.3293
-8.9233
-8.52809
-8.14347
-7.76928
-7.40534
-7.05154
-6.70779
-6.37401
-6.05017
-5.73627
-5.43229
-5.13823
-4.85408
-4.57983
-4.31545
-4.06093
-3.81621
-3.58125
-3.35599
-3.14033
-2.93416
-2.73735
-2.54976
-2.37122
-2.20154
-2.04054
-1.88802
-1.74377
-1.60757
-1.47918
-1.35836
-1.24484
-1.13835
-1.0386
-0.945304
-0.858156
-0.776867
-0.701147
-0.630716
-0.565303
-0.504641
-0.448474
-0.396552
-0.348636
-0.304503
-0.263949
-0.226791
-0.192862
-0.162022
-0.134161
-0.109195
-0.0870645
-0.0677244
-0.0511281
-0.0372195
-0.0259416
-0.0173047
-0.0121248
-18.1575
-17.8614
-17.4773
-17.0273
-16.5304
-16.0021
-15.455
-14.8988
-14.3411
-13.7875
-13.2422
-12.7078
-12.1862
-11.6782
-11.1844
-10.7051
-10.24
-9.78906
-9.35175
-8.92766
-8.51635
-8.11736
-7.73029
-7.35479
-6.99058
-6.63746
-6.29526
-5.96388
-5.64324
-5.33326
-5.0339
-4.74512
-4.46686
-4.19908
-3.94171
-3.69469
-3.45794
-3.23137
-3.01487
-2.80832
-2.61155
-2.4244
-2.24667
-2.07816
-1.91867
-1.76796
-1.62581
-1.49198
-1.3662
-1.24822
-1.13773
-1.03446
-0.938076
-0.848279
-0.764747
-0.687167
-0.615232
-0.548641
-0.487103
-0.430339
-0.37808
-0.330068
-0.286059
-0.245823
-0.209151
-0.175855
-0.145775
-0.118782
-0.094779
-0.0737027
-0.0555212
-0.0402258
-0.0278208
-0.018308
-0.0116857
-0.00803254
-0.00809043
-19.3247
-18.9352
-18.4497
-17.8966
-17.2985
-16.6736
-16.036
-15.3966
-14.7635
-14.1422
-13.5365
-12.949
-12.3807
-11.8319
-11.3025
-10.7919
-10.2996
-9.82481
-9.36653
-8.92395
-8.49625
-8.08269
-7.68262
-7.29549
-6.92084
-6.55829
-6.20759
-5.86854
-5.54102
-5.22493
-4.92017
-4.62666
-4.34432
-4.07307
-3.81283
-3.56349
-3.32497
-3.09713
-2.87984
-2.67296
-2.47631
-2.2897
-2.11292
-1.94575
-1.78794
-1.63926
-1.49944
-1.36821
-1.2453
-1.13042
-1.02324
-0.923458
-0.830734
-0.744732
-0.665113
-0.591544
-0.523697
-0.461252
-0.403902
-0.351348
-0.303306
-0.259503
-0.219684
-0.183612
-0.151074
-0.121883
-0.0958809
-0.0729478
-0.0530015
-0.0360011
-0.0219474
-0.0108794
-0.00286029
0.00204411
0.00376296
0.00214301
-0.00355264
-20.6789
-20.1706
-19.5587
-18.879
-18.1586
-17.4182
-16.674
-15.9378
-15.2179
-14.5196
-13.8462
-13.1994
-12.5795
-11.9861
-11.4182
-10.8744
-10.3534
-9.85353
-9.37344
-8.91173
-8.46714
-8.03859
-7.62519
-7.22617
-6.84087
-6.46872
-6.10934
-5.76249
-5.428
-5.10571
-4.79549
-4.49723
-4.21082
-3.93613
-3.67307
-3.42151
-3.18133
-2.9524
-2.73454
-2.52758
-2.3313
-2.14547
-1.96988
-1.80428
-1.64842
-1.50201
-1.36479
-1.23645
-1.11669
-1.00519
-0.901623
-0.805633
-0.716867
-0.63496
-0.559549
-0.49028
-0.426804
-0.368783
-0.315894
-0.267822
-0.224268
-0.184946
-0.149588
-0.117946
-0.0897984
-0.0649543
-0.0432581
-0.0245954
-0.00889858
0.00384959
0.0136133
0.0203057
0.0238006
0.0239481
0.0205706
0.0134099
0.00169866
-21.5832
-20.8152
-19.9816
-19.1137
-18.2358
-17.3658
-16.5167
-15.6968
-14.911
-14.1619
-13.4501
-12.7749
-12.1345
-11.5268
-10.9492
-10.3992
-9.87454
-9.37292
-8.89237
-8.43116
-7.9878
-7.56104
-7.1499
-6.75357
-6.37145
-6.00309
-5.64815
-5.30641
-4.97767
-4.66176
-4.35855
-4.06789
-3.78965
-3.52368
-3.26984
-3.02797
-2.79794
-2.57957
-2.37263
-2.17685
-1.99197
-1.81774
-1.65391
-1.50019
-1.3563
-1.22192
-1.09673
-0.9804
-0.87258
-0.772911
-0.681019
-0.596525
-0.519052
-0.448215
-0.383627
-0.32491
-0.271695
-0.223621
-0.180355
-0.141584
-0.107016
-0.0763746
-0.0494053
-0.025879
-0.00559886
0.0115922
0.0258043
0.0370942
0.0454594
0.0508339
0.0530833
0.0520108
0.047365
0.0388315
0.0259878
0.00800285
-23.2262
-22.2623
-21.2393
-20.1927
-19.15
-18.1321
-17.1523
-16.2176
-15.332
-14.4969
-13.7115
-12.9739
-12.281
-11.6291
-11.0145
-10.4334
-9.8825
-9.35859
-8.85892
-8.3811
-7.92313
-7.48337
-7.06051
-6.65357
-6.2618
-5.88468
-5.52182
-5.17294
-4.83784
-4.51633
-4.20825
-3.91346
-3.63178
-3.36305
-3.1071
-2.86373
-2.63275
-2.41395
-2.20707
-2.01189
-1.82813
-1.65552
-1.49375
-1.34251
-1.20146
-1.07026
-0.948557
-0.835998
-0.732201
-0.636779
-0.549323
-0.469426
-0.396704
-0.330757
-0.271171
-0.217545
-0.169479
-0.126564
-0.0884405
-0.0547865
-0.0252952
0.000323124
0.0223326
0.0409704
0.0564399
0.068901
0.078463
0.0851762
0.0890197
0.0898942
0.0876235
0.0819481
0.0725155
0.0588579
0.04033
0.0159766
-25.1271
-23.9119
-22.649
-21.3778
-20.1303
-18.9327
-17.7995
-16.7359
-15.7433
-14.8202
-13.9625
-13.1652
-12.4227
-11.7294
-11.0798
-10.4689
-9.89226
-9.3461
-8.82698
-8.33201
-7.85879
-7.40534
-6.97012
-6.55193
-6.14991
-5.76345
-5.39212
-5.03563
-4.69375
-4.36627
-4.05303
-3.75382
-3.46845
-3.19673
-2.93845
-2.69341
-2.46139
-2.24215
-2.03543
-1.84094
-1.65839
-1.48747
-1.32786
-1.17921
-1.04118
-0.913366
-0.795395
-0.686863
-0.587361
-0.496472
-0.413746
-0.33873
-0.270995
-0.210112
-0.155657
-0.107212
-0.0643675
-0.0267277
0.00608556
0.0344274
0.0586335
0.0790196
0.0958743
0.10945
0.119959
0.127565
0.132381
0.134465
0.13379
0.130235
0.123598
0.113578
0.099737
0.0814535
0.057781
0.0274477
-27.3969
-25.879
-24.3231
-22.7764
-21.2851
-19.875
-18.5521
-17.3218
-16.1885
-15.15
-14.2002
-13.3307
-12.5323
-11.7954
-11.1115
-10.4732
-9.87409
-9.30883
-8.77304
-8.26314
-7.77628
-7.3102
-6.86319
-6.43398
-6.02168
-5.62572
-5.24573
-4.88148
-4.5328
-4.19951
-3.88142
-3.57829
-3.28982
-3.01575
-2.75581
-2.50977
-2.27739
-2.05842
-1.85258
-1.65948
-1.47877
-1.31013
-1.15322
-1.0077
-0.873166
-0.749211
-0.635402
-0.531302
-0.436464
-0.350423
-0.272715
-0.202876
-0.140445
-0.0849706
-0.0360093
0.00687954
0.0441249
0.0761374
0.103317
0.126044
0.144677
0.159561
0.17101
0.179289
0.184617
0.18716
0.18704
0.184323
0.179009
0.171024
0.160194
0.146236
0.128705
0.106908
0.0796877
0.0453781
-29.9763
-28.0478
-26.1068
-24.164
-22.3736
-20.7612
-19.2833
-17.925
-16.6825
-15.5486
-14.516
-13.5765
-12.7198
-11.9347
-11.211
-10.5403
-9.91448
-9.32684
-8.77176
-8.24475
-7.74229
-7.26167
-6.80089
-6.35852
-5.93361
-5.52563
-5.13431
-4.7595
-4.40112
-4.05916
-3.73355
-3.42405
-3.13024
-2.85175
-2.5883
-2.33963
-2.10545
-1.88543
-1.67922
-1.48643
-1.30667
-1.1396
-0.984858
-0.842043
-0.710701
-0.59035
-0.480508
-0.380696
-0.29042
-0.20916
-0.136415
-0.0716971
-0.0145277
0.0355596
0.0790304
0.116353
0.14799
0.174386
0.195967
0.21314
0.22629
0.235779
0.241935
0.245038
0.245317
0.242956
0.23809
0.230798
0.221115
0.209034
0.194492
0.177351
0.157371
0.134165
0.107109
0.0758881
-30.5384
-28.303
-25.855
-23.5819
-21.5847
-19.8214
-18.2735
-16.9137
-15.7068
-14.6283
-13.6614
-12.787
-11.9882
-11.2526
-10.5706
-9.93401
-9.33589
-8.77047
-8.23304
-7.71992
-7.22835
-6.75633
-6.30255
-5.86624
-5.44728
-5.04586
-4.66192
-4.29532
-3.94609
-3.61436
-3.29972
-3.00156
-2.71941
-2.45311
-2.20238
-1.96677
-1.74585
-1.5391
-1.34608
-1.1665
-1.00008
-0.846497
-0.705393
-0.576231
-0.458455
-0.351545
-0.255008
-0.168337
-0.0909801
-0.0223704
0.0380281
0.0906866
0.136063
0.174655
0.206984
0.233561
0.254861
0.271333
0.28341
0.291515
0.296035
0.297317
0.295656
0.291289
0.284409
0.275173
0.263706
0.250124
0.23452
0.216997
0.197689
0.176878
0.15521
0.134265
0.121164
-30.4119
-28.3732
-26.5016
-24.5328
-22.5389
-20.6541
-18.9514
-17.4482
-16.1163
-14.9379
-13.9012
-12.9775
-12.1446
-11.3847
-10.6839
-10.0331
-9.42372
-8.84784
-8.30001
-7.7763
-7.2736
-6.78977
-6.32376
-5.87441
-5.44149
-5.02608
-4.62921
-4.25093
-3.89126
-3.55022
-3.22691
-2.92043
-2.63047
-2.35753
-2.10163
-1.86234
-1.63917
-1.43117
-1.23743
-1.05754
-0.891176
-0.738194
-0.598318
-0.470909
-0.355335
-0.251035
-0.15747
-0.0740444
-6.82017e-05
0.0651612
0.122218
0.171471
0.213291
0.248193
0.276761
0.299543
0.317023
0.329633
0.337803
0.341953
0.342498
0.339833
0.334272
0.326048
0.315351
0.302366
0.287276
0.270267
0.251554
0.231428
0.210382
0.1894
0.170609
0.158898
0.172704
-31.5972
-29.0238
-26.9084
-24.8245
-22.7852
-20.8685
-19.1356
-17.5961
-16.2231
-15.0125
-13.9572
-13.0184
-12.1719
-11.3992
-10.6861
-10.0229
-9.40165
-8.81546
-8.25912
-7.72872
-7.22139
-6.73547
-6.27032
-5.82569
-5.4001
-4.992
-4.60074
-4.22599
-3.86742
-3.52498
-3.19933
-2.89068
-2.59888
-2.32283
-2.06215
-1.81714
-1.58802
-1.3756
-1.18003
-1.00028
-0.8353
-0.68352
-0.54357
-0.415043
-0.297782
-0.191665
-0.0964313
-0.0115953
0.0635908
0.130007
0.188044
0.237614
0.278862
0.312404
0.33902
0.3594
0.374093
0.383599
0.388431
0.38909
0.386133
0.380117
0.37134
0.359931
0.346042
0.329883
0.311686
0.291675
0.270119
0.247429
0.224352
0.202405
0.184845
0.178947
0.2117
-32.0825
-29.4454
-27.0304
-24.7867
-22.6922
-20.7724
-19.0547
-17.5293
-16.1848
-15.0065
-13.9691
-13.0424
-12.2025
-11.4328
-10.721
-10.0577
-9.43584
-8.84931
-8.29285
-7.76196
-7.25396
-6.76744
-6.30097
-5.85315
-5.42299
-5.00978
-4.61309
-4.23279
-3.8684
-3.51987
-3.18771
-2.8722
-2.57333
-2.29085
-2.02481
-1.77538
-1.54261
-1.32671
-1.12766
-0.944641
-0.77643
-0.621701
-0.479624
-0.349544
-0.230857
-0.123599
-0.0277125
0.0571181
0.131272
0.195021
0.248879
0.293931
0.331313
0.361815
0.386028
0.404473
0.417657
0.426193
0.430629
0.431346
0.428677
0.42282
0.413871
0.401854
0.386816
0.368998
0.348752
0.326429
0.302354
0.276967
0.250917
0.225648
0.204483
0.195314
0.226022
-31.4924
-28.5481
-25.919
-23.6505
-21.6339
-19.8314
-18.2614
-16.8819
-15.667
-14.5929
-13.6352
-12.7703
-11.9787
-11.2479
-10.5692
-9.93378
-9.33441
-8.76645
-8.22495
-7.70525
-7.20551
-6.72492
-6.26245
-5.81702
-5.38773
-4.97429
-4.57672
-4.19511
-3.82949
-3.48004
-3.14705
-2.83076
-2.53125
-2.24846
-1.98235
-1.7328
-1.49971
-1.28289
-1.082
-0.896484
-0.725456
-0.568112
-0.423824
-0.29193
-0.171659
-0.0630068
0.0339841
0.119745
0.194796
0.259623
0.314744
0.361072
0.399771
0.43159
0.456992
0.47641
0.490338
0.49939
0.504202
0.505209
0.502474
0.495784
0.48508
0.470546
0.452511
0.431243
0.407004
0.380304
0.351539
0.320873
0.288745
0.256308
0.226008
0.204112
0.21276
-31.6311
-28.1599
-24.9802
-22.2231
-20.0105
-18.2242
-16.7559
-15.5229
-14.4663
-13.5454
-12.7299
-11.9943
-11.3195
-10.6914
-10.1
-9.53727
-8.99805
-8.47911
-7.97696
-7.48924
-7.01533
-6.55538
-6.10938
-5.67729
-5.25909
-4.85484
-4.46462
-4.08885
-3.72803
-3.38255
-3.05277
-2.73914
-2.44194
-2.16119
-1.89675
-1.64837
-1.41605
-1.19988
-0.999415
-0.813918
-0.642817
-0.485712
-0.341753
-0.210335
-0.0912928
0.0157558
0.111239
0.195647
0.269541
0.333567
0.388407
0.4348
0.473443
0.504913
0.529681
0.548209
0.561011
0.568603
0.571519
0.570192
0.564941
0.555944
0.543388
0.527621
0.50886
0.487058
0.462204
0.434446
0.403863
0.370403
0.334244
0.295929
0.256202
0.217208
0.18905
-35.8584
-33.2792
-29.6982
-26.011
-22.712
-20.1333
-18.1185
-16.4934
-15.1399
-13.9917
-13.0074
-12.1553
-11.4074
-10.7379
-10.1264
-9.55839
-9.02421
-8.5174
-8.0304
-7.5558
-7.09223
-6.64092
-6.20269
-5.77738
-5.36512
-4.96627
-4.58074
-4.20809
-3.84858
-3.50304
-3.17229
-2.85678
-2.55662
-2.27181
-2.00233
-1.74792
-1.50819
-1.28293
-1.07211
-0.875708
-0.693497
-0.525156
-0.370406
-0.228869
-0.100164
0.0159901
0.120037
0.212531
0.294014
0.365062
0.426321
0.478439
0.522114
0.557987
0.586629
0.608541
0.624213
0.634272
0.639192
0.639208
0.634651
0.625963
0.613624
0.598043
0.579533
0.558225
0.534153
0.507358
0.477419
0.443849
0.406452
0.365197
0.320207
0.271208
0.217433
0.159242
-35.6537
-32.7092
-29.314
-25.8849
-22.8965
-20.5388
-18.6419
-17.0256
-15.6061
-14.3593
-13.2623
-12.2931
-11.434
-10.6674
-9.97673
-9.34946
-8.77772
-8.25786
-7.77055
-7.29477
-6.82924
-6.37603
-5.9357
-5.50823
-5.09408
-4.69446
-4.30989
-3.93966
-3.58358
-3.24211
-2.91596
-2.60561
-2.31106
-2.03218
-1.76882
-1.52064
-1.28715
-1.06805
-0.863358
-0.673222
-0.497578
-0.336161
-0.188648
-0.0546139
0.0664596
0.174999
0.271447
0.356392
0.430532
0.494617
0.549391
0.595456
0.633366
0.663689
0.68701
0.70388
0.714793
0.720263
0.720749
0.716589
0.708122
0.695712
0.679696
0.660399
0.638051
0.612736
0.584445
0.553096
0.518477
0.480243
0.43799
0.391231
0.339235
0.280605
0.212657
0.132199
-32.7281
-30.1058
-27.3337
-24.5925
-22.1092
-19.9844
-18.177
-16.6213
-15.277
-14.1133
-13.0986
-12.2041
-11.4078
-10.689
-10.0273
-9.40864
-8.82184
-8.2511
-7.69314
-7.15668
-6.64244
-6.14918
-5.67589
-5.22248
-4.78981
-4.38125
-3.996
-3.62891
-3.27762
-2.94231
-2.62377
-2.32164
-2.03549
-1.76487
-1.50921
-1.26815
-1.0416
-0.829525
-0.631888
-0.448639
-0.279669
-0.124814
0.0161398
0.143525
0.257843
0.359663
0.449558
0.528116
0.596018
0.654026
0.702786
0.742771
0.774478
0.798474
0.815319
0.825591
0.829856
0.828633
0.822409
0.811633
0.796728
0.778099
0.756139
0.731186
0.703437
0.672891
0.639402
0.602755
0.562666
0.51873
0.470362
0.416696
0.356498
0.287717
0.206618
0.107382
-30.4726
-28.2798
-26.0135
-23.7624
-21.6441
-19.7405
-18.0663
-16.596
-15.2988
-14.1476
-13.1192
-12.1938
-11.3552
-10.589
-9.88154
-9.2217
-8.60076
-8.01223
-7.45467
-6.92693
-6.42494
-5.94511
-5.48523
-5.04394
-4.61994
-4.20964
-3.81208
-3.43075
-3.06755
-2.72273
-2.39556
-2.08561
-1.79289
-1.5179
-1.26014
-1.01853
-0.792626
-0.582002
-0.386461
-0.206022
-0.0405919
0.110003
0.245937
0.367547
0.475462
0.570484
0.653439
0.725123
0.786222
0.837338
0.879032
0.911894
0.936565
0.953678
0.963794
0.967445
0.965167
0.957469
0.944801
0.927607
0.906322
0.881384
0.853218
0.822056
0.787928
0.750775
0.71043
0.666647
0.619057
0.5671
0.509984
0.446609
0.375444
0.294158
0.198821
0.081501
-26.8253
-24.8702
-22.9353
-21.092
-19.395
-17.8623
-16.4844
-15.2435
-14.1233
-13.1087
-12.1853
-11.34
-10.5609
-9.8373
-9.16015
-8.52207
-7.91751
-7.3427
-6.79475
-6.27133
-5.77061
-5.29118
-4.83196
-4.39215
-3.97101
-3.56914
-3.18781
-2.82718
-2.48636
-2.16438
-1.86062
-1.57434
-1.30427
-1.0499
-0.811661
-0.589599
-0.383655
-0.193435
-0.0183488
0.141947
0.287787
0.419532
0.537466
0.642073
0.734055
0.814104
0.882896
0.941032
0.989137
1.02785
1.05778
1.07952
1.09362
1.1006
1.10101
1.09533
1.08404
1.06758
1.04643
1.02102
0.991751
0.958902
0.922639
0.883049
0.840128
0.793709
0.743413
0.688685
0.628777
0.562712
0.489225
0.406546
0.312076
0.201631
0.0647998
-25.7837
-24.0594
-22.3587
-20.7261
-19.1955
-17.7812
-16.4823
-15.291
-14.1978
-13.1924
-12.2648
-11.405
-10.6042
-9.85471
-9.15012
-8.4849
-7.85462
-7.25607
-6.68697
-6.14556
-5.6302
-5.13932
-4.67159
-4.22597
-3.80164
-3.39807
-3.0149
-2.65164
-2.3076
-1.98226
-1.67524
-1.38611
-1.11443
-0.860061
-0.622994
-0.403028
-0.199767
-0.0125693
0.15934
0.316657
0.459763
0.588805
0.703986
0.805538
0.893927
0.969904
1.03426
1.08775
1.13111
1.16511
1.19043
1.20761
1.21718
1.21973
1.21579
1.20587
1.19049
1.17018
1.14539
1.11642
1.0836
1.04717
1.0073
0.96399
0.917105
0.866342
0.811195
0.750954
0.684711
0.611297
0.52922
0.436555
0.330749
0.208065
0.0604495
-24.9792
-23.4236
-21.8882
-20.4034
-18.992
-17.6663
-16.4297
-15.2793
-14.2099
-13.2152
-12.2883
-11.4224
-10.6111
-9.84859
-9.12979
-8.45018
-7.80594
-7.1941
-6.61238
-6.0589
-5.53205
-5.03043
-4.55281
-4.09825
-3.66596
-3.25535
-2.86595
-2.49736
-2.14914
-1.82078
-1.51177
-1.22169
-0.950095
-0.696588
-0.460812
-0.242388
-0.0408958
0.14428
0.313851
0.468373
0.608224
0.733742
0.845335
0.943443
1.02866
1.10173
1.16339
1.21433
1.25516
1.2864
1.30864
1.32249
1.32861
1.32767
1.32035
1.30721
1.28875
1.26541
1.23758
1.20557
1.16966
1.13006
1.08686
1.04001
0.989288
0.934322
0.874509
0.809004
0.736726
0.656343
0.56624
0.464498
0.348956
0.217208
0.0661032
-24.3747
-22.9401
-21.5219
-20.143
-18.8202
-17.564
-16.3786
-15.264
-14.2176
-13.2356
-12.3135
-11.4464
-10.6297
-9.85886
-9.12981
-8.43895
-7.78312
-7.15976
-6.5668
-6.00255
-5.46559
-4.95468
-4.46874
-4.00684
-3.5682
-3.15218
-2.75819
-2.38572
-2.03423
-1.70317
-1.39204
-1.10033
-0.82759
-0.573364
-0.337288
-0.118936
0.0822519
0.266853
0.435469
0.588667
0.72693
0.850718
0.960552
1.05698
1.14056
1.21193
1.27174
1.32063
1.35923
1.38815
1.40804
1.41962
1.42353
1.42039
1.41077
1.39522
1.37424
1.34831
1.31786
1.28322
1.24468
1.20237
1.15633
1.10648
1.05253
0.994046
0.930319
0.860377
0.782984
0.696677
0.599785
0.490507
0.367194
0.228865
0.0763955
-23.9085
-22.5589
-21.2226
-19.9182
-18.6594
-17.4548
-16.309
-15.2232
-14.1965
-13.2268
-12.3111
-11.4459
-10.6277
-9.85311
-9.11873
-8.42161
-7.75911
-7.12898
-6.52934
-5.95862
-5.41549
-4.89878
-4.40747
-3.94068
-3.49762
-3.07763
-2.68009
-2.30445
-1.95016
-1.61673
-1.30365
-1.01043
-0.736594
-0.481669
-0.245195
-0.0266816
0.174428
0.358709
0.526748
0.679125
0.816366
0.93893
1.04735
1.14229
1.22441
1.2943
1.35262
1.4
1.4371
1.46453
1.48296
1.49307
1.4955
1.49085
1.47968
1.46256
1.44002
1.41253
1.38048
1.34417
1.30383
1.25963
1.21156
1.15952
1.1032
1.04205
0.975302
0.901888
0.820483
0.729538
0.627359
0.512322
0.38328
0.240348
0.086695
-23.5909
-22.2941
-21.0094
-19.7526
-18.5354
-17.3656
-16.2473
-15.1826
-14.1712
-13.2119
-12.3025
-11.4406
-10.6233
-9.84772
-9.11115
-8.411
-7.74496
-7.11102
-6.50745
-5.93281
-5.38582
-4.8654
-4.3706
-3.90056
-3.45454
-3.03188
-2.63197
-2.25426
-1.89821
-1.56329
-1.24896
-0.954712
-0.680043
-0.424474
-0.187507
0.0313843
0.232737
0.417095
0.585019
0.73708
0.873836
0.995827
1.10362
1.19783
1.27912
1.3481
1.40544
1.45177
1.48772
1.51397
1.53121
1.54012
1.54134
1.53547
1.52311
1.50483
1.48114
1.45253
1.41938
1.38199
1.3406
1.29531
1.2461
1.1928
1.13508
1.07236
1.00379
0.928264
0.844418
0.750669
0.645346
0.526939
0.394593
0.249111
0.094694
-23.3983
-22.1277
-20.8696
-19.6383
-18.4445
-17.2951
-16.194
-15.1432
-14.1427
-13.1916
-12.2882
-11.4303
-10.6154
-9.8411
-9.10488
-8.40443
-7.73765
-7.10267
-6.49787
-5.92188
-5.37348
-4.85164
-4.35542
-3.88401
-3.43668
-3.01277
-2.6117
-2.2329
-1.87585
-1.54
-1.22484
-0.929871
-0.654614
-0.398591
-0.161319
0.0577381
0.259132
0.44344
0.611245
0.76313
0.899661
1.0214
1.12893
1.22283
1.30371
1.37221
1.429
1.47473
1.51006
1.53568
1.55227
1.5605
1.56101
1.55441
1.54135
1.52238
1.49803
1.46876
1.43497
1.39699
1.35505
1.30925
1.25953
1.2057
1.1474
1.08401
1.01465
0.938228
0.853406
0.758637
0.652255
0.532777
0.399449
0.252924
0.0983471
-23.3575
-22.0862
-20.8293
-19.6013
-18.412
-17.2679
-16.1726
-15.1275
-14.1324
-13.1862
-12.2871
-11.4328
-10.621
-9.84917
-9.11493
-8.41606
-7.75051
-7.11649
-6.51243
-5.93697
-5.38891
-4.86724
-4.37106
-3.89956
-3.45204
-3.02786
-2.62642
-2.24719
-1.88965
-1.55328
-1.2376
-0.942126
-0.66639
-0.409915
-0.172211
0.0472591
0.249035
0.43368
0.601779
0.753903
0.890613
1.01246
1.12001
1.21387
1.29467
1.36308
1.41974
1.46533
1.50052
1.52597
1.54239
1.55046
1.55081
1.5441
1.53093
1.51188
1.48744
1.4581
1.42426
1.38628
1.34438
1.29865
1.24905
1.1954
1.13735
1.0743
1.00541
0.929597
0.845525
0.75165
0.646319
0.528053
0.396065
0.250935
0.0975387
-23.4614
-22.1627
-20.8829
-19.6368
-18.4343
-17.2814
-16.1809
-15.1336
-14.1385
-13.1939
-12.2973
-11.4462
-10.6378
-9.86951
-9.13869
-8.44306
-7.78054
-7.14932
-6.5478
-5.9746
-5.42853
-4.90857
-4.41382
-3.94352
-3.49695
-3.0735
-2.67256
-2.29357
-1.93604
-1.5995
-1.28353
-0.987685
-0.7115
-0.454512
-0.216255
0.00376331
0.206102
0.391312
0.559942
0.712536
0.849654
0.971845
1.07964
1.17371
1.25471
1.32332
1.38017
1.42594
1.46132
1.487
1.50367
1.51198
1.51259
1.50614
1.49325
1.47449
1.4504
1.42143
1.38802
1.3505
1.30912
1.26401
1.21515
1.16241
1.10545
1.04372
0.976427
0.902516
0.820692
0.729435
0.627097
0.51216
0.383704
0.242311
0.0917427
-23.6744
-22.3239
-20.9993
-19.7165
-18.4855
-17.3118
-16.1973
-15.1416
-14.1427
-13.1976
-12.303
-11.4555
-10.6518
-9.88865
-9.16332
-8.47319
-7.81605
-7.18999
-6.59335
-6.02469
-5.48277
-4.96654
-4.47511
-4.00771
-3.56365
-3.14232
-2.74313
-2.36552
-2.009
-1.67315
-1.35758
-1.06191
-0.785729
-0.52859
-0.290083
-0.0697652
0.132959
0.318675
0.487889
0.641103
0.778846
0.901684
1.01022
1.10506
1.18683
1.25615
1.31368