/*--------------------------------*- C++ -*----------------------------------*\
  =========                 |
  \\      /  F ield         | OpenFOAM: The Open Source CFD Toolbox
   \\    /   O peration     | Website:  https://openfoam.org
    \\  /    A nd           | Version:  13
     \\/     M anipulation  |
\*---------------------------------------------------------------------------*/
FoamFile
{
    format      ascii;
    class       volScalarField;
    location    "400";
    object      omega;
}
// * * * * * * * * * * * * * * * * * * * * * * * * * * * * * * * * * * * * * //

dimensions      [0 0 -1 0 0 0 0];

internalField   nonuniform List<scalar> 
169916
(
18.8086
18.9973
19.2712
19.6377
20.0798
20.5499
20.9922
21.362
21.6361
21.8109
21.8969
21.9132
21.8781
21.8135
19.0696
19.4177
19.9437
20.6829
21.5959
22.5501
23.462
24.251
24.8474
25.2279
25.4176
25.4681
25.437
25.3912
19.4088
20.013
20.9856
22.4233
24.2386
26.1372
28.1195
30.0109
31.4849
32.3984
32.8215
33.0014
33.0847
33.2062
33.5266
34.1017
34.9624
36.1299
37.6075
39.3748
41.3941
43.6197
19.2633
19.8244
20.8263
22.5461
25.1674
28.6542
29.6345
33.6583
38.8547
43.4449
46.4982
48.0912
63.4449
63.3362
64.9273
67.5867
71.1367
75.3961
80.0815
84.914
89.6021
93.8976
97.6658
19.464
20.2736
21.8546
24.7076
29.2933
31.3853
40.8578
57.6528
77.1715
93.521
102.569
105.927
107.393
109.477
164.669
171.234
176.842
180.259
181.464
180.615
178.052
174.181
169.395
19.5798
20.6358
22.9187
27.4779
30.0898
43.0099
67.075
131.527
162.926
229.832
265.724
320.967
318.539
326.512
382.859
345.478
311.52
282.038
256.901
235.071
216.238
200.006
185.982
173.811
19.5344
20.6954
23.3535
25.5804
36.6786
68.8456
105.469
272.305
462.542
677.125
733.28
823.036
663.778
511.593
430.661
345.581
297.615
261.734
233.706
211.192
192.819
177.609
164.894
154.126
144.646
19.3085
20.3381
22.9749
25.325
40.5584
94.0448
186.015
782.345
1041.42
957.214
762.41
636.55
429.296
331.264
254.466
223.966
199.767
180.485
165.329
153.205
143.306
135.083
128.153
122.238
18.9767
19.6724
21.5739
22.5283
31.4465
59.8017
93.9347
241.778
332.124
347.051
339.258
266.772
218.6
176.656
153.026
161.213
149.671
140.244
132.508
126.044
120.553
115.843
111.775
108.247
105.186
102.546
18.6591
19.0065
19.9316
21.7631
22.7021
27.5467
36.6324
48.9514
58.9017
70.3874
80.1418
83.4329
84.156
82.7358
84.7211
84.228
83.2619
82.2401
81.2784
80.4
79.6007
78.8937
78.2889
77.7936
77.4164
77.1717
18.4263
18.5639
18.926
19.6382
20.8811
22.2595
22.9851
25.7613
29.1848
33.0671
36.8974
39.9597
40.5748
41.2316
41.8183
41.9907
42.029
42.0971
42.2696
42.5793
43.0334
43.6227
44.3333
45.1539
46.0807
47.1202
18.2778
18.3176
18.475
18.8032
19.3621
20.1503
21.17
22.3891
23.6835
24.8334
25.7358
26.3875
26.8726
27.1059
27.1574
27.1245
27.0725
27.042
27.0575
27.1367
27.2918
27.5323
27.8672
28.3062
28.8593
29.5366
18.1889
18.1865
18.2657
18.4589
18.7934
19.2861
19.9372
20.685
21.4138
21.9873
22.369
22.5831
22.671
22.6715
22.6247
22.5585
22.4917
22.4367
22.4041
22.4013
22.4351
22.5114
22.6358
22.8143
23.0529
23.3578
18.1418
18.1224
18.169
18.3026
18.5373
18.8755
19.3021
19.7726
20.2063
20.5271
20.7143
20.7896
20.796
20.7646
20.7139
20.6555
20.5982
20.5498
20.5168
20.5045
20.5163
20.5551
20.623
20.7219
20.8532
21.0136
18.1266
18.1049
18.1419
18.2517
18.438
18.6923
18.9895
19.2895
19.5464
19.7271
19.823
19.8467
19.8256
19.7823
19.7302
19.6774
19.6302
19.5934
19.5704
19.5629
19.5722
19.5986
19.6421
19.702
19.7754
18.1377
18.1248
18.1683
18.276
18.4428
18.6501
18.8701
19.0719
19.233
19.3428
19.398
19.4034
19.3761
19.3338
19.2883
19.2465
19.2125
19.1884
19.1751
19.1726
19.1806
19.1984
19.2248
19.2574
19.2947
18.1703
18.1762
18.2398
18.3624
18.5297
18.7158
18.892
19.0372
19.1436
19.212
19.2437
19.2414
19.2152
19.178
19.1399
19.1061
19.0784
19.0575
19.0426
19.0326
19.0266
19.0236
19.0228
19.023
19.0239
18.2516
18.3471
18.4987
18.6816
18.8633
19.0177
19.1337
19.2134
19.2629
19.2856
19.2839
19.2635
19.233
19.2004
19.1694
19.1412
19.1153
19.0906
19.0658
19.0405
19.0149
18.9894
18.9637
18.9377
18.4725
18.6627
18.8719
19.0604
19.2069
19.3098
19.3783
19.4209
19.4425
19.4453
19.4317
19.4062
19.3745
19.3404
19.3053
19.2693
19.2318
19.1926
19.1519
19.1112
19.0711
19.0315
18.9926
18.5842
18.8116
19.0498
19.2513
19.3984
19.4973
19.5622
19.6036
19.6271
19.6346
19.626
19.6022
19.5679
19.5278
19.4847
19.4398
19.3932
19.345
19.2961
19.2478
19.201
19.1558
19.1122
18.9022
19.1588
19.3698
19.5192
19.6177
19.6819
19.7239
19.7501
19.762
19.7579
19.7371
19.7033
19.6621
19.6171
19.5701
19.5213
19.4711
19.4203
19.3704
19.3226
19.2769
19.2334
18.9013
19.1572
19.3673
19.5161
19.614
19.6777
19.7194
19.7451
19.7565
19.7519
19.7306
19.6964
19.6548
19.6095
19.5622
19.5132
19.4628
19.412
19.3624
19.3148
19.2694
19.2262
18.8101
19.0469
19.2467
19.3922
19.4898
19.5534
19.5936
19.6158
19.6219
19.6117
19.5866
19.5511
19.5098
19.4658
19.42
19.3728
19.3241
19.2748
19.2264
19.1797
19.1347
19.0914
19.0505
18.6615
18.8693
19.0562
19.2008
19.3021
19.369
19.41
19.4298
19.4306
19.4148
19.3872
19.3535
19.3174
19.2804
19.2426
19.2038
19.1635
19.1221
19.0807
19.0404
19.0008
18.9621
18.9247
18.498
18.68
18.8603
19.0129
19.1271
19.2046
19.2517
19.2721
19.2683
19.2457
19.2132
19.1784
19.1452
19.1148
19.0868
19.0602
19.0339
19.0074
18.9809
18.9547
18.9284
18.9022
18.8764
18.3621
18.5288
18.7138
18.8883
19.0311
19.1342
19.1991
19.2275
19.2223
19.1936
19.1543
19.114
19.0779
19.048
19.0248
19.0078
18.996
18.9883
18.9839
18.982
18.981
18.9808
18.9808
18.4425
18.6492
18.8676
19.0668
19.2243
19.3298
19.3811
19.3835
19.3538
19.3093
19.2617
19.2177
19.1811
19.1543
19.1384
19.1329
19.1378
19.1523
19.1752
19.2047
19.2383
19.2761
19.3159
18.4378
18.6915
18.9869
19.2844
19.5381
19.7152
19.8088
19.8313
19.8096
19.7658
19.713
19.6593
19.6108
19.5724
19.5473
19.5376
19.5443
19.5678
19.6081
19.6644
19.7349
19.8165
19.9141
18.5366
18.8734
19.2968
19.7668
20.1998
20.5208
20.7111
20.7913
20.8027
20.7754
20.7277
20.6714
20.6157
20.5682
20.5356
20.5231
20.5343
20.5721
20.6387
20.736
20.8658
21.0269
21.2107
18.792
19.2823
19.9245
20.6966
21.4431
22.029
22.4241
22.6541
22.7575
22.7704
22.7324
22.6729
22.6116
22.5624
22.5356
22.5399
22.5823
22.6689
22.8059
23.0001
23.2587
23.5891
23.9994
23.6814
24.8346
25.7548
26.4477
26.987
27.2734
27.3718
27.3797
27.3666
27.3765
27.4374
27.5695
27.7873
28.1018
28.5229
29.0613
29.7281
30.5352
31.4967
26.1551
28.4478
30.4682
31.96
40.1267
40.7395
41.3663
41.6321
41.7877
41.9802
42.2767
42.7065
43.2754
43.9737
44.7869
45.7037
46.7195
47.84
49.0837
45.7439
51.6149
55.4514
56.4152
55.6601
81.2162
80.3358
79.2256
78.2044
77.3027
76.4905
75.7737
75.1663
74.6727
74.2831
74.0039
73.8464
73.8314
106.136
157.654
136.822
122.894
113.569
158.28
146.213
136.452
128.5
121.892
116.302
111.518
107.393
103.817
100.714
98.0322
95.7456
352.013
384.5
294.237
231.818
258.994
226.934
201.761
181.548
165.49
152.645
142.182
133.517
126.238
120.05
114.74
110.156
844.275
579.231
460.111
351.279
301.455
264.462
235.664
212.64
193.809
178.186
165.085
154.02
144.609
136.238
128.833
386.303
347.887
313.006
282.88
257.3
235.269
216.281
199.921
185.784
173.516
162.814
153.379
144.989
18.833
19.0406
19.3453
19.75
20.22
20.7062
21.1567
21.5311
21.8083
21.9852
22.0703
22.0821
22.0506
22.0058
19.1289
19.5342
20.1632
21.0287
22.0231
23.0937
24.1419
25.041
25.7006
26.0942
26.2516
26.2576
26.2357
26.1841
19.5443
20.3088
21.5855
23.4101
25.5234
28.1826
31.0428
33.5423
35.2774
36.1363
36.2991
36.3016
36.2589
36.1743
36.095
36.0472
36.0491
36.1282
36.4677
37.0041
37.7152
38.5811
19.3857
20.1141
21.5232
24.0287
27.9757
29.1936
35.2749
44.205
53.1312
59.384
62.2752
62.4312
61.7492
77.0323
75.4515
74.2036
73.3417
73.1348
73.8894
75.1606
76.7553
78.5256
80.3672
19.676
20.8381
23.2762
28.1252
30.6289
45.6403
78.3428
124.792
156.149
168.182
166.784
159.798
151.444
142.702
173.631
167.365
163.642
162.113
161.176
160.013
158.525
156.603
154.244
19.8957
21.5621
25.3459
27.9596
45.3892
100.902
193.406
455.097
523.114
508.237
496.956
428.321
364.299
360.767
328.538
344.117
316.222
291.267
268.988
249.013
231.242
215.62
201.94
189.95
19.93
21.7407
23.2272
32.952
71.7693
172.5
1013.69
962.187
667.814
509.373
430.551
358.759
316.547
284.169
258.7
238.044
220.969
206.627
194.423
183.92
19.6947
21.4053
22.8998
34.496
64.1305
363.636
659.408
505.148
412.516
342.919
306.026
277.615
254.627
235.456
219.38
205.81
194.297
184.497
19.2411
20.5428
23.9157
27.1477
54.6386
160.551
1014.3
895.461
573.256
412.831
320.076
281.951
253.83
232.112
214.752
200.583
188.846
178.997
170.643
163.512
157.413
18.8035
19.4066
20.9201
22.1483
28.5741
45.8351
87.1542
230.157
305.942
312.101
301.762
283.644
220.827
204.456
192.806
177.858
171.749
166
160.621
155.578
150.883
146.571
142.658
139.145
136.033
133.331
18.4951
18.7195
19.2917
20.3523
21.0656
23.5982
27.8531
33.7187
40.6036
47.3969
54.3737
61.1782
66.6775
69.9477
75.3326
76.3084
77.0155
77.9419
79.1991
80.7449
82.3855
84.0453
85.6729
87.2465
88.7808
90.321
18.3097
18.3771
18.5883
19.0077
19.6654
20.533
21.6989
23.4008
25.6657
27.8626
29.6539
31.6258
32.9863
33.7507
34.2442
34.5987
34.9688
35.4588
36.1474
37.0716
38.2579
39.7202
41.4696
43.4963
45.7871
48.3248
18.2066
18.2128
18.3073
18.5244
18.8867
19.4221
20.1454
21.1008
22.1106
22.9059
23.4121
23.7797
24.0158
24.1364
24.1953
24.2388
24.308
24.435
24.645
24.956
25.3881
25.957
26.6817
27.5822
28.6772
29.9798
18.1573
18.1419
18.1951
18.3393
18.5909
18.9631
19.4504
20.0052
20.5224
20.9085
21.1211
21.2144
21.2447
21.2403
21.222
21.2075
21.2136
21.255
21.3459
21.4967
21.7152
22.0121
22.3967
22.877
23.4594
24.1283
18.1472
18.1307
18.1757
18.2971
18.5008
18.7836
19.116
19.456
19.7537
19.9728
20.0872
20.1169
20.1005
20.065
20.027
19.9981
19.9885
20.0069
20.0613
20.1564
20.2969
20.4875
20.7308
21.0268
21.3704
18.1684
18.1659
18.2241
18.3512
18.5418
18.7764
19.026
19.2534
19.4384
19.5691
19.6377
19.6495
19.628
19.5961
19.5691
19.5563
19.5644
19.5982
19.6606
19.7543
19.8816
20.0442
20.2407
20.4648
20.7123
18.2152
18.2398
18.3299
18.4857
18.6895
18.9101
19.1146
19.279
19.4009
19.4886
19.5423
19.559
19.5493
19.5321
19.5211
19.5233
19.5419
19.5775
19.6301
19.6986
19.7831
19.8834
19.9976
20.1219
20.2522
18.3444
18.4836
18.6894
18.9283
19.158
19.3486
19.4906
19.5941
19.6722
19.7289
19.7629
19.7773
19.7838
19.7928
19.8092
19.8342
19.8668
19.9046
19.9445
19.9858
20.0295
20.0749
20.119
20.1606
18.6631
18.9364
19.2303
19.4901
19.6922
19.842
19.9579
20.0534
20.1345
20.2
20.2472
20.28
20.3058
20.3297
20.3531
20.3756
20.3955
20.4101
20.4205
20.4287
20.4346
20.4358
20.4313
18.8269
19.1692
19.5253
19.8272
20.0549
20.2243
20.3614
20.4814
20.5906
20.6874
20.7641
20.816
20.8481
20.8691
20.8845
20.8954
20.9013
20.9004
20.8935
20.8837
20.8715
20.8543
20.8311
19.3101
19.7084
20.0431
20.2946
20.4842
20.6415
20.7841
20.9216
21.0523
21.1631
21.2423
21.2924
21.3253
21.3493
21.3667
21.377
21.3782
21.3718
21.3619
21.3487
21.3296
21.3025
19.3086
19.7056
20.0386
20.2887
20.4772
20.6335
20.7752
20.9116
21.0412
21.1509
21.2291
21.2783
21.3105
21.3338
21.3505
21.3603
21.3616
21.3559
21.347
21.3351
21.3171
21.2912
19.1673
19.5211
19.8202
20.0453
20.213
20.3485
20.4669
20.5743
20.669
20.7437
20.7938
20.8241
20.8435
20.8573
20.867
20.8719
20.87
20.8626
20.8524
20.8401
20.8231
20.8003
20.7721
18.9353
19.2276
19.4851
19.6851
19.8332
19.9475
20.0413
20.1204
20.183
20.227
20.2568
20.2794
20.3
20.3201
20.3396
20.3567
20.3691
20.3773
20.3839
20.3887
20.3892
20.3845
20.3751
18.6892
18.9273
19.1556
19.3445
19.485
19.5862
19.6619
19.7168
19.7491
19.7617
19.7664
19.7734
19.7873
19.8094
19.8388
19.8735
19.9103
19.9483
19.9882
20.0301
20.0709
20.1094
20.1455
18.4861
18.6894
18.909
19.112
19.2737
19.3918
19.4748
19.5239
19.537
19.5242
19.5043
19.4905
19.4893
19.504
19.5358
19.5844
19.6489
19.7292
19.8255
19.9357
20.0559
20.1819
20.3088
18.5425
18.7771
19.0255
19.2504
19.431
19.5563
19.6203
19.6283
19.6031
19.5672
19.5355
19.5171
19.518
19.5434
19.596
19.6781
19.7919
19.9389
20.1184
20.3252
20.5549
20.8007
21.0476
18.5015
18.7838
19.1147
19.4533
19.7484
19.9635
20.0753
20.1034
20.0857
20.0482
20.0069
19.9735
19.9577
19.9682
20.0125
20.0963
20.2231
20.3972
20.6216
20.8964
21.2181
21.5902
22.0122
18.5906
18.9607
19.4463
20.0133
20.5402
20.9298
21.1466
21.2444
21.2776
21.2745
21.256
21.2406
21.2443
21.2822
21.367
21.5101
21.7192
22.0047
22.376
22.842
23.4105
24.0711
24.8313
18.886
19.417
20.1597
21.1043
22.1555
22.9585
23.473
23.8493
24.1025
24.2439
24.3264
24.3979
24.4976
24.6578
24.9001
25.247
25.7183
26.3346
27.1172
28.0889
29.2727
30.6876
32.3193
25.6155
27.8267
29.6927
31.9251
33.5722
34.5823
35.2837
35.8277
36.394
37.0899
38.0036
39.1841
40.6553
42.4204
44.4715
46.7998
49.3907
52.2293
55.3108
29.7106
33.6827
37.4402
40.9324
43.8842
45.7332
73.758
75.4146
76.7592
78.2043
79.8611
81.7359
83.6746
85.5735
87.3883
89.1047
90.7435
92.3527
94.0051
85.2791
95.5356
102.823
107.652
109.677
109.263
165.987
160.98
156.321
151.962
147.852
144.005
140.453
137.214
134.293
131.693
129.425
127.518
553.078
567.574
461.761
350.959
348.109
297.152
317.388
277.47
248.46
226.424
209.095
195.15
183.731
174.235
166.241
159.456
153.676
148.77
1190.01
667.955
498.853
393.046
345.694
306.223
276.07
252.074
232.323
215.956
202.29
190.798
181.087
172.861
165.893
671.484
544.377
446.361
363.129
319.469
285.637
259.297
238.177
220.851
206.353
194.071
183.559
174.483
166.596
451.9
340.235
313.703
289.612
267.647
247.614
229.837
214.247
200.617
188.682
178.195
168.941
160.743
18.7244
18.8726
19.1115
19.4571
19.8892
20.3694
20.8464
21.2715
21.6145
21.8652
22.0242
22.0991
22.1051
22.1028
22.0803
18.9336
19.2325
19.7349
20.4876
21.4215
22.5227
23.683
24.7525
25.611
26.2074
26.5337
26.6303
26.6861
26.6912
26.656
19.2234
19.7938
20.8222
22.4134
24.4693
27.423
30.7498
33.7999
36.1252
37.5475
38.066
38.147
38.1046
37.9489
37.8198
37.6458
37.4658
37.3031
37.1644
37.0602
36.997
36.9785
37.0071
19.6123
20.6636
22.6613
26.1164
27.5743
35.0072
45.8568
56.2869
64.1488
68.6617
69.9465
69.1881
67.5289
65.704
78.2344
75.9063
73.8742
72.1676
70.7977
69.7381
68.9486
68.3887
68.0235
20.0798
21.8824
25.5616
27.9262
44.3771
87.8803
132.768
177.074
198.62
201.756
194.134
183.491
169.722
155.549
143.97
160.007
152.314
146.097
141.019
136.797
133.209
130.077
127.269
20.5184
23.1444
25.1021
39.2042
101.297
269.623
515.876
1314.77
663.047
750.355
712.694
555.362
441.343
343.476
327.995
290.408
289.722
265.294
245.337
228.483
214.11
201.635
190.694
181.02
20.7345
23.9321
27.4186
53.3626
152.392
893.555
642.522
477.463
373.169
325.882
291.325
264.632
243.35
225.94
211.399
199.058
188.349
20.4771
23.4397
27.3755
57.5462
319.747
655.631
465.235
322.794
268.287
234.729
211.01
193.67
180.2
169.304
160.159
152.234
19.7647
21.7973
24.0578
45.7937
129.477
781.753
559.867
418.44
302.951
268.358
242.842
223.208
207.638
194.869
184.112
174.868
166.828
159.741
19.0632
20.2549
23.0027
26.2089
47.0548
141.572
355.135
662.341
808.636
469.031
664.246
474.345
424.907
408.69
360.277
294.403
270.37
250.143
232.608
217.293
204.03
192.554
182.633
174.041
166.645
160.237
18.6166
18.9972
19.9622
21.6891
23.392
29.0736
38.3319
50.0015
68.1483
92.1737
115.982
143.569
167.129
180.575
185.305
178.636
172.999
168.331
164.354
160.818
157.499
154.309
151.221
148.251
145.47
142.955
18.3669
18.4842
18.7913
19.3641
20.1508
21.1535
22.5624
23.8811
29.4655
38.6038
47.1192
62.6684
66.6749
68.201
68.9118
69.3679
70.1519
71.6435
73.8432
76.6447
79.9306
83.5694
87.3474
91.0763
94.6889
98.1415
18.2409
18.2646
18.3889
18.653
19.0627
19.6649
20.4843
21.0733
23.1323
25.7311
27.7186
30.6769
32.026
32.8331
33.4086
34.0172
34.7885
35.8094
37.1859
38.9363
41.0543
43.5186
46.3293
49.4904
52.9905
18.1903
18.1855
18.256
18.4264
18.7183
19.1523
19.7854
20.6352
21.5522
22.3912
22.9083
23.1808
23.6346
24.0236
24.4082
24.855
25.4184
26.1358
27.0454
28.1803
29.5488
31.1542
32.9932
35.0629
37.3364
18.1925
18.191
18.2585
18.4122
18.6632
19.0007
19.4375
19.9024
20.319
20.6797
20.9138
21.0156
21.153
21.3116
21.5029
21.7582
22.1106
22.5896
23.2192
24.0124
24.9835
26.1291
27.4355
28.8685
30.4005
18.2369
18.2617
18.3601
18.5411
18.7975
19.1032
19.4279
19.7071
19.9378
20.1387
20.2715
20.3265
20.398
20.5022
20.666
20.9151
21.2731
21.7535
22.3678
23.12
23.9908
24.985
26.0797
27.2309
28.4236
18.3169
18.3907
18.5529
18.8025
19.109
19.4212
19.6949
19.9013
20.0707
20.2257
20.3609
20.4553
20.5234
20.6221
20.7782
20.9963
21.2812
21.6364
22.0652
22.5671
23.1465
23.8062
24.5304
25.2848
26.0426
18.5693
18.8319
19.1953
19.5999
19.9664
20.2571
20.4732
20.6626
20.8471
21.0298
21.1944
21.3383
21.4872
21.6611
21.8692
22.1173
22.4062
22.7282
23.0678
23.4218
23.7946
24.1817
24.5531
24.9111
19.1685
19.7014
20.2731
20.783
21.1977
21.5364
21.8354
22.1228
22.4129
22.691
22.9401
23.1665
23.3846
23.6038
23.8255
24.0487
24.2654
24.4612
24.638
24.8082
24.9673
25.098
25.1991
19.4829
20.2017
20.976
21.6614
22.2199
22.6814
23.1014
23.5085
23.9201
24.3242
24.6826
24.9669
25.1897
25.3826
25.5579
25.7184
25.8598
25.9661
26.0448
26.1135
26.1679
26.1933
26.1886
20.5111
21.4371
22.2707
22.9613
23.541
24.0868
24.6446
25.2406
25.8476
26.3859
26.7971
27.0941
27.3327
27.5398
27.7225
27.8737
27.9791
28.0521
28.1118
28.1519
28.1535
28.1144
20.5076
21.4293
22.2574
22.9432
23.5198
24.0629
24.6178
25.2107
25.8146
26.3503
26.7595
27.0551
27.2924
27.4986
27.6812
27.834
27.9435
28.0224
28.0879
28.1338
28.1408
28.1067
20.1982
20.9672
21.6471
22.2018
22.6622
23.0824
23.4896
23.9009
24.3043
24.6623
24.9458
25.1671
25.358
25.5316
25.6908
25.8293
25.9331
26.0095
26.0759
26.1285
26.1519
26.1453
26.1185
19.7005
20.2692
20.7755
21.1876
21.5259
21.8251
22.1123
22.4008
22.675
22.9196
23.1407
23.352
23.5633
23.7762
23.99
24.1972
24.3822
24.5496
24.7106
24.8613
24.9843
25.0781
25.1524
19.1963
19.6001
19.9655
20.255
20.4714
20.6602
20.8506
21.0409
21.2106
21.3574
21.5073
21.6795
21.8827
22.1215
22.3967
22.7007
23.0181
23.3452
23.6886
24.0426
24.3843
24.7171
25.0359
18.804
19.1096
19.4207
19.693
19.8962
20.0594
20.2062
20.3331
20.4212
20.484
20.5772
20.7265
20.9358
21.2086
21.5514
21.9667
22.454
23.019
23.6673
24.3807
25.1249
25.8714
26.5941
18.8001
19.1068
19.4314
19.7089
19.934
20.1255
20.2492
20.2967
20.3531
20.4359
20.5716
20.7854
21.0963
21.5241
22.0801
22.7686
23.5691
24.4899
25.5138
26.6009
27.7378
28.8783
29.9221
18.6655
19.0032
19.4394
19.9098
20.3273
20.6785
20.9013
20.9948
21.1158
21.2501
21.4106
21.6282
21.9336
22.3571
22.9232
23.6483
24.5437
25.6062
26.8278
28.1768
29.6206
31.1873
32.8106
18.7192
19.1494
19.7982
20.6579
21.5956
22.4308
22.9501
23.2217
23.6682
24.0449
24.4114
24.8337
25.3664
26.0506
26.9245
28.0167
29.3323
30.8822
32.6661
34.6846
36.9287
39.2919
41.8765
19.0658
19.6639
20.6451
22.1643
22.4982
23.543
24.4687
30.5303
31.9787
32.9203
33.6402
34.3889
35.283
36.4283
37.9231
39.796
42.0404
44.6562
47.6419
51.0038
54.742
58.7706
62.8528
26.0841
30.5911
34.558
65.1833
70.6985
73.3531
74.7157
75.5595
76.7347
78.5132
80.9494
83.972
87.4629
91.0214
94.554
98.0034
101.308
104.454
107.48
41.2669
56.8271
73.6292
93.0124
108.743
116.837
182.403
177.079
172.457
168.514
165.045
161.814
158.685
155.576
152.484
149.469
146.614
144.001
141.699
151.593
200.978
204.197
236.273
244.2
241.469
287.665
264.837
245.586
228.884
214.28
201.559
190.525
180.952
172.623
165.37
159.047
153.523
1842.8
1006.35
597.226
540.448
495.692
393.163
307.955
271.808
245.237
224.762
208.566
195.388
184.363
174.993
166.882
159.758
153.438
607.343
437.646
323.428
271.031
238.276
214.739
197.155
183.308
172.017
162.528
154.34
147.118
140.63
654.24
488.327
373.35
325.307
289.86
262.287
240.304
222.386
207.494
194.785
183.812
174.277
165.951
522.478
411.851
291.596
267.214
247.367
230.604
216.308
203.891
192.988
183.329
174.719
167.015
160.121
18.744
18.9137
19.1838
19.5514
19.9957
20.4692
20.9167
21.3031
21.6094
21.832
21.9717
22.038
22.0676
22.0931
22.1
18.9895
19.3518
19.9406
20.7378
21.777
22.958
24.1117
25.1962
26.0344
26.5798
26.8285
26.889
26.9526
26.9838
26.9778
19.3546
20.0911
21.2923
23.0178
25.865
29.3305
32.6392
36.8623
39.3983
40.5881
40.5261
40.6054
40.5414
40.3161
39.9743
39.5819
39.1814
38.7984
38.4497
38.1381
37.8626
37.6224
37.4164
19.8855
21.2906
23.684
24.9142
31.691
43.1208
54.6025
86.6794
89.5383
89.2874
87.4783
85.5289
81.0334
75.6841
70.8111
73.4741
71.0934
68.9583
67.079
65.4404
64.0143
62.7726
61.6921
20.5803
23.0504
24.5766
35.019
72.1178
122.918
173.733
194.775
201.03
197.943
188.902
176.932
162.744
147.478
133.673
123.562
134.42
127.848
122.091
117.052
112.635
108.739
105.281
21.3071
25.341
29.6381
59.5762
179.406
487.961
550.735
514.221
433.194
416.256
446.129
548.798
547.42
396.114
340.587
281.114
271.637
241.853
219.325
201.446
186.836
174.635
164.266
155.336
21.3672
23.0793
36.7421
71.2354
715.289
940.099
501.853
384.802
310.217
275.663
249.097
227.932
210.666
196.285
184.11
173.666
21.0382
22.8023
37.5811
88.1561
1002.83
451.659
374.879
288.848
259.642
238.268
221.34
207.385
195.54
185.258
176.189
20.2035
21.3963
31.0668
87.5342
739.563
341.753
278.951
259.264
232.905
212.53
200.591
192.011
183.812
176.224
169.281
162.948
157.085
19.4663
21.0601
22.9511
36.2441
88.6299
353.127
1008.96
441.627
490.201
612.538
666.047
732.652
552.911
523.854
385.719
324.413
274.256
253.602
235.837
219.936
206.188
194.299
183.942
174.845
166.864
159.934
18.771
19.3932
20.7127
22.2317
28.1874
39.5838
53.7188
70.4344
112.149
249.257
408.585
444.398
424.893
386.342
345.337
281.664
262.556
246.333
232.232
219.693
208.278
198.049
188.777
180.291
172.686
165.958
18.4397
18.6243
19.0608
19.754
20.6261
21.7173
22.8835
28.4735
51.9387
129.836
211.214
224.968
248.858
232.624
216.738
203.339
192.518
183.982
177.373
172.226
168.063
164.575
161.561
158.891
156.327
153.774
18.2893
18.3404
18.5091
18.823
19.2702
19.8483
20.3952
23.1415
30.2102
46.0605
57.0241
63.3193
91.6158
92.3273
92.1611
92.1309
92.6917
93.9635
95.8943
98.3714
100.914
103.425
105.903
108.358
110.762
18.2429
18.2598
18.3642
18.579
18.9201
19.3675
19.7312
21.2647
23.891
27.5693
31.0593
32.7706
43.0326
46.2711
49.0423
51.5654
54.1761
56.9982
60.0527
63.3299
66.7975
70.3737
74.0036
77.5739
80.951
18.2691
18.2995
18.4157
18.6371
18.9694
19.357
19.5551
20.4132
21.4324
22.6461
24.13
25.0543
28.5126
30.3423
32.2147
34.2258
36.5272
39.1736
42.1752
45.4601
49.0262
52.7441
56.5059
60.0868
63.5433
18.3558
18.4392
18.6261
18.9273
19.3104
19.7737
20.3112
20.7892
21.1851
21.2619
21.6593
22.0364
24.1461
25.7319
27.5431
29.6792
32.2036
35.102
38.3603
41.6532
44.9684
48.344
51.7061
54.9701
58.1913
18.4993
18.6799
19.0091
19.4804
20.0058
20.5375
20.9854
21.294
21.7336
22.1886
22.6853
23.1024
23.5027
24.6015
26.0082
27.4565
29.0464
30.8546
32.941
35.3092
37.984
40.9154
43.987
46.9352
49.672
19.0211
19.5865
20.3341
21.1391
21.8669
22.42
22.8311
23.4328
24.0193
24.6248
25.2128
25.7695
26.4058
27.2067
28.2278
29.5118
31.0574
32.7964
34.5784
36.3432
38.1209
39.8839
41.4341
20.3374
21.5759
22.9654
24.2964
25.4553
26.423
27.249
28.0182
28.8484
29.7045
30.5019
31.279
32.0791
32.9213
33.7966
34.7175
35.6372
36.425
37.145
37.8766
38.5672
39.1116
21.0714
22.8934
25.0415
27.05
28.7464
30.1554
31.3728
32.47
33.6087
34.7857
35.8378
36.624
37.2159
37.7279
38.192
38.6191
38.9874
39.2058
39.3593
39.5249
39.6548
39.686
23.7155
26.4821
29.13
31.3708
33.2706
35.1459
37.1281
39.2973
41.3284
42.9079
43.9353
44.5772
45.0766
45.4894
45.8521
46.1339
46.2573
46.3043
46.3684
46.3851
46.2769
46.0705
23.7058
26.4565
29.0844
31.3085
33.1993
35.0674
37.0403
39.2008
41.2272
42.8066
43.8362
44.4801
44.9837
45.4102
45.7958
46.105
46.2523
46.3231
46.4114
46.4506
46.3591
46.1672
22.8871
25.0309
27.0413
28.742
30.1661
31.4014
32.5152
33.6699
34.8627
35.9258
36.7162
37.3044
37.8137
38.2716
38.6936
39.0503
39.2547
39.394
39.5438
39.6577
39.6709
39.6183
21.5776
22.9645
24.2954
25.455
26.4327
27.2719
28.0502
28.8884
29.7454
30.5333
31.292
32.0638
32.8721
33.7071
34.5773
35.4497
36.1925
36.8635
37.5403
38.1791
38.6764
39.0815
39.5006
20.3386
21.1441
21.8725
22.4272
22.8465
23.463
24.1454
24.8389
25.462
26.023
26.6464
27.4152
28.3809
29.5728
30.9867
32.5571
34.1472
35.7274
37.3394
38.9418
40.3768
41.7357
43.0512
19.4819
20.003
20.5323
20.9793
21.2834
21.7029
22.1323
22.5968
22.9958
23.3826
24.4662
25.8549
27.2806
28.8355
30.6096
32.6721
35.0184
37.6828
40.628
43.712
46.6868
49.4466
51.9642
19.315
19.781
20.3236
20.8059
21.1908
21.2038
21.4321
21.73
23.8446
25.2016
26.7914
28.7229
31.0029
33.6923
36.7748
39.909
43.0969
46.3803
49.7024
52.9784
56.2481
59.3225
61.7959
18.9746
19.3655
19.5586
20.1655
20.7744
21.4217
22.1892
22.7205
28.1007
29.6951
31.3456
33.1462
35.2177
37.6495
40.4463
43.5614
46.987
50.5808
54.2736
57.8048
61.2237
64.5671
67.6637
18.9232
19.3725
19.6519
20.7456
22.3082
24.2656
26.361
27.5999
42.918
45.8741
48.4604
50.8373
53.3339
56.0691
59.0623
62.2955
65.7251
69.2805
72.9134
76.5851
80.1176
83.3366
86.8752
19.2739
19.8664
20.2451
22.1111
26.686
33.7135
39.8397
42.8679
90.4977
91.7282
92.0878
92.5009
93.4424
95.0449
97.2705
100.027
102.752
105.385
107.944
110.458
112.909
115.271
117.289
38.513
57.6064
100.541
116.771
257.672
241
224.624
210.416
198.764
189.463
182.18
176.401
171.654
167.622
164.121
161.034
157.954
155.119
152.53
73.2245
171.391
333.834
380.626
370.708
334.864
297.944
278.109
259.797
244.163
230.35
217.65
206.374
196.176
186.827
178.401
170.93
164.332
158.457
318.112
534.874
510.44
467.213
410.215
358.615
311.254
274.179
252.085
233.865
218.155
204.583
192.76
182.438
173.405
165.439
158.119
150.806
824.32
764.512
1122.79
1363.55
701.074
478.873
324.114
276.128
227.811
207.637
195.066
186.399
178.813
171.608
164.918
158.81
153.208
147.993
444.324
282.263
272.933
285.509
256.765
235.718
219.013
205.233
193.547
183.415
174.484
166.52
159.361
1058.54
485.687
396.778
311.442
277.057
250.502
229.296
211.986
197.582
185.393
174.942
165.894
158.009
873.266
425.597
277.517
247.179
224.26
206.079
191.226
178.821
168.277
159.191
151.285
144.369
138.315
18.745
18.9296
19.2246
19.6207
20.0853
20.5579
20.988
21.3427
21.6176
21.815
21.9358
21.9921
22.0351
22.082
22.1159
19.0207
19.4306
20.1104
21.0236
22.1774
23.3984
24.6257
25.6323
26.3531
26.7913
26.9563
27.0064
27.0632
27.112
27.1331
19.4515
20.3216
21.8146
23.9705
27.3406
30.9275
35.7133
38.9257
40.6994
41.3801
41.2498
41.1381
41.0638
40.8571
40.5042
40.0957
39.6152
39.1406
38.7089
38.3168
37.9655
37.6537
37.3795
20.1179
21.8341
25.133
26.978
36.6822
49.3342
82.7901
86.7979
87.7602
87.0548
85.232
82.6035
80.2487
75.2295
70.0022
71.0571
68.5117
66.1601
64.0542
62.1864
60.5336
59.0685
57.7674
21.0419
24.0993
26.5646
45.3517
96.659
152.291
182.806
195.108
193.365
186.821
178.3
165.834
154.195
140.305
126.535
113.8
125.75
117.814
110.994
105.104
99.9904
95.5229
91.596
21.8687
23.6005
36.5177
102.491
370.194
983.943
467.588
378.12
384.59
382.33
369.44
387.242
540.879
465.653
304.979
273.311
223.956
215.914
194.131
176.873
162.791
151.066
141.143
132.64
22.3913
25.2255
46.0802
142.349
558.862
394.373
301.381
261.536
232.909
210.797
193.017
178.329
165.945
155.351
21.9981
25.0253
49.8359
243.445
560.299
393.093
301.927
265.471
239.037
218.345
201.548
187.556
175.63
165.24
20.8637
22.9245
40.7511
123.461
357.002
353.277
286.95
257.709
235.308
216.978
201.702
188.704
177.469
167.633
158.896
19.8615
22.0815
25.2599
47.8784
236.786
619.348
219.138
261.126
478.643
573.243
641.132
696.852
582.7
442.175
322.291
280.595
255.042
240.877
226.412
212.783
200.35
189.1
178.962
169.816
161.492
18.9174
19.7742
21.5983
23.9384
33.2262
51.4306
64.354
81.1125
125.326
874.967
559.904
434.089
362.606
319.982
300.598
280.408
260.431
242.707
227.589
215.068
204.001
191.612
180.36
170.993
162.797
18.5126
18.7715
19.3502
20.2002
21.1792
22.4588
24.0007
32.5749
142.11
993.941
550.966
422.446
365.896
322.416
289.621
264.325
244.7
229.579
217.282
206.959
198.283
190.754
183.719
176.856
169.783
18.3462
18.437
18.6723
19.0535
19.4916
19.8729
21.2881
28.2301
114.595
265.916
352.163
451.926
386.563
334.571
295.21
264.984
241.329
222.455
207.13
194.486
183.989
175.303
168.177
162.392
157.546
18.3153
18.3718
18.5382
18.83
19.1914
19.4717
20.6877
26.4763
62.5066
86.3956
124.986
177.845
179.149
256.534
236.532
219.08
204.244
191.773
181.326
172.487
164.95
158.382
152.559
148.108
143.999
18.3833
18.4767
18.6898
19.0442
19.4567
19.7044
20.8284
24.4096
32.562
49.3901
61.1577
73.7211
75.1432
128.585
126.339
125.108
124.884
125.549
126.856
127.735
129.646
130.722
131.066
128.66
125.076
18.5441
18.7457
19.122
19.6744
20.2435
20.4652
21.4007
23.1158
25.0221
28.4661
34.4952
39.4359
43.2381
79.1359
84.5561
90.2053
96.4208
102.931
109.68
108.048
106.936
107.92
110.346
113.924
118.014
18.8043
19.2132
19.9263
20.9029
21.8859
22.0266
22.8379
23.755
28.1675
28.2677
29.9351
32.2824
33.9649
51.0615
58.1254
58.1379
60.3101
64.8227
71.378
80.0296
89.9252
99.9892
109.36
116.991
122.57
19.91
21.1738
22.838
24.7407
24.86
25.666
26.5181
32.9061
32.6778
33.0706
34.1857
35.4233
37.3708
40.5132
45.1888
51.2945
58.6468
67.0087
75.4004
82.9964
89.6879
95.5253
100.275
22.9709
26.1172
30.333
34.5803
38.1895
40.9191
40.599
40.7532
41.8136
43.9263
46.2015
48.7929
52.2138
56.4472
61.1441
66.0953
71.1143
75.4728
78.8171
82.0631
85.0949
87.471
37.0049
43.6063
48.8058
52.7179
52.2215
52.3071
53.4629
55.7119
58.274
60.3516
61.7962
62.9545
63.9244
64.8325
65.7556
66.3859
66.5265
66.8898
67.3691
67.742
41.749
50.8747
57.9475
63.481
69.1224
74.8757
81.0632
80.1308
80.1318
80.6751
80.7003
80.6232
80.5753
80.6508
80.8653
80.8049
80.3245
80.0196
79.8519
79.5128
78.7955
41.6681
50.726
57.7295
63.236
68.8546
74.5839
80.7648
80.2991
81.2485
82.7214
83.5948
84.3113
85.0386
85.9035
86.8858
87.4849
87.6371
87.9351
88.3805
88.5228
88.1803
37.1086
43.8248
49.08
53.0965
53.0214
53.9786
56.0689
59.4836
63.2098
65.9645
67.4846
68.5151
69.2869
69.9642
70.6144
70.8809
70.6414
70.5613
70.5614
70.3666
69.8144
26.1415
30.4001
34.6969
38.3181
41.1039
41.2579
42.2079
43.9554
46.6248
49.3545
51.8061
54.131
56.4146
58.646
60.9383
63.4165
65.5508
67.0539
68.7298
70.4698
71.9717
72.8824
73.9412
22.8549
24.7665
25.3872
26.8814
28.3317
33.1554
35.2601
35.4907
37.002
38.9325
41.4021
44.8102
49.4612
55.3435
62.1363
69.3174
75.6293
80.63
84.942
88.7582