/*--------------------------------*- C++ -*----------------------------------*\
  =========                 |
  \\      /  F ield         | OpenFOAM: The Open Source CFD Toolbox
   \\    /   O peration     | Website:  https://openfoam.org
    \\  /    A nd           | Version:  13
     \\/     M anipulation  |
\*---------------------------------------------------------------------------*/
FoamFile
{
    format      ascii;
    class       volScalarField;
    location    "400";
    object      p;
}
// * * * * * * * * * * * * * * * * * * * * * * * * * * * * * * * * * * * * * //

dimensions      [0 2 -2 0 0 0 0];

internalField   nonuniform List<scalar> 
169916
(
11.5105
8.75871
5.45608
1.75136
-2.04308
-5.48147
-8.15044
-9.84439
-10.6184
-10.6253
-9.99763
-8.8474
-7.31851
-5.6192
12.8938
9.68168
5.60377
0.799503
-4.29058
-8.93067
-12.4888
-14.5081
-15.1451
-14.7108
-13.4326
-11.4876
-9.0763
-6.55203
14.9592
11.2976
6.26989
-0.0764897
-7.04634
-13.3423
-18.1106
-20.5944
-21.0651
-19.9826
-17.7106
-14.6193
-10.9359
-7.26761
-4.25521
-2.01787
-0.450909
0.576709
1.18177
1.47002
1.53421
1.45028
20.3839
18.017
14.0807
7.99629
-0.523773
-10.7702
-17.1933
-23.9867
-27.2695
-27.7889
-25.9563
-22.44
-17.3777
-11.9584
-6.99862
-3.44107
-0.97461
0.646693
1.61737
2.10577
2.25703
2.19141
1.99999
24.1556
22.4384
18.871
12.3113
1.61002
-9.94973
-24.4697
-36.4262
-41.9161
-41.2808
-36.2538
-29.0871
-20.8305
-12.9461
-5.09652
-1.82706
0.335831
1.70373
2.4441
2.69651
2.62024
2.35656
2.00788
28.5738
28.2256
26.3205
21.4869
10.646
-6.51463
-32.5344
-57.7172
-64.4138
-63.2352
-50.978
-35.2738
-22.4776
-10.644
-1.29207
1.2524
2.16046
2.57111
2.68268
2.52876
2.19765
1.78502
1.35792
0.966199
32.8586
34.2431
35.1497
31.2493
26.0354
10.2576
-17.648
-66.6
-90.7362
-127.2
-75.5519
-41.3691
-22.185
-8.81055
-3.43062
-1.39214
0.438499
1.37333
1.66036
1.54646
1.21091
0.790835
0.367307
-0.00718576
-0.28076
35.9342
38.4149
41.1108
41.1819
41.2993
35.8063
17.7499
-26.4563
-48.7017
-90.2163
-43.9639
-25.8113
-11.1963
-5.60183
-3.9215
-2.0186
-0.598444
0.144464
0.340028
0.199277
-0.0959594
-0.437359
-0.758269
-0.993898
37.2754
39.7604
42.3129
43.7996
44.4714
40.5586
30.6524
8.72216
-16.8426
-68.2764
-79.2066
-58.1032
-29.1026
-14.4932
-8.95372
-5.40052
-3.33496
-1.57735
-0.506304
-0.101087
-0.104789
-0.31409
-0.619339
-0.946919
-1.2232
-1.37141
37.1903
38.9523
40.3166
40.4826
39.9949
34.4485
23.5206
7.25859
-10.9717
-27.9027
-37.1524
-34.5498
-24.8349
-15.6603
-9.25715
-6.72002
-4.30738
-2.24031
-0.95299
-0.380281
-0.264616
-0.41348
-0.714056
-1.08316
-1.44364
-1.72002
36.3662
37.3311
37.6478
36.702
33.6643
28.1971
21.5804
10.5262
-1.14549
-12.6246
-20.5814
-22.3997
-17.1528
-13.414
-10.3592
-7.65559
-5.11688
-3.06642
-1.73479
-1.05334
-0.842679
-0.951117
-1.26731
-1.7009
-2.17186
-2.60768
35.3135
35.6334
35.2589
33.7819
30.7529
25.9789
19.356
11.4598
2.78942
-5.60512
-11.7503
-14.367
-14.1103
-12.0327
-9.64481
-7.31816
-5.22464
-3.5559
-2.43236
-1.83374
-1.65903
-1.79758
-2.15459
-2.65273
-3.22807
-3.82429
34.2996
34.1345
33.2998
31.5353
28.5939
24.3517
18.823
12.2113
5.01437
-1.86185
-7.14577
-9.98495
-10.5435
-9.66384
-8.22106
-6.65121
-5.17676
-3.96319
-3.12539
-2.6913
-2.61849
-2.83811
-3.28197
-3.89043
-4.61139
-5.39806
33.4405
32.9128
31.7485
29.791
26.9021
23.0121
18.1585
12.5198
6.51161
0.809926
-3.77642
-6.66347
-7.82441
-7.75831
-7.04614
-6.0854
-5.11754
-4.3089
-3.76997
-3.54646
-3.6285
-3.97745
-4.54829
-5.29631
-6.17892
-7.15465
32.7754
31.9688
30.5504
28.4293
25.5377
21.8583
17.4551
12.5108
7.3767
2.54868
-1.45835
-4.24964
-5.72693
-6.16057
-5.97802
-5.52224
-5.0145
-4.6025
-4.3838
-4.40753
-4.68092
-5.1886
-5.90692
-6.80576
-7.84767
32.3033
31.2765
29.6501
27.3734
24.4314
20.8632
16.7764
12.3633
7.91346
3.77087
0.248057
-2.39988
-4.05983
-4.86032
-5.10568
-5.0782
-4.97096
-4.91354
-4.99271
-5.25577
-5.7181
-6.38052
-7.23772
-8.27101
-9.44757
32.0032
30.8026
29.0011
26.5722
23.5446
20.0171
16.1466
12.1308
8.19645
4.56547
1.41848
-1.0921
-2.86583
-3.94537
-4.5294
-4.84323
-5.0587
-5.29273
-5.6224
-6.09084
-6.71684
-7.51054
-8.47948
-9.61557
-10.8928
30.5087
28.5609
25.986
22.8519
19.3171
15.5908
11.874
8.32956
5.07769
2.20859
-0.188612
-2.03412
-3.32537
-4.17678
-4.7572
-5.22002
-5.67688
-6.19964
-6.82788
-7.57926
-8.46732
-9.51002
-10.7132
-12.055
28.2858
25.5821
22.3375
18.7657
15.1266
11.6224
8.35703
5.3701
2.69096
0.370782
-1.52941
-2.98198
-4.03527
-4.80586
-5.43487
-6.03795
-6.68681
-7.41822
-8.24818
-9.19309
-10.2812
-11.5276
-12.9101
28.1321
25.3324
21.9967
18.3815
14.787
11.4163
8.33019
5.51276
2.95387
0.680049
-1.26043
-2.82376
-4.01006
-4.89491
-5.61441
-6.29552
-7.01445
-7.80591
-8.68371
-9.66552
-10.7845
-12.0589
-13.4666
25.2034
21.8169
18.1743
14.5978
11.2911
8.29268
5.559
3.06112
0.811487
-1.14855
-2.76651
-4.01717
-4.95467
-5.71414
-6.4306
-7.18286
-8.00358
-8.90476
-9.90465
-11.0381
-12.3248
-13.7436
25.1914
21.8033
18.1599
14.5835
11.2772
8.27906
5.5457
3.04872
0.800622
-1.15747
-2.77353
-4.02263
-4.9589
-5.71715
-6.4324
-7.18374
-8.00395
-8.90501
-9.90506
-11.0389
-12.3266
-13.7465
25.2971
21.9568
18.3386
14.7431
11.3725
8.28655
5.46997
2.91377
0.644366
-1.29045
-2.84799
-4.02945
-4.91043
-5.62622
-6.3037
-7.0198
-7.8097
-8.6872
-9.66978
-10.7904
-12.0676
-13.4795
-14.9889
25.5265
22.2747
18.6976
15.0555
11.5501
8.28504
5.3005
2.62667
0.31357
-1.57826
-3.02223
-4.06783
-4.83196
-5.45483
-6.05184
-6.69588
-7.42459
-8.25401
-9.20036
-10.2916
-11.5429
-12.9322
-14.4234
25.9139
22.7705
19.2278
15.4957
11.7755
8.2309
4.98364
2.12418
-0.261487
-2.09593
-3.37723
-4.21996
-4.79311
-5.24911
-5.69922
-6.21681
-6.84268
-7.59431
-8.48481
-9.53229
-10.7423
-12.0932
-13.5519
26.4871
23.4486
19.9109
16.0319
12.0104
8.07455
4.44853
1.31394
-1.18087
-2.93967
-4.0065
-4.57954
-4.8843
-5.09209
-5.31921
-5.64411
-6.11165
-6.73988
-7.5376
-8.5128
-9.65802
-10.9466
-12.3495
24.3263
20.7473
16.6509
12.2305
7.7768
3.63636
0.124758
-2.50745
-4.15212
-4.93785
-5.16829
-5.12793
-5.01189
-4.94934
-5.02698
-5.29299
-5.7614
-6.43094
-7.29603
-8.33939
-9.52858
-10.8327
-12.2257
25.4279
21.7383
17.3259
12.3759
7.23451
2.40227
-1.59741
-4.3755
-5.8397
-6.25613
-6.05118
-5.57412
-5.0529
-4.63643
-4.41972
-4.44999
-4.73285
-5.25099
-5.98
-6.89018
-7.94551
-9.10735
-10.3413
26.7913
22.8924
18.0313
12.3943
6.37073
0.63976
-3.95097
-6.82753
-7.97643
-7.88753
-7.13962
-6.1445
-5.1579
-4.34784
-3.81837
-3.60855
-3.70524
-4.06812
-4.65164
-5.41151
-6.30583
-7.29497
-8.33312
28.4856
24.2354
18.6975
12.0994
4.90455
-2.05103
-7.37279
-10.22
-10.7715
-9.85161
-8.33734
-6.69989
-5.1897
-3.97319
-3.15197
-2.74126
-2.69258
-2.93426
-3.39745
-4.02278
-4.75913
-5.56087
-6.38491
2.5762
-5.88456
-12.0558
-14.7005
-14.4667
-12.3314
-9.81982
-7.38827
-5.24608
-3.57479
-2.47194
-1.90025
-1.7518
-1.91389
-2.29158
-2.80794
-3.39998
-4.01296
-4.5974
1.71866
-8.35525
-15.7899
-18.6493
-17.7719
-13.8857
-10.5396
-7.63439
-5.02253
-2.99176
-1.71764
-1.09627
-0.937553
-1.08949
-1.44213
-1.90654
-2.40503
-2.86804
-3.23321
-19.0532
-27.8002
-28.4539
-22.6264
-16.1391
-9.80829
-6.90612
-4.29071
-2.20375
-0.980282
-0.484361
-0.438442
-0.647548
-0.997769
-1.40645
-1.79898
-2.10449
-2.2547
-47.3256
-44.9717
-28.7362
-16.2485
-10.1124
-5.51201
-3.19688
-1.42776
-0.440538
-0.121658
-0.201612
-0.4808
-0.846944
-1.22536
-1.54522
-1.7335
-1.71662
-66.8955
-31.0441
-13.6693
-7.78828
-4.07682
-1.77961
-0.333251
0.299298
0.398313
0.183998
-0.179728
-0.583303
-0.957647
-1.24103
-1.36712
-1.26736
-26.0351
-9.82485
-4.03513
-1.56895
0.527621
1.55358
1.80498
1.63696
1.24706
0.768226
0.286353
-0.142215
-0.466556
-0.632565
-0.584859
-1.54174
1.25259
2.30105
2.71046
2.76834
2.55612
2.16836
1.69998
1.22021
0.780209
0.425593
0.200425
0.146701
11.4814
8.6876
5.32339
1.55453
-2.257
-5.61416
-8.12047
-9.66862
-10.384
-10.4311
-9.90919
-8.8749
-7.4191
-5.72562
12.854
9.55964
5.34438
0.375481
-4.78525
-9.32626
-12.5035
-14.1906
-14.7119
-14.3921
-13.3667
-11.6615
-9.37913
-6.82
14.9272
11.1155
5.79743
-0.879215
-8.00172
-14.1984
-18.2178
-20.042
-20.2911
-19.4944
-17.7866
-15.0988
-11.6721
-7.91018
-4.5929
-2.11192
-0.438548
0.618611
1.22491
1.50297
1.55258
1.45277
20.4919
18.058
13.8703
7.23336
-2.1416
-9.20646
-18.5163
-24.1099
-26.4978
-26.5922
-25.231
-22.6546
-18.5651
-13.176
-8.06007
-3.88519
-1.01045
0.758503
1.76553
2.24291
2.36083
2.25555
2.0271
24.4483
22.7343
18.8786
11.5554
1.53945
-13.3903
-28.8909
-38.4997
-40.1211
-38.3497
-35.2304
-30.4924
-23.2877
-14.428
-6.41077
-1.83086
0.673276
2.00675
2.69295
2.91038
2.79977
2.50057
2.11667
29.1814
29.0891
27.3699
20.1512
8.79192
-16.0319
-40.1717
-61.9711
-65.2233
-55.7907
-45.2344
-39.4972
-26.7744
-12.031
-3.63004
2.49073
3.73156
3.85044
3.56719
3.08078
2.51461
1.94045
1.39836
0.925248
33.7958
35.7725
34.1069
34.3323
26.5669
6.04658
-44.4678
-28.1287
-7.17937
-0.0309014
0.221156
0.562357
1.72763
1.83695
1.43892
0.924413
0.406634
-0.0810793
-0.500299
-0.798888
37.0187
40.2689
41.3185
45.7873
43.0604
37.1005
-9.24603
-5.14409
-4.61654
-2.83279
-0.660234
0.0793726
0.0905137
-0.15268
-0.496069
-0.869947
-1.21788
-1.47072
38.2515
41.4228
45.1534
47.4887
48.6383
45.4314
21.4781
-47.8507
-16.4776
-10.459
-8.71496
-4.6737
-2.06313
-0.869869
-0.554428
-0.629008
-0.868805
-1.18878
-1.52328
-1.79428
-1.92343
37.9345
40.1194
42.0474
43.0991
42.233
34.695
23.9542
7.15591
-10.8008
-25.6372
-38.4055
-44.7692
-29.4034
-17.1193
-12.0365
-8.59472
-5.21621
-2.5536
-1.10463
-0.544879
-0.473267
-0.664652
-1.0065
-1.4152
-1.81168
-2.11518
36.8994
38.0956
38.6593
37.8191
36.2995
30.5316
22.1729
11.6857
0.174625
-12.2713
-21.4801
-24.3302
-21.4771
-16.2081
-11.6922
-8.69272
-5.52896
-3.05706
-1.56744
-0.868364
-0.703123
-0.884717
-1.28191
-1.7928
-2.33132
-2.82073
35.7059
36.1593
35.9142
34.5017
31.3797
26.6404
20.2676
12.3818
3.30913
-6.13634
-12.9044
-15.781
-15.271
-12.9796
-10.443
-7.76913
-5.315
-3.41462
-2.19269
-1.57844
-1.43061
-1.61352
-2.01902
-2.56704
-3.19609
-3.85085
34.6162
34.5342
33.7815
32.0775
29.155
24.9337
19.4529
12.7188
5.14248
-2.39433
-8.12178
-11.1059
-11.4483
-10.3592
-8.69379
-6.87212
-5.18889
-3.83491
-2.92255
-2.4644
-2.39941
-2.64458
-3.12339
-3.77323
-4.54314
-5.38801
33.7272
33.253
32.1402
30.2238
27.3574
23.4692
18.5671
12.7309
6.33864
0.213637
-4.65605
-7.56703
-8.50513
-8.18633
-7.26843
-6.14484
-5.05515
-4.16379
-3.58007
-3.34414
-3.43662
-3.81162
-4.41914
-5.21164
-6.14637
-7.18283
33.0624
32.2887
30.8941
28.7815
25.8799
22.1623
17.6601
12.5154
7.11198
2.05612
-2.11974
-4.94114
-6.25659
-6.45782
-6.10028
-5.52752
-4.94002
-4.47787
-4.23606
-4.25931
-4.54874
-5.08532
-5.84433
-6.79452
-7.89379
32.6113
31.6013
29.9699
27.6601
24.6589
21.0063
16.8021
12.2399
7.64916
3.41122
-0.223088
-2.92294
-4.48384
-5.0924
-5.18501
-5.06201
-4.89869
-4.81398
-4.88853
-5.16405
-5.64988
-6.34338
-7.24422
-8.33285
-9.57084
32.3475
31.1505
29.3134
26.8036
23.6608
20.005
16.0104
11.894
7.9058
4.25716
1.06966
-1.47776
-3.20041
-4.14881
-4.61211
-4.852
-5.03159
-5.2549
-5.59235
-6.08037
-6.72914
-7.54939
-8.55878
-9.75015
-11.0868
30.8922
28.8779
26.1702
22.8603
19.1568
15.3115
11.5464
8.01459
4.79525
1.9288
-0.487155
-2.31355
-3.53021
-4.29609
-4.81705
-5.25197
-5.70551
-6.24284
-6.89428
-7.6633
-8.56371
-9.63343
-10.8847
-12.2772
28.6143
25.729
22.2476
18.4684
14.7219
11.2158
8.00944
5.08434
2.4351
0.11067
-1.79543
-3.22345
-4.22131
-4.93365
-5.52806
-6.12243
-6.77998
-7.52713
-8.36297
-9.30485
-10.4096
-11.6999
-13.1284
28.4743
25.4548
21.8323
17.9765
14.2818
10.9425
7.94839
5.21493
2.70246
0.42967
-1.53768
-3.11499
-4.26475
-5.07812
-5.74321
-6.40351
-7.12475
-7.92774
-8.80636
-9.7787
-10.9092
-12.2245
-13.6758
25.3113
21.6114
17.7102
14.0361
10.7781
7.88896
5.25334
2.81133
0.564175
-1.43501
-3.08525
-4.3062
-5.16245
-5.8561
-6.54633
-7.29894
-8.12946
-9.02901
-10.0167
-11.1593
-12.4852
-13.946
25.2982
21.5966
17.6951
14.0221
10.765
7.87582
5.24007
2.79879
0.553256
-1.4437
-3.09169
-4.31117
-5.16625
-5.85844
-6.54718
-7.29865
-8.12846
-9.02764
-10.0153
-11.1584
-12.4852
-13.9474
25.4168
21.7888
17.9307
14.2366
10.8983
7.9038
5.17034
2.6605
0.392529
-1.56784
-3.138
-4.28289
-5.09255
-5.75326
-6.40902
-7.12677
-7.92778
-8.80577
-9.77856
-10.9106
-12.2289
-13.6845
-15.2346
25.6699
22.1804
18.3961
14.6478
11.1413
7.93483
5.01183
2.3683
0.0506395
-1.84543
-3.26217
-4.25171
-4.95761
-5.54484
-6.13151
-6.78305
-7.52705
-8.36231
-9.30547
-10.413
-11.7081
-13.1438
-14.6791
26.0944
22.7742
19.0623
15.2109
11.4421
7.91053
4.69829
1.8454
-0.559459
-2.37424
-3.57915
-4.3366
-4.85116
-5.27862
-5.72338
-6.25385
-6.9024
-7.6714
-8.57405
-9.64809
-10.9058
-12.3075
-13.8187
26.7147
23.5595
19.8923
15.8877
11.7643
7.77517
4.13514
0.966581
-1.56025
-3.2659
-4.20154
-4.65588
-4.88886
-5.0614
-5.27607
-5.60685
-6.09418
-6.74544
-7.56933
-8.58481
-9.78496
-11.1333
-12.6034
24.549
20.8841
16.6682
12.0973
7.50276
3.27045
-0.342705
-3.01952
-4.564
-5.15934
-5.24022
-5.10721
-4.93758
-4.84798
-4.91935
-5.19865
-5.69162
-6.39216
-7.30012
-8.39784
-9.64761
-11.0273
-12.5234
25.7656
22.0361
17.5234
12.3767
6.96557
1.90773
-2.24771
-5.04987
-6.35542
-6.5411
-6.16262
-5.57099
-4.97334
-4.50876
-4.26964
-4.30091
-4.60114
-5.14896
-5.91852
-6.87947
-7.99135
-9.21928
-10.5409
27.2412
23.3419
18.4323
12.6174
6.19008
0.0559311
-4.78883
-7.69371
-8.6355
-8.2986
-7.34835
-6.19546
-5.0932
-4.20605
-3.6353
-3.41485
-3.52263
-3.91116
-4.53001
-5.33226
-6.2763
-7.32387
-8.42735
29.0378
24.8025
19.3005
12.6454
4.98487
-2.58682
-8.29385
-11.2992
-11.6507
-10.517
-8.77807
-6.89284
-5.18398
-3.83877
-2.95262
-2.52441
-2.48704
-2.75505
-3.25205
-3.91623
-4.69816
-5.55444
-6.43627
3.11266
-6.38111
-13.1353
-16.0426
-15.5973
-13.2619
-10.5983
-7.82739
-5.33939
-3.44876
-2.25205
-1.66458
-1.54125
-1.74549
-2.16933
-2.73274
-3.37574
-4.04431
-4.68335
2.63062
-8.39895
-16.6592
-19.9626
-19.0349
-15.6159
-11.7458
-8.56142
-5.40335
-3.01081
-1.60579
-0.974293
-0.85968
-1.07992
-1.50766
-2.04352
-2.60441
-3.11687
-3.51312
-18.0479
-28.4461
-31.158
-26.2181
-17.7398
-12.5209
-8.61269
-5.06841
-2.46809
-1.14256
-0.689534
-0.69961
-0.95315
-1.34086
-1.78249
-2.20285
-2.5283
-2.68379
-42.0302
-62.4551
-55.0059
-36.6594
-16.6841
-12.1373
-8.81391
-4.43241
-1.82412
-0.745919
-0.542307
-0.713134
-1.03493
-1.421
-1.80851
-2.12407
-2.29241
-2.23865
-61.1413
-14.4119
-9.26228
-6.89678
-2.37907
-0.27256
0.335254
0.232763
-0.114085
-0.544662
-0.988095
-1.39195
-1.6918
-1.81896
-1.7039
-7.70672
-1.60733
-1.26
0.846534
2.01372
2.0805
1.61943
1.03361
0.446265
-0.104008
-0.579471
-0.929619
-1.09992
-1.03429
-0.85088
2.5065
3.88076
4.01009
3.67545
3.12208
2.48824
1.85108
1.25313
0.730984
0.324302
0.0742654
0.0213084
13.6684
11.4288
8.55973
5.08425
1.21213
-2.58698
-5.7539
-7.97295
-9.28127
-9.90381
-10.0188
-9.67667
-8.85586
-7.54784
-5.88501
15.2776
12.7748
9.32325
4.84828
-0.382572
-5.60691
-9.7564
-12.3064
-13.4776
-13.8325
-13.7037
-13.1031
-11.8565
-9.83867
-7.29386
17.5264
14.8453
10.7262
4.88692
-2.38853
-9.7074
-15.1579
-17.9897
-18.7848
-18.7215
-18.3595
-17.582
-15.8455
-12.7849
-8.99035
-5.28292
-2.43124
-0.551122
0.583976
1.20889
1.48359
1.52117
1.40571
20.6643
18.08
13.3664
5.70968
-1.80001
-12.6356
-20.2237
-23.8395
-24.4732
-24.0104
-23.4975
-22.6367
-20.2542
-15.6794
-9.8911
-5.03222
-1.59617
0.447046
1.57551
2.10741
2.24748
2.14869
1.91841
24.9554
23.2081
18.8344
10.7022
-3.03426
-22.1678
-35.1585
-38.3097
-34.7409
-31.7881
-31.0927
-31.168
-27.9896
-20.0263
-10.4983
-3.47945
0.0718988
1.65905
2.38305
2.60908
2.51151
2.23309
1.87337
30.271
30.7093
26.3595
20.6957
-1.13855
-33.5932
-61.8422
-68.3917
-51.565
-38.146
-41.6008
-44.2642
-37.2425
-22.4742
-8.07447
-1.29246
2.43851
3.49179
3.42584
2.94124
2.35748
1.77274
1.21746
0.727578
35.4951
38.8872
38.4892
39.127
26.8773
-27.0337
-3.13497
-1.0761
-1.16384
1.57853
1.9911
1.45087
0.856575
0.352647
-0.1056
-0.510276
-0.805034
38.969
43.9907
47.491
55.2269
57.8645
-12.8047
-10.8432
-5.5299
-1.65558
-0.48709
-0.650753
-1.07052
-1.42077
-1.7332
-2.00321
-2.1648
39.9374
44.3407
48.3247
55.8276
60.5679
-32.3237
-19.4606
-13.0467
-6.38175
-2.6232
-1.14493
-0.916622
-1.10567
-1.4123
-1.79196
-2.19184
-2.5116
-2.66268
39.2188
42.1307
44.9492
47.6264
44.6482
34.1813
17.6618
9.23943
0.191087
-21.4361
-40.0449
-42.8781
-39.6756
-23.0573
-16.8649
-10.5867
-5.92312
-2.76546
-1.2278
-0.69761
-0.659461
-0.873531
-1.23926
-1.68047
-2.13141
-2.50525
37.8223
39.4239
40.3913
39.6892
38.0705
30.7682
23.115
15.6621
4.12629
-12.973
-23.4034
-26.3347
-24.453
-19.4388
-13.8701
-9.74383
-5.63136
-2.66037
-0.986076
-0.295099
-0.254636
-0.602953
-1.16133
-1.8068
-2.45133
-3.02252
36.3957
37.0875
37.0719
35.7862
32.6957
28.1918
22.6152
16.0143
6.06807
-6.90199
-15.4791
-17.7075
-17.301
-14.8629
-11.7321
-8.29699
-5.19446
-2.90239
-1.51042
-0.878012
-0.798616
-1.08041
-1.58586
-2.23389
-2.97346
-3.75255
35.1881
35.2619
34.6696
33.1081
30.3249
26.3175
21.2087
15.3233
6.79455
-2.69502
-9.82648
-12.7343
-12.8756
-11.5511
-9.37385
-7.02667
-4.94844
-3.35696
-2.33785
-1.86069
-1.82796
-2.13084
-2.679
-3.40677
-4.26962
34.2642
33.8962
32.8928
31.0836
28.3245
24.542
19.6201
13.4313
6.12139
-0.874095
-6.38822
-9.21465
-9.74813
-9.01591
-7.64506
-6.14428
-4.79752
-3.75224
-3.09358
-2.83959
-2.95397
-3.38038
-4.05959
-4.93717
-5.97367
33.6204
32.9187
31.5818
29.5073
26.6261
22.8904
18.2075
12.7068
6.73682
1.22317
-3.41566
-6.32936
-7.32148
-7.05765
-6.31469
-5.46352
-4.69467
-4.12995
-3.84532
-3.86871
-4.18917
-4.78952
-5.63672
-6.69059
-7.90358
33.232
32.2667
30.6358
28.2729
25.1708
21.3677
16.9201
12.0287
7.16508
2.80616
-1.06157
-3.91604
-5.28292
-5.48912
-5.27267
-4.94994
-4.67384
-4.54481
-4.62385
-4.92813
-5.45796
-6.22915
-7.23785
-8.4512
-9.81677
33.065
31.8885
29.9892
27.319
23.9411
20.0255
15.7583
11.4035
7.33402
3.73211
0.461193
-2.23327
-3.85484
-4.49541
-4.69805
-4.78991
-4.90993
-5.13515
-5.51101
-6.0529
-6.75024
-7.63065
-8.73533
-10.0516
-11.4999
31.7271
29.5868
26.5962
22.902
18.8474
14.749
10.883
7.41166
4.31268
1.44688
-1.05183
-2.85422
-3.89664
-4.47859
-4.88719
-5.28314
-5.75315
-6.34292
-7.0585
-7.85671
-8.7628
-9.88303
-11.2389
-12.7174
29.3724
26.086
22.0597
17.8287
13.8912
10.4284
7.39339
4.6036
2.00582
-0.360371
-2.31553
-3.70782
-4.58721
-5.17565
-5.70435
-6.28653
-6.96898
-7.75867
-8.59362
-9.50077
-10.6327
-12.0237
-13.5325
29.2803
25.7668
21.4644
17.0735
13.2255
10.0334
7.28945
4.7264
2.29438
-0.010031
-2.08992
-3.75093
-4.82104
-5.45165
-5.98833
-6.59859
-7.32588
-8.16398
-9.03398
-9.95901
-11.1085
-12.5215
-14.0494
25.5964
21.1458
16.6621
12.8485
9.78967
7.18926
4.77155
2.43542
0.161812
-1.99918
-3.80156
-4.96333
-5.60409
-6.13714
-6.76108
-7.51197
-8.37026
-9.25254
-10.1863
-11.3442
-12.7629
-14.2967
25.5808
21.128
16.6459
12.8362
9.77901
7.17705
4.75793
2.42233
0.150601
-2.00733
-3.80698
-4.9681
-5.60798
-6.13914
-6.76148
-7.51136
-8.36854
-9.24951
-10.1828
-11.3414
-12.7613
-14.2964
25.7221
21.4114
17.0209
13.1791
9.98987
7.24229
4.67677
2.24737
-0.0510719
-2.12055
-3.77184
-4.83906
-5.46651
-5.9971
-6.6018
-7.32545
-8.16092
-9.02902
-9.95363
-11.1045
-12.5204
-14.0528
-15.6515
26.0189
21.9815
17.7472
13.8116
10.3501
7.3123
4.52266
1.93304
-0.428523
-2.36978
-3.74508
-4.61641
-5.19873
-5.71746
-6.28789
-6.96204
-7.748
-8.58218
-9.48943
-10.6234
-12.0197
-13.537
-15.128
26.5125
22.8052
18.742
14.6358
10.7651
7.29337
4.20611
1.37515
-1.11987
-2.91397
-3.9419
-4.51848
-4.9233
-5.30926
-5.76409
-6.34257
-7.05328
-7.85026
-8.75686
-9.87995
-11.2417
-12.7308
-14.3162
27.2218
23.8281
19.8992
15.6165
11.2485
7.17844
3.5963
0.361785
-2.30211
-3.90325
-4.53164
-4.73282
-4.82374
-4.9376
-5.14772
-5.5113
-6.05198
-6.75049
-7.6342
-8.74515
-10.0697
-11.5313
-13.1241
25.0514
21.2325
16.7649
11.8558
6.98951
2.64632
-1.18251
-4.0019
-5.34886
-5.53873
-5.31789
-4.99171
-4.71652
-4.58137
-4.64853
-4.95477
-5.48887
-6.26589
-7.28163
-8.50325
-9.87982
-11.4359
-13.1931
26.5032
22.7511
18.0497
12.5453
6.58317
1.06752
-3.52559
-6.41363
-7.39908
-7.12222
-6.36317
-5.49801
-4.72549
-4.15881
-3.87482
-3.90463
-4.23426
-4.8458
-5.70348
-6.76794
-7.99088
-9.38431
-10.9437
28.198
24.396
19.4502
13.3361
5.92405
-1.06529
-6.47861
-9.2948
-9.86199
-9.121
-7.72315
-6.19683
-4.84176
-3.80126
-3.15331
-2.91206
-3.0388
-3.47618
-4.16358
-5.04782
-6.09049
-7.26865
-8.5322
30.1913
26.1418
20.8805
14.3197
6.84743
-1.62615
-7.87407
-12.8601
-13.034
-11.6584
-9.41793
-7.02621
-4.94116
-3.37045
-2.3802
-1.93192
-1.92496
-2.24819
-2.81084
-3.54817
-4.41869
-5.39053
-6.40359
6.15429
-5.01084
-12.7783
-17.9305
-17.633
-15.0848
-11.7539
-8.23175
-5.13478
-2.88282
-1.52971
-0.931091
-0.883395
-1.19428
-1.72473
-2.39368
-3.15141
-3.94601
-4.7101
5.29403
-9.99911
-19.2617
-21.7608
-21.3569
-17.8159
-13.7109
-9.4029
-5.38879
-2.58236
-1.04372
-0.446324
-0.469689
-0.861833
-1.45035
-2.11894
-2.78381
-3.37564
-3.8245
-14.0819
-29.879
-31.0053
-29.4769
-21.3278
-15.6534
-10.1153
-5.39842
-2.46872
-1.17743
-0.844077
-0.945502
-1.25248
-1.67766
-2.15407
-2.61759
-3.00003
-3.21665
-46.4983
-64.4434
-46.755
-24.0692
-19.6427
-12.0866
-5.93656
-2.1995
-0.87551
-0.831441
-1.1746
-1.5972
-2.0594
-2.51998
-2.89189
-3.08495
-3.0193
-19.7042
-12.8749
-5.15035
-1.41449
-0.314988
-0.572331
-1.09647
-1.53784
-1.92219
-2.25031
-2.46085
-2.48402
-2.25253
-10.068
-5.65565
-0.713685
2.006
2.36399
1.73562
1.02987
0.420392
-0.125065
-0.600869
-0.954832
-1.1251
-1.04775
-4.3073
-1.02429
2.65845
3.72735
3.62609
3.07293
2.41077
1.75215
1.13243
0.58624
0.159883
-0.0977707
-0.138886
13.6543
11.3752
8.42416
4.82256
0.872387
-2.84555
-5.76163
-7.65942
-8.71598
-9.2492
-9.43732
-9.28597
-8.70958
-7.60415
-6.01503
15.2661
12.682
9.0399
4.26124
-1.20797
-6.31418
-9.9564
-11.8514
-12.5105
-12.7242
-12.7648
-12.5461
-11.8146
-10.2079
-7.74514
17.5572
14.7366
10.2486
3.72642
-4.02787
-11.2271
-15.7542
-17.4098
-17.2083
-16.9724
-17.0057
-17.0057
-16.373
-14.04
-10.0809
-5.97401
-2.69644
-0.525942
0.74464
1.41047
1.68488
1.70447
1.56162
20.842
18.0891
12.8813
5.85341
-5.12269
-15.5428
-21.6089
-23.7113
-21.5297
-20.6453
-21.0485
-21.2866
-21.5574
-18.6438
-12.7761
-6.15918
-2.07666
0.392425
1.72579
2.33219
2.49237
2.38932
2.14116
25.5
23.83
18.1368
8.73432
-10.7667
-31.5557
-38.8383
-33.5304
-27.4471
-24.8198
-24.828
-28.9202
-32.9081
-28.1587
-16.3793
-6.71947
-0.324185
1.9476
2.88565
3.13507
3.01844
2.71374
2.32387
31.4057
32.5131
28.4359
17.2808
-13.1823
-63.2203
-81.6924
-50.8034
-21.4899
-19.6709
-18.4753
-38.2942
-59.0306
-39.4144
-17.2195
-5.30686
1.65939
3.95802
4.28655
3.84958
3.23378
2.61167
2.01295
1.46935
37.2295
38.2515
44.5534
41.317
19.9533
-13.9377
-4.49418
-0.446989
2.67214
3.28074
2.53662
1.68737
1.00996
0.429511
-0.0711143
-0.436737
41.0294
44.9981
56.1082
66.2817
-19.7801
-14.1893
-6.90181
-1.54702
0.527726
0.272359
-0.384324
-0.926125
-1.42469
-1.88825
-2.22102
41.7634
46.182
55.9341
66.0182
66.7
-20.8577
-15.1592
-8.49903
-2.70166
-0.721233
-0.518029
-0.772698
-1.07767
-1.44927
-1.87637
-2.27361
-2.52773
40.689
44.4924
48.946
52.1677
47.3915
25.1991
16.4796
25.0389
15.2992
-40.3562
-30.7777
-35.621
-34.8057
-24.3544
-19.8558
-13.8258
-5.62511
-2.24152
-0.873173
-0.588716
-0.760832
-1.12698
-1.59643
-2.08923
-2.55311
-2.9215
38.8946
40.9732
42.3635
43.2807
38.8217
31.399
27.3143
24.8645
12.3125
-17.9509
-26.794
-29.0427
-27.9465
-23.3237
-17.4603
-9.5669
-4.74552
-1.5349
0.266531
0.889046
0.644387
-0.0805751
-1.01593
-1.98773
-2.88681
-3.65658
37.225
38.2033
38.4421
37.2101
34.4784
30.8233
27.1217
22.5443
10.0311
-13.274
-21.7484
-22.4519
-19.3958
-16.5844
-12.3369
-8.09304
-4.36226
-1.69168
-0.112371
0.514796
0.446268
-0.0408082
-0.753999
-1.61891
-2.6146
-3.6832
35.9137
36.1862
35.8036
34.446
31.9834
28.6095
25.0219
19.2525
7.16802
-7.11038
-15.5536
-15.4899
-14.7923
-13.1163
-10.167
-7.03271
-4.38221
-2.45051
-1.27118
-0.754054
-0.758007
-1.14298
-1.79553
-2.64408
-3.66106
34.9879
34.7662
33.9196
32.2923
29.7983
26.4393
22.8618
16.5723
7.10476
-1.77554
-9.31438
-11.6227
-10.7726
-9.84264
-8.0014
-6.02415
-4.31467
-3.04505
-2.27871
-1.99591
-2.13631
-2.63496
-3.41043
-4.39612
-5.55084
34.4167
33.823
32.576
30.5825
27.814
24.2297
20.5906
14.6243
7.52047
1.20307
-4.89436
-8.43648
-8.31429
-7.6023
-6.47069
-5.28495
-4.27263
-3.57327
-3.2395
-3.26992
-3.62305
-4.31412
-5.29755
-6.51097
-7.74219
34.1632
33.272
31.6459
29.2135
25.9937
22.0043
17.1889
11.6182
6.51938
2.80574
-1.89154
-5.46819
-6.19035
-5.81559
-5.1935
-4.60305
-4.17816
-4.02085
-4.15135
-4.55627
-5.05739
-5.91316
-7.10332
-8.53542
-10.0422
34.1814
33.0474
31.0527
28.1202
24.3703
20.0465
15.383
10.5753
6.4722
3.10046
-0.362139
-3.50505
-4.80398
-4.87862
-4.68709
-4.56556
-4.56833
-4.81618
-5.29286
-5.96436
-6.70127
-7.67056
-8.96858
-10.5436
-12.1411
33.0798
30.7381
27.25
22.8721
18.2238
13.7901
9.81443
6.54582
3.7573
0.883171
-1.87683
-3.63238
-4.33159
-4.62093
-4.87325
-5.21392
-5.74385
-6.47794
-7.36409
-8.19723
-9.08757
-10.3198
-11.9021
30.6381
26.6216
21.546
16.4694
12.3122
9.07471
6.53941
4.06227
1.57869
-0.932762
-3.04033
-4.40282
-5.09142
-5.51057
-5.97228
-6.55568
-7.31336
-8.23327
-9.02639
-9.82795
-11.0281
-12.6326
30.6504
26.2218
20.5692
15.1534
11.1727
8.43752
6.36122
4.17682
1.91604
-0.487556
-2.86182
-4.80294
-5.70128
-6.01405
-6.38137
-6.92812
-7.69526
-8.64454
-9.44424
-10.2328
-11.44
-13.0623
26.0038
20.0533
14.4357
10.5266
8.0314
6.10595
4.17547
2.07779
-0.235021
-2.73978
-4.9729
-5.98638
-6.24575
-6.56555
-7.10664
-7.89236
-8.85126
-9.6514
-10.4404
-11.6533
-13.2747
-14.8475
25.9834
20.0294
14.4188
10.5211
8.02829
6.0951
4.15938
2.06168
-0.248584
-2.7456
-4.97442
-5.98972
-6.2476
-6.56267
-7.10052
-7.88595
-8.84335
-9.64087
-10.4304
-11.6451
-13.2679
-14.8403
26.1657
20.4958
15.0884
11.1301
8.40299
6.30929
4.11526
1.85532
-0.539536
-2.88899
-4.81512
-5.71788
-6.02497
-6.37842
-6.91457
-7.67853
-8.62431
-9.42219
-10.2118
-11.4213
-13.0454
-14.618
26.5412
21.4464
16.3727
12.2271
8.99628
6.44631
3.96091
1.48143
-1.02138
-3.09381
-4.42995
-5.11504
-5.52828
-5.97292
-6.53537
-7.28231
-8.1979
-8.99165
-9.79118
-10.9908
-12.5985
-14.163
-15.734
27.1533
22.7563
18.1011
13.6553
9.67369
6.3933
3.61022
0.804877
-1.94892
-3.68124
-4.36002
-4.65521
-4.91231
-5.23834
-5.74006
-6.45769
-7.33707
-8.16682
-9.05321
-10.2854
-11.8696
-13.4381
-15.056
28.0078
24.2357
19.9016
15.2082
10.3692
6.25968
2.92736
-0.452264
-3.54038
-4.81479
-4.8736
-4.70529
-4.59718
-4.59179
-4.80257
-5.26622
-5.94053
-6.67249
-7.64309
-8.94589
-10.5275
-12.1441
-13.8979
25.8622
21.8532
16.9981
11.3722
6.2616
3.09524
-0.868965
-4.23561
-6.23525
-5.83904
-5.21794
-4.63227
-4.23101
-4.04611
-4.17984
-4.60288
-5.089
-5.94071
-7.13328
-8.57002
-10.0856
-11.9284
-14.2139
27.6839
24.0801
19.1543
13.4344
7.30163
1.94186
-3.3154
-6.98491
-8.3367
-7.61324
-6.47454
-5.29033
-4.29914
-3.59834
-3.27668
-3.31859
-3.67793
-4.37981
-5.37354
-6.60487
-7.83244
-9.43445
-11.4325
29.6684
26.2905
21.4014
15.1798
7.05876
-0.307636
-7.019
-10.1808
-10.834
-9.91685
-8.07043
-6.08904
-4.39164
-3.13694
-2.38625
-2.11636
-2.26739
-2.77094
-3.54624
-4.52819
-5.67639
-7.02999
-8.52928
31.8496
28.4493
23.6597
17.4944
7.03244
-4.47546
-12.4162
-13.6164
-14.7376
-12.9911
-10.0347
-6.9381
-4.35297
-2.49093
-1.36484
-0.885512
-0.915884
-1.31503
-1.96898
-2.81252
-3.82347
-4.98996
-6.23339
8.18513
-7.524
-18.3298
-18.4759
-19.9863
-16.8839
-12.4027
-8.07457
-4.41425
-1.82618
-0.290468
0.315234
0.232129
-0.264719
-0.977978
-1.84106
-2.83795
-3.90516
-4.94168
11.7825
-14.6624
-21.1739
-25.0623
-24.6526
-21.286
-15.5359
-9.50234
-4.89151
-1.87422
-0.182768
0.405234
0.165896
-0.534735
-1.43801
-2.38768
-3.28106
-4.04515
-4.59934
-21.0802
-33.5378
-31.917
-30.2728
-24.4864
-18.5503
-12.0677
-5.6097
-2.50694
-1.3502
-1.23049
-1.50062
-1.90093
-2.37123
-2.84813
-3.2726
-3.59687
-3.76191
-52.7677
-25.7521
-36.0035
-37.141
-25.7736
-22.4347
-14.555
-8.04937
-2.76961
-0.926971
-0.884024
-1.2658
-1.64645
-2.05046
-2.47887
-2.86288
-3.10768
-3.11984
-21.4769
-14.2827
-7.99884
-1.55281
0.520714
0.20941
-0.530772
-1.14105
-1.68535
-2.18419
-2.55741
-2.71752
-2.59313
-19.0856
-9.19665
-3.63568
2.75961
3.29398
2.44939
1.49706
0.734968
0.0962977
-0.444845
-0.842075
-1.03393
-0.957228
-14.3055
-3.73074
1.80237
4.05068
4.31706
3.80709
3.11967
2.43601
1.7876
1.20296
0.73215
0.429963
0.349969
13.6451
11.347
8.35078
4.68349
0.710034
-2.90168
-5.58353
-7.18613
-8.0295
-8.50315
-8.7544
-8.74938
-8.37222
-7.46751
-5.98976
15.2467
12.6058
8.84112
3.87174
-1.7315
-6.68254
-9.89016
-11.1339
-11.4412
-11.6225
-11.7981
-11.8339
-11.478
-10.2882
-8.00557
17.5496
14.6075
9.86032
2.83961
-5.27479
-12.2408
-16.0667
-16.1771
-15.4963
-15.3585
-15.6328
-16.0777
-16.2412
-14.7451
-10.9264
-6.5
-2.85683
-0.434099
0.940855
1.62269
1.87548
1.85651
1.66656
20.9054
17.935
12.248
4.01155
-7.82814
-17.958
-24.5492
-21.119
-18.72
-18.0572
-18.5752
-20.4657
-21.449
-20.9725
-15.2565
-7.17428
-2.39974
0.495248
1.98254
2.62371
2.77227
2.63205
2.33197
25.7834
23.9036
17.5178
5.73548
-18.6491
-38.0036
-38.3538
-28.2667
-23.2535
-21.3898
-20.904
-23.8559
-32.6793
-35.3163
-22.468
-9.44604
-0.525094
2.49498
3.58444
3.80626
3.6225
3.23856
2.76262
32.3207
30.804
29.829
11.3409
-36.0269
-77.4271
-77.5121
-19.897
-19.8036
-19.8647
-17.021
-16.6019
-54.5352
-74.4546
-33.8181
-8.24232
-0.00460156
4.64548
5.48605
5.09261
4.35814
3.60276
2.87471
2.20143
39.0209
41.8653
49.0269
47.0982
-7.62995
0.995904
4.31973
5.57332
4.92034
3.83163
2.86534
2.01587
1.263
0.660601
43.116
49.5934
64.1428
82.1078
-12.9199
-4.25514
0.00302942
2.24194
2.04976
1.27932
0.605893
-0.0129612
-0.602438
-1.08507
43.5429
50.204
62.4321
77.6759
-14.7291
-7.45306
-1.36138
0.69149
0.534047
-0.0940138
-0.659705
-1.21628
-1.77464
-2.27048
-2.6061
41.981
46.5954
52.8892
54.4069
40.9728
20.8757
28.561
45.0569
50.4692
-41.3484
-36.2295
-32.3625
-25.5528
-20.4587
-11.9782
-2.22701
0.897368
2.2003
2.22155
1.61318
0.750561
-0.247409
-1.26439
-2.17712
-2.91169
39.8304
42.3222
44.0209
45.093
39.0458
32.9562
34.1453
39.8718
45.6406
-41.2714
-31.0271
-29.4498
-24.0466
-17.3207
-7.08073
-2.26248
0.347458
2.08098
2.77297
2.48579
1.6407
0.548266
-0.613774
-1.73382
-2.75323
37.9918
39.236
39.7354
38.6893
36.3963
34.1862
33.1151
34.2963