/*--------------------------------*- C++ -*----------------------------------*\
  =========                 |
  \\      /  F ield         | OpenFOAM: The Open Source CFD Toolbox
   \\    /   O peration     | Website:  https://openfoam.org
    \\  /    A nd           | Version:  13
     \\/     M anipulation  |
\*---------------------------------------------------------------------------*/
FoamFile
{
    format      ascii;
    class       volScalarField;
    location    "600";
    object      k;
}
// * * * * * * * * * * * * * * * * * * * * * * * * * * * * * * * * * * * * * //

dimensions      [0 2 -2 0 0 0 0];

internalField   nonuniform List<scalar> 
171634
(
0.343716
0.341879
0.340067
0.338276
0.336505
0.33475
0.333011
0.331285
0.329573
0.327873
0.326186
0.324511
0.322849
0.321202
0.319569
0.317951
0.31635
0.314766
0.313199
0.31165
0.310119
0.308606
0.343736
0.341903
0.340093
0.338305
0.336536
0.334784
0.333046
0.331323
0.329611
0.327912
0.326225
0.324551
0.322889
0.321241
0.319607
0.317989
0.316387
0.314801
0.313233
0.311683
0.310152
0.308638
0.343785
0.341957
0.340154
0.338372
0.336608
0.33486
0.333127
0.331406
0.329697
0.327999
0.326312
0.324637
0.322975
0.321325
0.319689
0.318069
0.316464
0.314876
0.313306
0.311754
0.310221
0.308706
0.343858
0.342039
0.340245
0.338472
0.336716
0.334975
0.333248
0.331532
0.329826
0.32813
0.326444
0.324769
0.323105
0.321454
0.319815
0.318192
0.316584
0.314993
0.313419
0.311864
0.310328
0.308812
0.343962
0.342158
0.340377
0.338616
0.336872
0.335142
0.333424
0.331715
0.330014
0.328322
0.326637
0.324962
0.323297
0.321642
0.320001
0.318373
0.316761
0.315165
0.313587
0.312029
0.310489
0.30897
0.344103
0.342317
0.340555
0.338812
0.337085
0.33537
0.333664
0.331965
0.330272
0.328584
0.326903
0.325228
0.323561
0.321904
0.320258
0.318625
0.317008
0.315407
0.313824
0.312261
0.310717
0.309195
0.344288
0.342528
0.340791
0.339073
0.337368
0.335673
0.333985
0.332301
0.330619
0.328939
0.327262
0.325589
0.323921
0.322261
0.320611
0.318973
0.31735
0.315743
0.314154
0.312586
0.311038
0.309512
0.344528
0.342802
0.3411
0.339415
0.337742
0.336076
0.334413
0.332749
0.331084
0.329416
0.327746
0.326077
0.324409
0.322747
0.321093
0.31945
0.31782
0.316207
0.314613
0.313039
0.311487
0.309957
0.344838
0.343159
0.341503
0.339864
0.338235
0.33661
0.334982
0.333348
0.331707
0.330058
0.328401
0.326739
0.325075
0.323412
0.321755
0.320108
0.318473
0.316854
0.315254
0.313675
0.312119
0.310587
0.345239
0.343623
0.342032
0.340458
0.338891
0.337322
0.335746
0.334156
0.332551
0.33093
0.329294
0.327646
0.325991
0.324332
0.322675
0.321024
0.319386
0.317763
0.316159
0.314576
0.313018
0.311485
0.345759
0.34423
0.34273
0.341247
0.339768
0.338283
0.336782
0.335258
0.333708
0.332131
0.330529
0.328906
0.327267
0.325617
0.323965
0.322316
0.320677
0.319052
0.317446
0.315863
0.314304
0.312772
0.346437
0.34503
0.343659
0.342308
0.340959
0.339597
0.338208
0.336784
0.335319
0.333811
0.332264
0.330681
0.329071
0.327441
0.325801
0.324158
0.322522
0.320899
0.319294
0.317712
0.316157
0.314629
0.347327
0.346095
0.344911
0.343754
0.342599
0.341422
0.340205
0.338934
0.337599
0.336199
0.334736
0.333219
0.331655
0.330058
0.328438
0.326808
0.325178
0.323559
0.321957
0.320378
0.318827
0.317305
0.348504
0.347526
0.34662
0.345755
0.344894
0.344001
0.343046
0.342005
0.340868
0.33963
0.338295
0.336873
0.335377
0.333823
0.33223
0.330613
0.328989
0.327371
0.325768
0.324188
0.322636
0.321116
0.350075
0.34947
0.348976
0.348548
0.348128
0.347659
0.347092
0.346393
0.345541
0.344532
0.343371
0.342075
0.340661
0.339156
0.337583
0.335969
0.334335
0.332701
0.33108
0.329482
0.327914
0.326381
0.352172
0.352098
0.352186
0.352365
0.352553
0.352665
0.352633
0.352402
0.351938
0.351235
0.3503
0.349156
0.347831
0.346363
0.344789
0.343148
0.341473
0.33979
0.338118
0.336472
0.334859
0.333287
0.354895
0.355453
0.356166
0.356986
0.357846
0.358664
0.359361
0.359803
0.359893
0.359629
0.359014
0.358077
0.356863
0.355429
0.353834
0.352134
0.350379
0.348608
0.346849
0.34512
0.343432
0.341794
0.357937
0.359049
0.360421
0.361992
0.363661
0.365302
0.366785
0.36801
0.36891
0.369378
0.36929
0.368683
0.367635
0.366242
0.364609
0.362828
0.360976
0.359105
0.357253
0.355445
0.353694
0.35201
0.361171
0.363031
0.365319
0.367968
0.370834
0.373706
0.376348
0.378573
0.380282
0.38144
0.382046
0.381839
0.380958
0.379576
0.377869
0.375982
0.374023
0.372067
0.37016
0.368333
0.366602
0.364978
0.394597
0.392796
0.390975
0.389226
0.387598
0.386116
0.384796
0.383646
0.41718
0.416161
0.415324
0.41471
0.414336
0.414192
0.414256
0.414495
0.352573
0.351104
0.350414
0.350823
0.356513
0.354586
0.352899
0.351745
0.351554
0.352311
0.353872
0.356568
0.354721
0.353185
0.352296
0.352519
0.353543
0.355416
0.356612
0.354814
0.353367
0.352631
0.352997
0.354178
0.356237
0.359084
0.356612
0.354813
0.353365
0.352629
0.352994
0.354175
0.356232
0.359077
0.362579
0.360552
0.358539
0.356567
0.354719
0.353182
0.352293
0.352514
0.353538
0.355409
0.35805
0.364633
0.362588
0.360554
0.358523
0.356511
0.354583
0.352895
0.351739
0.351548
0.352305
0.353865
0.356165
0.364649
0.362603
0.360563
0.358512
0.356455
0.354433
0.352566
0.351096
0.350406
0.350815
0.35198
0.353877
0.364677
0.362637
0.360597
0.358536
0.356443
0.354339
0.35231
0.350549
0.349388
0.349265
0.350067
0.351607
0.364721
0.362694
0.360666
0.358611
0.356506
0.354355
0.352215
0.350238
0.348722
0.348101
0.348619
0.349909
0.351912
0.366817
0.364784
0.36278
0.360781
0.358757
0.356677
0.354532
0.352356
0.350277
0.348569
0.347676
0.34804
0.349235
0.351245
0.368937
0.366874
0.364867
0.3629
0.36095
0.358986
0.356978
0.354906
0.352793
0.350752
0.349051
0.34816
0.348552
0.349858
0.352106
0.368982
0.366941
0.364969
0.363052
0.361173
0.359306
0.357423
0.355507
0.353578
0.351749
0.3503
0.349751
0.350397
0.352088
0.354924
0.369031
0.367017
0.365086
0.363232
0.361447
0.359714
0.358018
0.356355
0.354759
0.353364
0.352495
0.352695
0.353888
0.356387
0.360375
0.365995
0.372993
0.381104
0.390022
0.369081
0.367096
0.365211
0.363431
0.361759
0.360195
0.358748
0.357445
0.356358
0.355673
0.355763
0.356674
0.358928
0.36313
0.369658
0.378947
0.388778
0.39146
0.401479
0.369128
0.367172
0.365336
0.363634
0.362087
0.360719
0.359573
0.358726
0.358316
0.358487
0.359315
0.361303
0.365315
0.372914
0.38464
0.388703
0.402417
0.420469
0.44108
0.461926
0.369168
0.367238
0.365447
0.363822
0.362399
0.361235
0.360414
0.360075
0.360292
0.361071
0.362766
0.366041
0.372284
0.38415
0.389559
0.412066
0.449732
0.500395
0.527074
0.552194
0.570357
0.369196
0.367286
0.365532
0.363972
0.36266
0.36168
0.361161
0.361276
0.361884
0.363219
0.365697
0.37011
0.378101
0.392508
0.400714
0.438465
0.51841
0.598068
0.742136
0.803763
0.814788
0.841828
0.369208
0.367311
0.365581
0.364066
0.362834
0.36199
0.361697
0.362023
0.362923
0.364654
0.36765
0.372698
0.381309
0.395677
0.405454
0.443773
0.518398
0.607043
0.82838
1.15414
1.10335
1.421
0.369204
0.367309
0.365587
0.364091
0.362897
0.362122
0.361943
0.362371
0.363407
0.365295
0.368435
0.373488
0.381625
0.394721
0.414114
0.428594
0.478183
0.538975
0.615517
0.726705
0.853991
0.967023
1.09766
1.08351
1.10306
0.369183
0.367279
0.365549
0.364045
0.362844
0.362064
0.361878
0.36231
0.36333
0.365154
0.368101
0.372663
0.379597
0.390082
0.404914
0.423627
0.439591
0.481718
0.526427
0.57243
0.611036
0.623768
0.616814
0.610258
0.556862
0.555289
0.555178
0.553877
0.545984
0.532979
0.516436
0.497912
0.478743
0.459934
0.442166
0.425104
0.409484
0.395681
0.38376
0.3738
0.365791
0.359233
0.369146
0.367224
0.36547
0.363935
0.362688
0.361839
0.361544
0.361895
0.362783
0.364374
0.366908
0.370717
0.376269
0.384217
0.395225
0.409053
0.424631
0.435508
0.46435
0.491041
0.510809
0.521643
0.52554
0.504466
0.503801
0.505135
0.507227
0.508863
0.509924
0.509983
0.508842
0.505934
0.500872
0.493846
0.485155
0.475096
0.464024
0.452302
0.440262
0.428203
0.416388
0.405017
0.394333
0.369097
0.367149
0.365361
0.363774
0.362454
0.36149
0.361017
0.361206
0.361885
0.363155
0.36518
0.368175
0.372416
0.378249
0.386042
0.395805
0.406671
0.417507
0.427787
0.436713
0.443395
0.447629
0.449795
0.45045
0.450609
0.451197
0.452194
0.453547
0.455164
0.456952
0.458786
0.460507
0.461871
0.462704
0.462919
0.462472
0.461361
0.459618
0.457291
0.45443
0.451063
0.447168
0.442642
0.371136
0.369039
0.367061
0.365229
0.363581
0.362169
0.361068
0.360382
0.360253
0.360698
0.361623
0.363139
0.365375
0.368486
0.372638
0.377979
0.384501
0.39177
0.398977
0.405615
0.411226
0.415484
0.418302
0.419818
0.420178
0.41955
0.418568
0.417548
0.416634
0.415901
0.415394
0.415127
0.415082
0.415221
0.415506
0.415908
0.416412
0.417029
0.417792
0.418762
0.420008
0.421593
0.423297
0.425032
0.371097
0.368976
0.366965
0.365087
0.363372
0.361862
0.360616
0.359712
0.359256
0.359365
0.359947
0.360984
0.362552
0.364728
0.367583
0.37115
0.375379
0.380053
0.38479
0.389174
0.392868
0.395685
0.39758
0.398604
0.398668
0.39784
0.39647
0.394814
0.393048
0.391289
0.389613
0.388069
0.386679
0.385455
0.384404
0.383533
0.382855
0.382398
0.382205
0.382341
0.382892
0.383958
0.385614
0.387899
0.371058
0.368912
0.366867
0.364942
0.36316
0.361555
0.360169
0.359059
0.358302
0.357989
0.358199
0.358812
0.359813
0.361236
0.363102
0.365397
0.368056
0.370938
0.373832
0.376499
0.378751
0.380477
0.381643
0.382222
0.381984
0.381078
0.379684
0.377976
0.376099
0.37416
0.372233
0.370364
0.368581
0.366899
0.365329
0.363881
0.362567
0.361407
0.360428
0.359672
0.359193
0.35906
0.359349
0.360126
0.371019
0.36885
0.366772
0.364802
0.362956
0.361262
0.359749
0.358458
0.35744
0.356757
0.356475
0.35664
0.357178
0.358007
0.359125
0.360504
0.362084
0.363765
0.365419
0.366918
0.368156
0.369065
0.369524
0.369417
0.368787
0.367717
0.366308
0.364664
0.36288
0.361029
0.359166
0.357326
0.355533
0.353801
0.352141
0.350558
0.349063
0.347664
0.346377
0.345223
0.34423
0.343434
0.342875
0.342593
0.370983
0.368792
0.366684
0.364671
0.362768
0.360993
0.359369
0.357924
0.35669
0.355706
0.355014
0.354655
0.354644
0.35497
0.355534
0.356253
0.357081
0.357949
0.358776
0.359482
0.35993
0.360021
0.359749
0.359121
0.358168
0.356939
0.35549
0.353884
0.352179
0.350421
0.348648
0.34689
0.345165
0.343483
0.341854
0.340282
0.338772
0.337329
0.335962
0.334681
0.333499
0.332435
0.331509
0.330733
0.370951
0.368739
0.366603
0.364552
0.362598
0.360753
0.359035
0.357461
0.356053
0.354833
0.353825
0.353051
0.352524
0.352243
0.352178
0.352275
0.352463
0.35266
0.35278
0.352754
0.352525
0.352061
0.351352
0.35041
0.349255
0.347919
0.34644
0.344857
0.343208
0.341527
0.33984
0.338166
0.336519
0.334907
0.333336
0.331811
0.330335
0.32891
0.327541
0.326232
0.324991
0.323825
0.322742
0.32175
0.370923
0.368692
0.366531
0.364447
0.362448
0.360545
0.358747
0.357068
0.35552
0.354118
0.352872
0.351793
0.350884
0.35014
0.349543
0.349058
0.348637
0.348225
0.347763
0.347201
0.346504
0.345653
0.344641
0.343477
0.342174
0.340754
0.339241
0.337661
0.336041
0.334403
0.332765
0.331141
0.329541
0.327973
0.326441
0.324947
0.323494
0.322085
0.320721
0.319405
0.31814
0.316929
0.315776
0.314683
0.370899
0.368652
0.366469
0.364356
0.362319
0.360365
0.358503
0.356738
0.355081
0.353538
0.352115
0.350813
0.349633
0.348564
0.347593
0.346693
0.345835
0.34498
0.344093
0.343142
0.342105
0.340968
0.33973
0.338393
0.336967
0.335468
0.33391
0.332312
0.330692
0.329065
0.327444
0.325839
0.324257
0.322705
0.321185
0.3197
0.318252
0.316841
0.31547
0.314139
0.31285
0.311604
0.310403
0.309246
0.37088
0.368618
0.366416
0.364278
0.362209
0.360214
0.358298
0.356465
0.354722
0.353071
0.351514
0.35005
0.348676
0.347382
0.346156
0.344978
0.343826
0.342676
0.341505
0.340292
0.339023
0.337689
0.33629
0.334827
0.333309
0.331744
0.330144
0.328522
0.32689
0.325259
0.323639
0.322036
0.320457
0.318905
0.317383
0.315894
0.314438
0.313016
0.31163
0.310279
0.308964
0.307686
0.306444
0.305238
0.370864
0.36859
0.366372
0.364213
0.362117
0.360088
0.358128
0.356241
0.354429
0.352695
0.351037
0.349454
0.347941
0.346489
0.345087
0.343721
0.342374
0.34103
0.339672
0.338287
0.336866
0.335403
0.333897
0.33235
0.330768
0.329157
0.327527
0.325886
0.324243
0.322607
0.320984
0.319379
0.317798
0.316242
0.314716
0.313219
0.311753
0.310319
0.308917
0.307546
0.306208
0.304902
0.303627
0.302381
0.370852
0.368567
0.366335
0.364159
0.362041
0.359983
0.357988
0.356057
0.354193
0.352394
0.35066
0.348989
0.347374
0.345808
0.344284
0.342788
0.341309
0.339835
0.338353
0.336856
0.335335
0.333788
0.332213
0.330612
0.32899
0.327352
0.325703
0.324052
0.322403
0.320765
0.319141
0.317536
0.315953
0.314396
0.312866
0.311363
0.30989
0.308445
0.30703
0.305645
0.304288
0.302959
0.301658
0.300382
0.370843
0.368549
0.366306
0.364115
0.361978
0.359897
0.357874
0.355908
0.354002
0.352154
0.350362
0.348623
0.346934
0.345286
0.343674
0.342087
0.340517
0.338953
0.337389
0.335816
0.334229
0.332627
0.331008
0.329375
0.327728
0.326074
0.324417
0.322761
0.321113
0.319475
0.317854
0.316251
0.314671
0.313114
0.311582
0.310077
0.308599
0.307148
0.305724
0.304327
0.302956
0.30161
0.300289
0.298991
0.370836
0.368535
0.366282
0.364079
0.361927
0.359827
0.357781
0.355788
0.353849
0.351962
0.350125
0.348337
0.346591
0.344884
0.343208
0.341556
0.339921
0.338295
0.336673
0.335049
0.333418
0.33178
0.330133
0.328479
0.326819
0.325157
0.323497
0.321842
0.320196
0.318563
0.316946
0.315348
0.313772
0.312217
0.310687
0.309182
0.307702
0.306247
0.304817
0.303412
0.30203
0.300672
0.299336
0.29802
0.370832
0.368524
0.366263
0.36405
0.361886
0.359771
0.357706
0.355691
0.353726
0.351809
0.349939
0.348112
0.346324
0.344572
0.342849
0.34115
0.339469
0.3378
0.336137
0.334477
0.332817
0.331154
0.329489
0.327822
0.326156
0.324491
0.322831
0.321179
0.319538
0.317911
0.3163
0.314708
0.313136
0.311586
0.310058
0.308554
0.307073
0.305616
0.304183
0.302772
0.301383
0.300015
0.298668
0.297338
0.370829
0.368516
0.366249
0.364027
0.361853
0.359726
0.357646
0.355614
0.353628
0.351688
0.349791
0.347935
0.346117
0.344331
0.342574
0.34084
0.339125
0.337424
0.335733
0.334048
0.332366
0.330688
0.329011
0.327337
0.325666
0.324001
0.322343
0.320696
0.31906
0.317439
0.315835
0.314249
0.312682
0.311137
0.309612
0.30811
0.30663
0.305173
0.303737
0.302322
0.300928
0.299553
0.298196
0.296856
0.370827
0.36851
0.366237
0.364009
0.361827
0.35969
0.357599
0.355553
0.353552
0.351593
0.349676
0.347798
0.345956
0.344145
0.342362
0.340603
0.338863
0.337139
0.335427
0.333724
0.332029
0.330339
0.328655
0.326976
0.325304
0.32364
0.321985
0.320342
0.318712
0.317097
0.315498
0.313918
0.312357
0.310815
0.309295
0.307795
0.306316
0.304858
0.303421
0.302003
0.300605
0.299224
0.29786
0.296512
0.370826
0.368506
0.366229
0.363996
0.361807
0.359662
0.357562
0.355506
0.353492
0.35152
0.349588
0.347693
0.345833
0.344003
0.342202
0.340424
0.338666
0.336926
0.335199
0.333483
0.331777
0.33008
0.328391
0.326709
0.325037
0.323374
0.321723
0.320084
0.318459
0.316849
0.315256
0.31368
0.312124
0.310586
0.309069
0.307571
0.306094
0.304636
0.303198
0.301778
0.300376
0.298991
0.297622
0.296267
0.370826
0.368503
0.366222
0.363985
0.361792
0.359641
0.357534
0.35547
0.353447
0.351465
0.349522
0.347614
0.345741
0.343898
0.342083
0.340291
0.338521
0.336768
0.335031
0.333306
0.331593
0.329891
0.328198
0.326515
0.324843
0.323182
0.321533
0.319898
0.318277
0.316671
0.315082
0.313511
0.311958
0.310424
0.30891
0.307414
0.305938
0.30448
0.303041
0.30162
0.300216
0.298828
0.297455
0.296095
0.370826
0.368501
0.366218
0.363978
0.361781
0.359627
0.357515
0.355445
0.353416
0.351427
0.349475
0.347559
0.345677
0.343825
0.342
0.340199
0.33842
0.336659
0.334915
0.333184
0.331466
0.32976
0.328066
0.326382
0.32471
0.32305
0.321404
0.319771
0.318153
0.316551
0.314965
0.313397
0.311847
0.310316
0.308803
0.307309
0.305833
0.304376
0.302937
0.301515
0.300109
0.298718
0.297342
0.295979
0.370826
0.3685
0.366216
0.363974
0.361774
0.359617
0.357502
0.355428
0.353395
0.351401
0.349444
0.347523
0.345634
0.343776
0.341944
0.340138
0.338353
0.336587
0.334837
0.333103
0.331382
0.329674
0.327978
0.326294
0.324622
0.322964
0.321318
0.319688
0.318072
0.316472
0.314889
0.313323
0.311775
0.310245
0.308734
0.307241
0.305766
0.304309
0.30287
0.301447
0.30004
0.298648
0.29727
0.295905
0.370827
0.3685
0.366216
0.363973
0.361773
0.359615
0.357498
0.355423
0.353387
0.351391
0.349432
0.347508
0.345617
0.343755
0.341921
0.340112
0.338324
0.336555
0.334803
0.333067
0.331345
0.329635
0.327938
0.326254
0.324582
0.322924
0.321279
0.319649
0.318034
0.316435
0.314853
0.313288
0.311741
0.310212
0.308701
0.307208
0.305734
0.304277
0.302837
0.301414
0.300006
0.298613
0.297234
0.295867
0.34371
0.341873
0.34006
0.338269
0.336497
0.334743
0.333003
0.331278
0.329566
0.327866
0.326179
0.324505
0.322845
0.321198
0.319565
0.317949
0.316348
0.314764
0.313198
0.31165
0.31012
0.308608
0.34373
0.341896
0.340086
0.338298
0.336528
0.334776
0.333039
0.331315
0.329604
0.327905
0.326219
0.324545
0.322884
0.321237
0.319604
0.317986
0.316385
0.3148
0.313233
0.311684
0.310153
0.308641
0.343779
0.341951
0.340147
0.338364
0.3366
0.334852
0.333119
0.331398
0.329689
0.327992
0.326306
0.324632
0.32297
0.321321
0.319686
0.318066
0.316463
0.314876
0.313306
0.311755
0.310223
0.308709
0.343852
0.342033
0.340238
0.338465
0.336709
0.334968
0.333241
0.331525
0.329819
0.328124
0.326439
0.324764
0.323101
0.32145
0.319813
0.31819
0.316583
0.314993
0.31342
0.311867
0.310332
0.308816
0.343957
0.342152
0.340371
0.33861
0.336866
0.335135
0.333417
0.331708
0.330008
0.328316
0.326632
0.324958
0.323293
0.32164
0.319999
0.318372
0.316761
0.315167
0.31359
0.312032
0.310494
0.308976
0.344099
0.342312
0.340549
0.338806
0.337079
0.335363
0.333657
0.331958
0.330266
0.328579
0.326898
0.325224
0.323558
0.321901
0.320257
0.318625
0.317009
0.31541
0.313828
0.312266
0.310724
0.309203
0.344284
0.342523
0.340785
0.339066
0.337361
0.335666
0.333978
0.332294
0.330612
0.328933
0.327256
0.325584
0.323917
0.322258
0.320609
0.318972
0.31735
0.315745
0.314158
0.312591
0.311045
0.30952
0.344524
0.342797
0.341093
0.339407
0.337734
0.336067
0.334403
0.332739
0.331074
0.329406
0.327737
0.326068
0.324402
0.322741
0.321088
0.319446
0.317818
0.316207
0.314615
0.313042
0.311492
0.309965
0.344832
0.343151
0.341494
0.339854
0.338224
0.336597
0.334968
0.333334
0.331692
0.330042
0.328386
0.326724
0.325061
0.3234
0.321745
0.320098
0.318465
0.316849
0.315251
0.313674
0.31212
0.31059
0.345231
0.343612
0.342019
0.340443
0.338873
0.337303
0.335725
0.334134
0.332528
0.330906
0.32927
0.327622
0.325967
0.324309
0.322654
0.321006
0.319369
0.317748
0.316147
0.314567
0.313011
0.311481
0.345747
0.344215
0.342712
0.341226
0.339744
0.338255
0.336751
0.335224
0.333672
0.332094
0.330491
0.328867
0.327229
0.325581
0.32393
0.322284
0.320647
0.319025
0.317422
0.315842
0.314287
0.312759
0.346421
0.345011
0.343635
0.342278
0.340924
0.339556
0.338162
0.336733
0.335264
0.333753
0.332204
0.330621
0.329012
0.327384
0.325746
0.324106
0.322474
0.320855
0.319255
0.317678
0.316127
0.314604
0.347307
0.34607
0.344879
0.343714
0.34255
0.341365
0.340138
0.338858
0.337516
0.336112
0.334647
0.333129
0.331567
0.329972
0.328356
0.326731
0.325108
0.323496
0.321901
0.32033
0.318786
0.317272
0.348481
0.347496
0.34658
0.345703
0.344828
0.34392
0.34295
0.341896
0.340748
0.339503
0.338164
0.336743
0.335251
0.333703
0.332118
0.330512
0.328899
0.327293
0.325703
0.324136
0.322597
0.32109
0.350051
0.349437
0.348932
0.348487
0.348046
0.347554
0.346963
0.346241
0.345373
0.344354
0.343192
0.3419
0.340497
0.339006
0.337452
0.335858
0.334246
0.332635
0.331037
0.329463
0.327919
0.326409
0.352157
0.352075
0.352151
0.352311
0.352471
0.352551
0.352484
0.352219
0.351731
0.351016
0.350083
0.348954
0.347656
0.346221
0.344686
0.343086
0.341453
0.339813
0.338184
0.33658
0.335009
0.333476
0.354907
0.355467
0.356179
0.356991
0.357832
0.358621
0.35928
0.359658
0.359705
0.359422
0.358816
0.357915
0.356757
0.35539
0.353871
0.35225
0.350575
0.348883
0.3472
0.345545
0.343928
0.342359
0.358003
0.359133
0.360522
0.362099
0.363755
0.365357
0.366782
0.367944
0.368791
0.369223
0.369155
0.368628
0.367701
0.366453
0.364972
0.363344
0.361638
0.359906
0.358182
0.356492
0.354851
0.35327
0.361332
0.363252
0.36561
0.368319
0.3712
0.374015
0.376543
0.378635
0.380231
0.381323
0.381936
0.381906
0.381287
0.380215
0.378861
0.377313
0.375649
0.373929
0.3722
0.370525
0.368923
0.367406
0.396575
0.395283
0.393855
0.392376
0.390903
0.389491
0.388188
0.387007
0.42014
0.419648
0.419029
0.41836
0.417723
0.417232
0.416865
0.416623
0.353336
0.352184
0.351931
0.352683
0.356945
0.355204
0.353789
0.353034
0.353369
0.354536
0.356647
0.357034
0.355396
0.354172
0.353739
0.35435
0.355872
0.358419
0.357097
0.355521
0.354408
0.354159
0.354915
0.356626
0.359414
0.363234
0.357096
0.35552
0.354407
0.354157
0.354912
0.356623
0.359409
0.363227
0.362736
0.360777
0.358862
0.357033
0.355394
0.35417
0.353736
0.354347
0.355868
0.358414
0.36194
0.364738
0.362737
0.360766
0.358826
0.356943
0.355201
0.353786
0.35303
0.353365
0.354532
0.356642
0.359653
0.364747
0.362742
0.360759
0.358788
0.356842
0.354976
0.353331
0.352178
0.351924
0.352677
0.354281
0.356715
0.364767
0.362763
0.360774
0.358781
0.356781
0.354802
0.352941
0.35141
0.350566
0.350844
0.351941
0.353843
0.364802
0.362807
0.360823
0.358826
0.356796
0.354742
0.352723
0.350901
0.349584
0.349223
0.34994
0.351466
0.353743
0.366869
0.364856
0.362881
0.360919
0.358943
0.356924
0.354852
0.352763
0.350783
0.34919
0.348441
0.348923
0.350261
0.352445
0.36897
0.36692
0.36493
0.362988
0.36107
0.359149
0.357191
0.355178
0.353131
0.351161
0.349537
0.348744
0.349222
0.35064
0.353034
0.369011
0.366982
0.365024
0.363129
0.361279
0.35945
0.357614
0.355753
0.353888
0.352136
0.350792
0.350401
0.351182
0.353062
0.356159
0.369056
0.367052
0.365134
0.3633
0.361542
0.359845
0.358197
0.356597
0.355089
0.353827
0.353175
0.353581
0.355112
0.358122
0.362834
0.369163
0.376687
0.385558
0.396313
0.369103
0.367126
0.365254
0.363492
0.361845
0.360319
0.358928
0.357709
0.356761
0.356318
0.35665
0.358003
0.36106
0.366714
0.375161
0.378115
0.386716
0.397863
0.411036
0.369147
0.367198
0.365373
0.363688
0.362166
0.36084
0.359763
0.359033
0.358832
0.359214
0.360454
0.363245
0.368978
0.379407
0.383435
0.399262
0.422802
0.448672
0.468044
0.485161
0.369184
0.36726
0.365479
0.36387
0.362474
0.361355
0.360617
0.360428
0.360798
0.361871
0.364154
0.368684
0.378023
0.395061
0.405563
0.448154
0.493336
0.575636
0.64742
0.693827
0.369209
0.367305
0.36556
0.364014
0.362729
0.361797
0.361369
0.361581
0.362368
0.36405
0.367236
0.373285
0.38439
0.391976
0.423608
0.513649
0.636359
0.737929
0.36922
0.367327
0.365604
0.364102
0.362895
0.362099
0.361898
0.362315
0.36339
0.365463
0.369156
0.375751
0.387218
0.395052
0.429269
0.482697
0.644448
0.369214
0.367321
0.365606
0.364121
0.362949
0.362216
0.362121
0.362631
0.36382
0.366003
0.369726
0.375985
0.386865
0.404405
0.418895
0.477481
0.550999
0.785377
1.01695
0.886948
0.369191
0.367289
0.365563
0.364068
0.362885
0.36214
0.362022
0.362521
0.363664
0.365712
0.369085
0.374481
0.383193
0.396827
0.416493
0.434791
0.490568
0.557286
0.615486
0.653297
0.651268
0.613699
0.583823
0.542405
0.531564
0.508596
0.506477
0.504807
0.503725
0.500789
0.495729
0.489328
0.481991
0.474142
0.466169
0.458375
0.451034
0.444409
0.438781
0.43454
0.432165
0.432627
0.369152
0.367232
0.365481
0.363952
0.362718
0.361894
0.361649
0.362051
0.363026
0.364773
0.367586
0.371908
0.378444
0.388231
0.401737
0.418175
0.431157
0.464777
0.494235
0.512911
0.519055
0.51439
0.50649
0.500096
0.486952
0.486678
0.486581
0.486197
0.485919
0.485376
0.484315
0.482685
0.480546
0.478043
0.475373
0.472384
0.469019
0.465421
0.461756
0.458225
0.454518
0.451355
0.44969
0.369102
0.367155
0.365368
0.363786
0.362474
0.361527
0.361088
0.361331
0.362064
0.363429
0.365619
0.3689
0.373646
0.380367
0.389447
0.400196
0.411397
0.422865
0.433216
0.441214
0.446428
0.449231
0.450456
0.451195
0.451751
0.452211
0.452666
0.453127
0.453622
0.454266
0.45495
0.455583
0.45608
0.45634
0.456386
0.456255
0.455999
0.455699
0.455458
0.455386
0.455413
0.455512
0.455725
0.371141
0.369043
0.367065
0.365235
0.363589
0.362182
0.36109
0.360424
0.360332
0.360811
0.361794
0.363402
0.365788
0.369143
0.373688
0.379593
0.386607
0.39393
0.40104
0.407413
0.412583
0.416329
0.418715
0.419994
0.420495
0.420717
0.420576
0.420226
0.419719
0.419112
0.418488
0.417971
0.417572
0.417287
0.417105
0.417021
0.417044
0.417206
0.417555
0.418169
0.419146
0.420584
0.422393
0.424568
0.371101
0.36898
0.366969
0.36509
0.363376
0.361869
0.360628
0.359734
0.359298
0.359439
0.360052
0.361136
0.362777
0.365063
0.368078
0.371861
0.376297
0.381044
0.385688
0.389848
0.393259
0.395812
0.39753
0.398504
0.39883
0.398462
0.397708
0.396641
0.395349
0.393935
0.392477
0.391045
0.389707
0.388481
0.38738
0.386415
0.385605
0.384975
0.384561
0.384421
0.384627
0.38527
0.386429
0.388176
0.371061
0.368916
0.36687
0.364944
0.363163
0.361558
0.360174
0.359069
0.358321
0.358023
0.358258
0.358894
0.359927
0.361396
0.363321
0.365687
0.368409
0.371308
0.374147
0.376701
0.378822
0.380433
0.381535
0.382141
0.382066
0.381405
0.380296
0.378894
0.377309
0.37562
0.37389
0.372189
0.370546
0.368981
0.367506
0.366131
0.364868
0.363733
0.362749
0.361949
0.361378
0.361091
0.361153
0.361625
0.371023
0.368853
0.366775
0.364803
0.362958
0.361263
0.35975
0.35846
0.357445
0.356767
0.356496
0.356675
0.357226
0.358071
0.359208
0.360604
0.362191
0.363859
0.365475
0.366915
0.368091
0.368947
0.369368
0.369282
0.368728
0.367774
0.366503
0.365004
0.363362
0.361646
0.359908
0.358184
0.356498
0.354865
0.353294
0.351795
0.350372
0.349037
0.347801
0.346681
0.345701
0.344888
0.344276
0.3439
0.370987
0.368795
0.366686
0.364672
0.362768
0.360993
0.359368
0.357922
0.356688
0.355704
0.355015
0.354658
0.354651
0.354981
0.355546
0.356265
0.357085
0.357934
0.358731
0.359399
0.359783
0.35983
0.359539
0.358919
0.358
0.356824
0.355441
0.353906
0.352274
0.35059
0.348893
0.347207
0.34555
0.343935
0.342368
0.340855
0.339401
0.33801
0.336689
0.335447
0.334294
0.333246
0.332317
0.331523
0.370955
0.368742
0.366605
0.364554
0.362598
0.360753
0.359033
0.357458
0.356048
0.354826
0.353817
0.353041
0.352512
0.352226
0.352153
0.352238
0.352407
0.352575
0.352662
0.352601
0.352339
0.351849
0.351128
0.350187
0.349047
0.347736
0.346289
0.344743
0.343133
0.341492
0.339846
0.338213
0.336605
0.335032
0.333499
0.332011
0.330569
0.329177
0.327838
0.326557
0.32534
0.324193
0.323123
0.322136
0.370927
0.368695
0.366534
0.364449
0.362449
0.360544
0.358745
0.357064
0.355515
0.35411
0.352861
0.351779
0.350865
0.350115
0.349509
0.349012
0.348575
0.348141
0.347655
0.347069
0.34635
0.345481
0.344459
0.343292
0.341994
0.340583
0.339085
0.337523
0.335922
0.334305
0.332688
0.331087
0.32951
0.327963
0.326452
0.32498
0.323548
0.322158
0.320812
0.319513
0.318264
0.317067
0.315925
0.31484
0.370903
0.368655
0.366472
0.364358
0.36232
0.360365
0.358501
0.356735
0.355076
0.35353
0.352104
0.350799
0.349614
0.34854
0.347561
0.346652
0.345782
0.344913
0.34401
0.343044
0.341992
0.340845
0.339599
0.338258
0.336833
0.335337
0.333785
0.332196
0.330585
0.328969
0.327359
0.325767
0.324198
0.322658
0.321151
0.319678
0.318241
0.316843
0.315482
0.314162
0.312883
0.311646
0.310452
0.309302
0.370884
0.368621
0.366419
0.364281
0.362211
0.360215
0.358297
0.356463
0.354718
0.353064
0.351505
0.350038
0.34866
0.347362
0.34613
0.344945
0.343785
0.342626
0.341445
0.340223
0.338945
0.337605
0.336201
0.334735
0.333216
0.331652
0.330055
0.328437
0.32681
0.325185
0.323571
0.321975
0.320403
0.318859
0.317345
0.315863
0.314415
0.313001
0.311621
0.310277
0.308969
0.307696
0.30646
0.305259
0.370868
0.368594
0.366375
0.364216
0.362119
0.360089
0.358128
0.356239
0.354426
0.35269
0.35103
0.349445
0.347928
0.346473
0.345067
0.343696
0.342344
0.340994
0.339631
0.33824
0.336814
0.335347
0.333837
0.332289
0.330706
0.329096
0.327467
0.325829
0.324189
0.322556
0.320937
0.319337
0.31776
0.316209
0.314688
0.313196
0.311735
0.310306
0.308908
0.307543
0.306209
0.304907
0.303635
0.302394
0.370856
0.368571
0.366339
0.364162
0.362043
0.359985
0.357989
0.356057
0.354191
0.352391
0.350655
0.348981
0.347364
0.345796
0.344268
0.34277
0.341287
0.339809
0.338324
0.336824
0.3353
0.33375
0.332174
0.330573
0.32895
0.327312
0.325665
0.324015
0.322369
0.320733
0.319112
0.31751
0.315931
0.314377
0.31285
0.311351
0.309881
0.30844
0.307029
0.305646
0.304293
0.302967
0.301669
0.300397
0.370847
0.368553
0.366309
0.364118
0.361981
0.359899
0.357875
0.355909
0.354001
0.352152
0.350358
0.348618
0.346927
0.345277
0.343663
0.342074
0.340501
0.338936
0.337369
0.335794
0.334206
0.332603
0.330983
0.329349
0.327704
0.32605
0.324394
0.32274
0.321093
0.319458
0.317838
0.316238
0.31466
0.313106
0.311577
0.310075
0.308599
0.307151
0.30573
0.304335
0.302967
0.301624
0.300305
0.299009
0.370841
0.368539
0.366286
0.364082
0.36193
0.35983
0.357782
0.355789
0.353848
0.351961
0.350123
0.348333
0.346586
0.344877
0.3432
0.341546
0.33991
0.338283
0.33666
0.335034
0.333403
0.331764
0.330118
0.328463
0.326804
0.325143
0.323484
0.321831
0.320186
0.318555
0.31694
0.315344
0.313769
0.312218
0.31069
0.309186
0.307708
0.306256
0.304828
0.303425
0.302046
0.30069
0.299355
0.298041
0.370836
0.368528
0.366267
0.364053
0.361889
0.359773
0.357708
0.355692
0.353726
0.351808
0.349937
0.348109
0.346321
0.344567
0.342844
0.341144
0.339461
0.337791
0.336128
0.334467
0.332807
0.331144
0.329479
0.327813
0.326147
0.324483
0.322824
0.321174
0.319534
0.317908
0.316299
0.314709
0.313139
0.31159
0.310065
0.308563
0.307084
0.305629
0.304197
0.302788
0.301401
0.300035
0.298689
0.297361
0.370833
0.368519
0.366252
0.36403
0.361855
0.359727
0.357647
0.355615
0.353628
0.351687
0.34979
0.347933
0.346113
0.344327
0.342569
0.340834
0.339119
0.337417
0.335725
0.33404
0.332359
0.330681
0.329004
0.327331
0.325661
0.323997
0.32234
0.320694
0.31906
0.31744
0.315837
0.314252
0.312688
0.311143
0.309621
0.30812
0.306642
0.305186
0.303752
0.302338
0.300945
0.299572
0.298216
0.296877
0.37083
0.368512
0.366239
0.364011
0.361828
0.359691
0.357599
0.355553
0.353551
0.351592
0.349674
0.347795
0.345952
0.34414
0.342357
0.340597
0.338857
0.337133
0.335421
0.333718
0.332022
0.330333
0.328649
0.326971
0.325299
0.323636
0.321983
0.320341
0.318712
0.317098