/*--------------------------------*- C++ -*----------------------------------*\
  =========                 |
  \\      /  F ield         | OpenFOAM: The Open Source CFD Toolbox
   \\    /   O peration     | Website:  https://openfoam.org
    \\  /    A nd           | Version:  13
     \\/     M anipulation  |
\*---------------------------------------------------------------------------*/
FoamFile
{
    format      ascii;
    class       volScalarField;
    location    "600";
    object      nut;
}
// * * * * * * * * * * * * * * * * * * * * * * * * * * * * * * * * * * * * * //

dimensions      [0 2 -1 0 0 0 0];

internalField   nonuniform List<scalar> 
171634
(
0.0190298
0.019016
0.0190023
0.0189887
0.0189751
0.0189616
0.0189479
0.0189342
0.0189204
0.0189064
0.0188924
0.0188783
0.0188642
0.0188499
0.0188357
0.0188215
0.0188073
0.0187932
0.0187792
0.0187653
0.0187514
0.0187378
0.0190304
0.0190167
0.0190031
0.0189896
0.0189761
0.0189626
0.018949
0.0189353
0.0189215
0.0189076
0.0188936
0.0188795
0.0188654
0.0188511
0.0188369
0.0188227
0.0188085
0.0187943
0.0187803
0.0187663
0.0187525
0.0187388
0.0190319
0.0190183
0.0190049
0.0189915
0.0189782
0.0189648
0.0189513
0.0189377
0.018924
0.0189101
0.0188962
0.0188821
0.0188679
0.0188536
0.0188393
0.0188251
0.0188108
0.0187966
0.0187825
0.0187686
0.0187547
0.018741
0.0190341
0.0190208
0.0190076
0.0189945
0.0189814
0.0189682
0.0189549
0.0189414
0.0189278
0.018914
0.0189001
0.018886
0.0188718
0.0188575
0.0188432
0.0188288
0.0188145
0.0188002
0.0187861
0.018772
0.0187581
0.0187444
0.0190373
0.0190243
0.0190115
0.0189987
0.0189859
0.018973
0.0189599
0.0189467
0.0189332
0.0189195
0.0189057
0.0188916
0.0188774
0.0188631
0.0188487
0.0188343
0.0188199
0.0188055
0.0187913
0.0187772
0.0187632
0.0187494
0.0190415
0.019029
0.0190167
0.0190044
0.018992
0.0189795
0.0189668
0.0189538
0.0189406
0.0189271
0.0189133
0.0188993
0.0188851
0.0188707
0.0188563
0.0188418
0.0188273
0.0188128
0.0187985
0.0187843
0.0187703
0.0187564
0.019047
0.0190352
0.0190235
0.0190118
0.0190001
0.0189881
0.0189759
0.0189634
0.0189505
0.0189372
0.0189236
0.0189096
0.0188955
0.0188811
0.0188665
0.018852
0.0188374
0.0188228
0.0188084
0.0187941
0.0187801
0.0187662
0.0190539
0.019043
0.0190323
0.0190215
0.0190106
0.0189994
0.0189879
0.0189759
0.0189635
0.0189506
0.0189372
0.0189235
0.0189093
0.018895
0.0188804
0.0188658
0.0188511
0.0188365
0.018822
0.0188077
0.0187936
0.0187797
0.0190628
0.0190531
0.0190436
0.019034
0.0190243
0.0190142
0.0190036
0.0189925
0.0189808
0.0189684
0.0189555
0.018942
0.0189281
0.0189138
0.0188993
0.0188846
0.0188699
0.0188553
0.0188408
0.0188265
0.0188124
0.0187986
0.0190741
0.019066
0.0190582
0.0190503
0.0190422
0.0190337
0.0190245
0.0190146
0.0190039
0.0189924
0.0189802
0.0189672
0.0189536
0.0189396
0.0189252
0.0189107
0.0188961
0.0188815
0.018867
0.0188528
0.0188388
0.0188252
0.0190885
0.0190827
0.0190773
0.0190718
0.019066
0.0190597
0.0190526
0.0190445
0.0190354
0.0190252
0.019014
0.0190018
0.0189889
0.0189754
0.0189614
0.0189471
0.0189327
0.0189183
0.0189041
0.0188901
0.0188764
0.018863
0.0191071
0.0191045
0.0191023
0.0191003
0.019098
0.019095
0.0190909
0.0190855
0.0190788
0.0190706
0.0190611
0.0190503
0.0190384
0.0190256
0.0190123
0.0189985
0.0189845
0.0189705
0.0189567
0.0189431
0.0189299
0.018917
0.0191311
0.019133
0.0191358
0.0191388
0.0191415
0.0191434
0.0191439
0.0191427
0.0191395
0.0191344
0.0191274
0.0191186
0.0191083
0.0190968
0.0190844
0.0190714
0.019058
0.0190446
0.0190313
0.0190183
0.0190056
0.0189934
0.0191626
0.019171
0.0191808
0.0191914
0.0192017
0.0192108
0.0192181
0.0192229
0.0192249
0.0192241
0.0192206
0.0192146
0.0192063
0.0191963
0.019185
0.0191728
0.01916
0.0191471
0.0191342
0.0191216
0.0191093
0.0190976
0.019204
0.0192218
0.019242
0.0192632
0.0192841
0.0193033
0.0193196
0.0193322
0.0193407
0.019345
0.0193454
0.0193421
0.0193358
0.019327
0.0193162
0.0193042
0.0192913
0.0192782
0.019265
0.0192521
0.0192396
0.0192276
0.0192584
0.0192887
0.0193216
0.0193551
0.0193873
0.0194163
0.0194412
0.0194609
0.019475
0.0194834
0.0194865
0.0194849
0.0194791
0.01947
0.0194585
0.0194452
0.0194309
0.0194161
0.0194013
0.0193867
0.0193724
0.0193586
0.0193254
0.0187591
0.0180042
0.0176115
0.017618
0.018056
0.0189494
0.0195464
0.0195631
0.0195733
0.0195773
0.0195758
0.0195694
0.019559
0.0195455
0.0195299
0.019513
0.0194953
0.0194774
0.0194596
0.019442
0.0194247
0.0169944
0.0158201
0.0149697
0.0144698
0.014357
0.0146626
0.0154014
0.0165641
0.0181559
0.0194889
0.0194942
0.0194932
0.0194867
0.0194756
0.0194609
0.0194435
0.0194244
0.0194042
0.0193832
0.0193618
0.01934
0.0193179
0.014406
0.0131756
0.0122546
0.0116644
0.0114418
0.0116254
0.0122711
0.0133555
0.0148363
0.0167321
0.0191048
0.0191022
0.0190952
0.019084
0.0190688
0.0190505
0.0190295
0.0190064
0.0189814
0.0189545
0.0189256
0.0188945
0.0181567
0.0181399
0.0181191
0.0180924
0.0180591
0.0180178
0.0179668
0.0179041
0.0164749
0.016456
0.0164162
0.0163495
0.0162493
0.0161096
0.0159257
0.0156952
0.0191887
0.0191916
0.0192132
0.018367
0.0192076
0.0191997
0.0191974
0.019208
0.0192416
0.0163073
0.0130162
0.0192094
0.0192035
0.0192049
0.0192221
0.0192651
0.0149848
0.0120656
0.0192107
0.0192059
0.0192096
0.0192304
0.0184859
0.0143413
0.0115859
0.009899
0.0192107
0.0192059
0.0192096
0.0192304
0.0184886
0.0143436
0.0115884
0.00990226
0.0192374
0.0192277
0.0192181
0.0192094
0.0192034
0.0192048
0.019222
0.0192649
0.0149889
0.0120702
0.0102738
0.0192471
0.0192372
0.0192273
0.0192173
0.0192075
0.0191996
0.0191973
0.0192078
0.0192414
0.0163115
0.0130212
0.0109889
0.019247
0.0192371
0.019227
0.0192165
0.0192055
0.0191953
0.0191885
0.0191913
0.0192129
0.0183704
0.0144434
0.0119721
0.019247
0.0192372
0.0192271
0.0192162
0.0192044
0.0191921
0.0191813
0.0191769
0.019187
0.0192217
0.016108
0.0130117
0.0192473
0.0192377
0.0192278
0.0192171
0.019205
0.0191914
0.0191779
0.0191682
0.0191695
0.0191924
0.0176372
0.0138064
0.0114726
0.0192575
0.0192479
0.0192388
0.0192295
0.0192195
0.0192079
0.0191945
0.0191802
0.0191679
0.0191646
0.019181
0.018474
0.0140616
0.0113793
0.0192679
0.0192578
0.0192488
0.0192405
0.0192324
0.0192238
0.0192139
0.0192023
0.0191895
0.0191784
0.0191753
0.0191921
0.0181128
0.0135905
0.0108195
0.019268
0.0192583
0.01925
0.0192428
0.0192364
0.01923
0.0192232
0.0192155
0.0192073
0.0192015
0.0192051
0.0192304
0.0164961
0.0123904
0.00980934
0.019268
0.0192589
0.0192515
0.0192457
0.0192414
0.0192383
0.0192359
0.0192344
0.0192345
0.0192397
0.0192579
0.0188011
0.0139727
0.0105454
0.0083658
0.00697561
0.0061607
0.00539142
0.00495293
0.019268
0.0192594
0.019253
0.0192489
0.0192472
0.0192481
0.0192517
0.0192589
0.0192716
0.0192942
0.0189923
0.0147476
0.0109717
0.00814032
0.00632899
0.00505597
0.00518701
0.00632553
0.00438626
0.0192677
0.0192598
0.0192544
0.0192521
0.0192533
0.0192587
0.0192696
0.0192878
0.0193167
0.0182472
0.0148338
0.0113484
0.00822505
0.005704
0.00433549
0.00552741
0.00368512
0.00345567
0.00318782
0.00277202
0.0192673
0.0192598
0.0192554
0.0192547
0.0192588
0.019269
0.0192875
0.0193178
0.0181304
0.0150721
0.0119548
0.00898258
0.00632029
0.00425663
0.00461727
0.00244909
0.00198571
0.00179034
0.00341477
0.00245592
0.0021083
0.0192665
0.0192594
0.0192557
0.0192564
0.0192629
0.0192774
0.019303
0.0191107
0.0160658
0.01308
0.0102291
0.0076176
0.00535046
0.00363825
0.00317513
0.00169319
0.00115246
0.00134133
0.000678049
0.00180023
0.00151736
0.00193606
0.0192653
0.0192583
0.019255
0.0192566
0.0192648
0.0192823
0.019313
0.0179519
0.0149147
0.0120498
0.00941008
0.00706728
0.00509091
0.00365595
0.00291219
0.00177596
0.00131799
0.001024
0.000958873
0.000907681
0.00108382
0.00101434
0.0192636
0.0192565
0.0192532
0.0192551
0.019264
0.0192829
0.0193159
0.0175147
0.01453
0.0117807
0.00930521
0.00715319
0.00536059
0.00396865
0.00308293
0.00285438
0.00208126
0.00230581
0.00175863
0.00167742
0.00166083
0.00161851
0.00151239
0.00180009
0.00202458
0.0192615
0.019254
0.0192503
0.0192518
0.0192603
0.0192788
0.0193113
0.017692
0.0147787
0.0121237
0.00977371
0.0077551
0.00610119
0.00480328
0.00402174
0.00357013
0.00311097
0.00242844
0.00217901
0.00241718
0.00296935
0.00363454
0.00345385
0.00333171
0.00342028
0.0033119
0.00319822
0.00309828
0.00300335
0.00291828
0.00284579
0.00278714
0.00274267
0.00271214
0.00269499
0.0026884
0.0026929
0.00270865
0.00273541
0.00277351
0.00282352
0.0028849
0.019259
0.0192509
0.0192465
0.019247
0.0192541
0.0192707
0.0193003
0.0183872
0.0155348
0.0129671
0.0107046
0.00877051
0.00717336
0.00590307
0.00494791
0.00446948
0.00403101
0.00475697
0.00328356
0.0036656
0.00459807
0.00616877
0.0075185
0.00787778
0.00780735
0.00745314
0.00703022
0.00700857
0.00662846
0.00624602
0.00588372
0.00555168
0.00525265
0.00498703
0.00475297
0.00454757
0.00436755
0.00420972
0.0040712
0.00394958
0.00384305
0.00375052
0.00367222
0.0192562
0.0192474
0.0192419
0.019241
0.0192461
0.0192596
0.0192847
0.0193248
0.0167163
0.0142062
0.0120057
0.0101141
0.00853655
0.00725855
0.00626088
0.00560027
0.00545938
0.00511005
0.00564837
0.00648231
0.00771867
0.00936643
0.0113345
0.0134997
0.0134596
0.0133989
0.0128626
0.0125217
0.012243
0.0119478
0.0116427
0.0113332
0.010878
0.0103377
0.00980698
0.00929622
0.00881078
0.00835208
0.00791882
0.0075081
0.00711634
0.00673992
0.00637754
0.0192654
0.0192532
0.0192435
0.0192368
0.0192342
0.0192369
0.0192468
0.0192664
0.0192992
0.0182501
0.0157812
0.0136143
0.0117507
0.0101839
0.00890731
0.0079173
0.00723665
0.00698347
0.00727931
0.00783308
0.00873299
0.0100501
0.0118525
0.0141608
0.0164157
0.0164012
0.0163899
0.0163724
0.0163394
0.0162831
0.0161963
0.0160717
0.0159032
0.0156873
0.0154224
0.0151091
0.0147497
0.014347
0.0139041
0.0134234
0.0129064
0.0123544
0.0111759
0.0101104
0.019263
0.0192502
0.0192395
0.0192316
0.0192271
0.0192272
0.0192333
0.0192474
0.0192722
0.0193095
0.0176683
0.0155247
0.0136788
0.0121278
0.0108669
0.00989906
0.00924529
0.00894512
0.00903419
0.00955914
0.0105616
0.0120435
0.014023
0.0165959
0.0181497
0.0181365
0.0181227
0.0181062
0.0180853
0.0180589
0.018026
0.0179853
0.0179353
0.0178737
0.0177981
0.0177056
0.0175927
0.0174557
0.0172901
0.0170903
0.0168498
0.016561
0.0162163
0.0157241
0.0192607
0.0192472
0.0192355
0.0192263
0.01922
0.0192176
0.0192201
0.019229
0.0192461
0.0192737
0.0193124
0.0177363
0.0159162
0.0143895
0.0131617
0.0122415
0.0116497
0.0114233
0.0116021
0.0122442
0.0133361
0.0148509
0.0168196
0.0190912
0.0190852
0.0190749
0.0190605
0.0190426
0.0190216
0.018998
0.0189723
0.0189446
0.0189148
0.0188827
0.0188478
0.0188097
0.0187674
0.0187199
0.0186657
0.0186029
0.0185289
0.0184402
0.0183323
0.0181992
0.0192585
0.0192442
0.0192317
0.0192212
0.0192133
0.0192085
0.0192077
0.019212
0.0192224
0.0192408
0.0192685
0.0193056
0.0184434
0.0169684
0.0157971
0.0149483
0.0144484
0.0143345
0.0146396
0.0153822
0.0165607
0.0181938
0.019485
0.0194885
0.0194858
0.0194775
0.0194647
0.0194483
0.0194295
0.019409
0.0193874
0.0193651
0.0193423
0.0193192
0.0192957
0.0192717
0.0192473
0.0192222
0.0191964
0.0191697
0.0191417
0.0191122
0.0190804
0.0190454
0.0192563
0.0192414
0.019228
0.0192164
0.0192069
0.0192001
0.0191964
0.0191967
0.0192017
0.0192124
0.01923
0.0192552
0.019288
0.0193269
0.0187265
0.0179738
0.0175828
0.0175909
0.0180325
0.0189359
0.0195469
0.0195631
0.0195726
0.0195758
0.0195733
0.019566
0.0195547
0.0195404
0.019524
0.0195063
0.019488
0.0194694
0.019451
0.0194327
0.0194148
0.0193973
0.0193801
0.0193634
0.0193471
0.0193315
0.0193166
0.0193026
0.0192899
0.0192784
0.0192543
0.0192389
0.0192247
0.019212
0.0192012
0.0191925
0.0191864
0.0191833
0.0191839
0.0191886
0.0191982
0.0192131
0.0192337
0.0192599
0.0192904
0.0193235
0.0193572
0.0193894
0.0194185
0.0194434
0.019463
0.0194769
0.0194849
0.0194876
0.0194855
0.0194793
0.0194697
0.0194577
0.0194439
0.0194292
0.0194141
0.0193989
0.0193839
0.0193694
0.0193553
0.0193418
0.0193289
0.0193167
0.0193052
0.0192945
0.0192848
0.0192762
0.0192689
0.0192631
0.0192525
0.0192365
0.0192216
0.019208
0.019196
0.0191857
0.0191776
0.0191718
0.0191688
0.0191689
0.0191724
0.0191796
0.0191906
0.0192054
0.0192234
0.0192438
0.0192652
0.0192863
0.0193056
0.019322
0.0193346
0.019343
0.0193473
0.0193474
0.019344
0.0193374
0.0193283
0.0193173
0.019305
0.019292
0.0192786
0.0192653
0.0192522
0.0192396
0.0192274
0.0192159
0.019205
0.0191948
0.0191854
0.0191767
0.019169
0.0191622
0.0191564
0.0191519
0.0192509
0.0192344
0.0192189
0.0192045
0.0191914
0.0191799
0.01917
0.019162
0.0191561
0.0191526
0.0191516
0.0191532
0.0191573
0.0191639
0.0191724
0.0191824
0.0191931
0.0192036
0.0192129
0.0192203
0.0192251
0.0192272
0.0192264
0.0192228
0.0192166
0.0192083
0.0191982
0.0191867
0.0191744
0.0191615
0.0191485
0.0191355
0.0191228
0.0191105
0.0190987
0.0190875
0.0190769
0.0190669
0.0190576
0.0190491
0.0190413
0.0190343
0.0190282
0.0190229
0.0192494
0.0192325
0.0192164
0.0192014
0.0191874
0.0191748
0.0191635
0.0191537
0.0191456
0.0191393
0.0191349
0.0191323
0.0191315
0.0191323
0.0191343
0.0191372
0.0191404
0.0191432
0.0191452
0.0191458
0.0191447
0.0191416
0.0191365
0.0191295
0.0191206
0.0191103
0.0190988
0.0190863
0.0190732
0.0190598
0.0190464
0.019033
0.0190199
0.0190072
0.018995
0.0189833
0.0189721
0.0189615
0.0189516
0.0189422
0.0189335
0.0189255
0.0189182
0.0189115
0.0192481
0.0192308
0.0192143
0.0191987
0.019184
0.0191704
0.019158
0.0191468
0.0191369
0.0191285
0.0191215
0.0191158
0.0191114
0.0191081
0.0191056
0.0191037
0.0191018
0.0190995
0.0190966
0.0190926
0.0190874
0.0190807
0.0190725
0.019063
0.0190522
0.0190403
0.0190276
0.0190142
0.0190004
0.0189864
0.0189724
0.0189586
0.018945
0.0189318
0.0189189
0.0189066
0.0188947
0.0188833
0.0188725
0.0188622
0.0188525
0.0188433
0.0188347
0.0188266
0.0192469
0.0192293
0.0192124
0.0191963
0.019181
0.0191667
0.0191533
0.019141
0.0191298
0.0191197
0.0191107
0.0191027
0.0190957
0.0190895
0.0190838
0.0190785
0.0190731
0.0190675
0.0190612
0.0190542
0.0190462
0.0190371
0.019027
0.0190158
0.0190037
0.0189908
0.0189773
0.0189633
0.018949
0.0189346
0.0189203
0.0189061
0.0188921
0.0188784
0.0188651
0.0188522
0.0188398
0.0188278
0.0188162
0.0188052
0.0187945
0.0187844
0.0187747
0.0187653
0.0192459
0.0192281
0.0192108
0.0191943
0.0191785
0.0191635
0.0191494
0.0191362
0.0191239
0.0191125
0.019102
0.0190923
0.0190833
0.019075
0.019067
0.0190593
0.0190515
0.0190435
0.0190351
0.019026
0.0190162
0.0190056
0.0189941
0.0189819
0.018969
0.0189555
0.0189415
0.0189272
0.0189127
0.0188981
0.0188835
0.0188691
0.0188549
0.018841
0.0188274
0.0188142
0.0188013
0.0187888
0.0187768
0.0187651
0.0187538
0.0187429
0.0187323
0.0187221
0.0192451
0.019227
0.0192095
0.0191926
0.0191764
0.0191609
0.0191462
0.0191322
0.019119
0.0191066
0.0190949
0.019084
0.0190736
0.0190637
0.0190541
0.0190446
0.0190352
0.0190255
0.0190155
0.019005
0.018994
0.0189823
0.01897
0.0189572
0.0189438
0.0189299
0.0189157
0.0189012
0.0188866
0.018872
0.0188574
0.0188429
0.0188286
0.0188146
0.0188008
0.0187874
0.0187743
0.0187615
0.0187491
0.018737
0.0187252
0.0187138
0.0187026
0.0186917
0.0192443
0.019226
0.0192083
0.0191911
0.0191746
0.0191587
0.0191435
0.0191289
0.0191151
0.0191019
0.0190893
0.0190773
0.0190658
0.0190548
0.0190439
0.0190333
0.0190226
0.0190118
0.0190007
0.0189892
0.0189773
0.018965
0.0189521
0.0189389
0.0189252
0.0189111
0.0188968
0.0188823
0.0188677
0.0188531
0.0188386
0.0188241
0.0188098
0.0187958
0.018782
0.0187684
0.0187552
0.0187422
0.0187296
0.0187172
0.0187051
0.0186932
0.0186816
0.0186701
0.0192437
0.0192253
0.0192073
0.0191899
0.0191731
0.0191569
0.0191412
0.0191262
0.0191118
0.019098
0.0190848
0.019072
0.0190597
0.0190478
0.0190361
0.0190245
0.0190129
0.0190012
0.0189893
0.0189772
0.0189647
0.0189519
0.0189387
0.0189252
0.0189113
0.0188972
0.0188829
0.0188684
0.0188539
0.0188393
0.0188249
0.0188105
0.0187963
0.0187823
0.0187685
0.0187549
0.0187416
0.0187285
0.0187157
0.0187031
0.0186907
0.0186786
0.0186666
0.0186547
0.0192432
0.0192246
0.0192065
0.0191889
0.0191719
0.0191554
0.0191394
0.019124
0.0191092
0.0190949
0.0190812
0.0190678
0.0190549
0.0190423
0.0190299
0.0190176
0.0190054
0.0189931
0.0189807
0.0189681
0.0189552
0.018942
0.0189286
0.0189149
0.0189009
0.0188868
0.0188725
0.0188581
0.0188436
0.0188292
0.0188148
0.0188006
0.0187864
0.0187725
0.0187587
0.0187451
0.0187317
0.0187186
0.0187057
0.0186929
0.0186804
0.018668
0.0186558
0.0186436
0.0192427
0.019224
0.0192058
0.0191881
0.0191709
0.0191541
0.019138
0.0191223
0.0191072
0.0190925
0.0190783
0.0190646
0.0190512
0.0190381
0.0190252
0.0190124
0.0189997
0.018987
0.0189741
0.0189611
0.018948
0.0189346
0.018921
0.0189072
0.0188932
0.018879
0.0188648
0.0188505
0.0188361
0.0188218
0.0188075
0.0187933
0.0187793
0.0187653
0.0187516
0.018738
0.0187247
0.0187115
0.0186985
0.0186856
0.018673
0.0186604
0.018648
0.0186356
0.0192424
0.0192236
0.0192053
0.0191875
0.0191701
0.0191532
0.0191368
0.019121
0.0191056
0.0190907
0.0190762
0.0190621
0.0190483
0.0190349
0.0190216
0.0190085
0.0189954
0.0189824
0.0189693
0.018956
0.0189427
0.0189291
0.0189154
0.0189015
0.0188875
0.0188734
0.0188592
0.0188449
0.0188306
0.0188164
0.0188022
0.0187881
0.0187741
0.0187603
0.0187466
0.018733
0.0187196
0.0187064
0.0186934
0.0186805
0.0186677
0.018655
0.0186424
0.0186299
0.0192421
0.0192233
0.0192049
0.019187
0.0191695
0.0191526
0.019136
0.01912
0.0191044
0.0190893
0.0190746
0.0190603
0.0190464
0.0190326
0.0190191
0.0190058
0.0189925
0.0189792
0.0189659
0.0189525
0.0189389
0.0189253
0.0189115
0.0188976
0.0188836
0.0188695
0.0188553
0.0188411
0.0188269
0.0188127
0.0187986
0.0187845
0.0187706
0.0187568
0.0187431
0.0187296
0.0187162
0.018703
0.0186899
0.0186769
0.0186641
0.0186513
0.0186387
0.018626
0.019242
0.0192231
0.0192047
0.0191867
0.0191692
0.0191521
0.0191355
0.0191194
0.0191037
0.0190885
0.0190736
0.0190592
0.019045
0.0190312
0.0190175
0.019004
0.0189905
0.0189771
0.0189636
0.0189501
0.0189365
0.0189228
0.018909
0.0188951
0.018881
0.0188669
0.0188528
0.0188386
0.0188245
0.0188103
0.0187962
0.0187822
0.0187684
0.0187546
0.0187409
0.0187274
0.018714
0.0187008
0.0186877
0.0186747
0.0186618
0.018649
0.0186363
0.0186235
0.0192419
0.0192231
0.0192046
0.0191866
0.019169
0.0191519
0.0191353
0.0191191
0.0191034
0.0190881
0.0190732
0.0190587
0.0190445
0.0190305
0.0190167
0.0190031
0.0189896
0.0189761
0.0189626
0.018949
0.0189354
0.0189216
0.0189078
0.0188939
0.0188798
0.0188657
0.0188516
0.0188374
0.0188233
0.0188092
0.0187951
0.0187811
0.0187673
0.0187535
0.0187399
0.0187264
0.018713
0.0186997
0.0186866
0.0186736
0.0186607
0.0186479
0.0186351
0.0186223
0.0190296
0.0190158
0.0190021
0.0189885
0.0189749
0.0189613
0.0189477
0.018934
0.0189202
0.0189063
0.0188923
0.0188782
0.018864
0.0188498
0.0188356
0.0188214
0.0188073
0.0187932
0.0187792
0.0187653
0.0187515
0.0187378
0.0190303
0.0190165
0.0190029
0.0189894
0.0189759
0.0189624
0.0189488
0.0189351
0.0189214
0.0189075
0.0188935
0.0188794
0.0188653
0.0188511
0.0188368
0.0188226
0.0188084
0.0187943
0.0187803
0.0187664
0.0187526
0.0187389
0.0190318
0.0190182
0.0190047
0.0189914
0.018978
0.0189646
0.0189511
0.0189376
0.0189239
0.01891
0.0188961
0.018882
0.0188678
0.0188536
0.0188393
0.0188251
0.0188109
0.0187967
0.0187826
0.0187687
0.0187548
0.0187412
0.0190341
0.0190207
0.0190075
0.0189944
0.0189813
0.0189681
0.0189548
0.0189413
0.0189277
0.018914
0.0189
0.018886
0.0188718
0.0188576
0.0188433
0.0188289
0.0188147
0.0188005
0.0187863
0.0187723
0.0187584
0.0187447
0.0190373
0.0190244
0.0190115
0.0189988
0.0189859
0.018973
0.01896
0.0189468
0.0189333
0.0189197
0.0189058
0.0188918
0.0188776
0.0188633
0.018849
0.0188346
0.0188202
0.0188059
0.0187917
0.0187777
0.0187637
0.01875
0.0190417
0.0190292
0.0190169
0.0190046
0.0189922
0.0189797
0.018967
0.0189541
0.0189409
0.0189274
0.0189136
0.0188997
0.0188855
0.0188712
0.0188568
0.0188423
0.0188279
0.0188135
0.0187992
0.0187851
0.0187711
0.0187573
0.0190473
0.0190355
0.0190238
0.0190121
0.0190004
0.0189885
0.0189762
0.0189637
0.0189508
0.0189376
0.018924
0.0189101
0.018896
0.0188817
0.0188672
0.0188527
0.0188381
0.0188237
0.0188093
0.0187951
0.0187811
0.0187673
0.0190543
0.0190434
0.0190326
0.0190218
0.0190109
0.0189997
0.0189882
0.0189763
0.0189639
0.018951
0.0189377
0.0189239
0.0189099
0.0188956
0.0188811
0.0188665
0.0188519
0.0188374
0.0188229
0.0188087
0.0187947
0.0187809
0.0190631
0.0190534
0.0190439
0.0190343
0.0190246
0.0190145
0.0190039
0.0189928
0.018981
0.0189687
0.0189558
0.0189424
0.0189285
0.0189143
0.0188998
0.0188853
0.0188706
0.0188561
0.0188417
0.0188274
0.0188134
0.0187997
0.0190744
0.0190663
0.0190584
0.0190505
0.0190424
0.0190338
0.0190246
0.0190147
0.019004
0.0189925
0.0189803
0.0189673
0.0189538
0.0189398
0.0189256
0.0189111
0.0188965
0.018882
0.0188677
0.0188536
0.0188397
0.0188262
0.0190887
0.0190829
0.0190774
0.0190718
0.019066
0.0190596
0.0190525
0.0190443
0.0190352
0.019025
0.0190137
0.0190016
0.0189887
0.0189752
0.0189613
0.0189471
0.0189328
0.0189185
0.0189044
0.0188906
0.018877
0.0188638
0.0191072
0.0191045
0.0191023
0.0191002
0.0190977
0.0190945
0.0190904
0.0190849
0.0190781
0.0190699
0.0190603
0.0190495
0.0190377
0.019025
0.0190117
0.018998
0.0189842
0.0189704
0.0189567
0.0189432
0.0189302
0.0189175
0.0191311
0.0191329
0.0191355
0.0191384
0.0191409
0.0191426
0.0191428
0.0191414
0.0191382
0.0191329
0.0191259
0.0191171
0.0191069
0.0190955
0.0190832
0.0190703
0.0190572
0.019044
0.0190309
0.0190181
0.0190056
0.0189937
0.0191625
0.0191708
0.0191804
0.0191907
0.0192006
0.0192094
0.0192163
0.0192208
0.0192226
0.0192217
0.0192181
0.0192121
0.019204
0.0191942
0.0191831
0.0191711
0.0191587
0.0191461
0.0191336
0.0191214
0.0191096
0.0190983
0.0192039
0.0192215
0.0192414
0.0192623
0.0192827
0.0193013
0.0193171
0.0193292
0.0193373
0.0193414
0.0193418
0.0193388
0.0193328
0.0193243
0.0193141
0.0193027
0.0192905
0.019278
0.0192656
0.0192534
0.0192416
0.0192303
0.0192584
0.0192886
0.0193212
0.0193543
0.0193859
0.0194143
0.0194385
0.0194576
0.0194712
0.0194795
0.0194828
0.0194817
0.0194767
0.0194686
0.0194582
0.0194462
0.0194331
0.0194197
0.0194062
0.0193928
0.0193799
0.0193675
0.019326
0.0187834
0.0180586
0.017712
0.0177791
0.0182845
0.0192354
0.0195454
0.0195611
0.019571
0.0195755
0.019575
0.0195703
0.019562
0.0195509
0.0195377
0.0195233
0.0195083
0.0194929
0.0194776
0.0194625
0.0194477
0.0169511
0.0157918
0.014972
0.014525
0.0144881
0.0148806
0.0156883
0.016877
0.0184147
0.0194841
0.01949
0.0194916
0.019489
0.0194828
0.0194733
0.0194612
0.0194473
0.0194321
0.019416
0.0193992
0.019382
0.0193643
0.0142978
0.0130782
0.0121849
0.0116519
0.0115249
0.0118495
0.0126132
0.0137488
0.0151632
0.0168106
0.0187382
0.0190761
0.019079
0.0190793
0.0190732
0.0190629
0.0190499
0.0190355
0.0190204
0.0190029
0.0189833
0.0189616
0.0180755
0.018074
0.0180689
0.0180608
0.0180501
0.0180344
0.0180112
0.0179805
0.0160962
0.0161198
0.0161357
0.0161431
0.0161409
0.0161121
0.0160577
0.0159769
0.0192082
0.0192191
0.0192512
0.0168424
0.0192187
0.0192154
0.0192201
0.0192407
0.0191218
0.0148619
0.01194
0.0192213
0.0192206
0.01923
0.0192581
0.0174284
0.0135953
0.0109791
0.019223
0.0192239
0.019236
0.0192682
0.0166358
0.0129994
0.0105216
0.00899644
0.019223
0.0192239
0.0192359
0.0192682
0.0166382
0.0130015
0.0105239
0.00899974
0.0192415
0.0192335
0.0192264
0.0192212
0.0192206
0.0192299
0.019258
0.0174326
0.0135987
0.0109831
0.00936922
0.01925
0.0192412
0.0192329
0.0192251
0.0192186
0.0192153
0.01922
0.0192405
0.0191271
0.0148648
0.0119431
0.0101257
0.0192497
0.0192407
0.0192321
0.0192236
0.0192155
0.0192092
0.0192081
0.0192189
0.019251
0.0168426
0.0133755
0.0111831
0.0192495
0.0192405
0.0192317
0.0192226
0.0192131
0.019204
0.0191976
0.019199
0.0192172
0.0192607
0.0151643
0.0123635
0.0192496
0.0192407
0.019232
0.0192227
0.0192125
0.0192014
0.0191911
0.0191853
0.0191919
0.0192214
0.0169306
0.0133598
0.0111666
0.019259
0.0192499
0.0192415
0.0192332
0.0192244
0.0192144
0.0192029
0.0191908
0.0191812
0.0191809
0.0192012
0.0180577
0.0138063
0.0111955
0.019269
0.0192592
0.0192506
0.0192429
0.0192356
0.0192281
0.0192195
0.0192094
0.0191984
0.0191891
0.0191883
0.0192077
0.0177985
0.0133811
0.0106679
0.0192689
0.0192595
0.0192516
0.019245
0.0192393
0.0192339
0.0192282
0.0192219
0.0192154
0.0192117
0.0192181
0.0192473
0.0159186
0.0119858
0.00956178
0.0192689
0.01926
0.0192529
0.0192477
0.019244
0.0192418
0.0192407
0.0192407
0.0192431
0.0192516
0.0192749
0.0174872
0.0129064
0.00973452
0.00785844
0.00665277
0.00606437
0.00543475
0.00456396
0.0192687
0.0192604
0.0192543
0.0192507
0.0192496
0.0192514
0.0192565
0.0192658
0.0192819
0.0193101
0.0174101
0.0131722
0.00957036
0.00694408
0.00556631
0.00668934
0.00536417
0.00471692
0.00426739
0.0192685
0.0192607
0.0192556
0.0192537
0.0192555
0.019262
0.0192745
0.0192956
0.0193293
0.0169667
0.0133302
0.00981266
0.00677472
0.00479585
0.00582225
0.00341278
0.00346199
0.00377954
0.00381767
0.00317169
0.0192679
0.0192606
0.0192564
0.0192562
0.0192609
0.0192722
0.0192928
0.0193265
0.0172275
0.0139232
0.0106316
0.0075957
0.00491662
0.00339893
0.00298537
0.00196616
0.00225426
0.00158112
0.00126406
0.000788596
0.0192671
0.0192601
0.0192566
0.0192577
0.0192649
0.0192805
0.0193083
0.018477
0.0152604
0.012086
0.00909899
0.00636911
0.0044205
0.00399189
0.0019074
0.00125653
0.00117113
0.000160262
0.0192658
0.0192589
0.0192558
0.0192577
0.0192666
0.0192852
0.0193181
0.0174024
0.0142313
0.011221
0.00847772
0.00606968
0.0043255
0.00344472
0.0019399
0.00154079
0.000924677
0.0192641
0.0192571
0.0192539
0.0192561
0.0192655
0.0192855
0.0193204
0.0170544
0.0139667
0.0111073
0.00854584
0.00635538
0.0044698
0.0032279
0.00270041
0.0017083
0.00146396
0.000869429
0.00127137
0.00166826
0.0192619
0.0192545
0.019251
0.0192527
0.0192616
0.0192809
0.0193151
0.017316
0.0143192
0.0115879
0.00916411
0.00709745
0.00538026
0.00415168
0.00338744
0.00288987
0.00220346
0.00204489
0.00225669
0.00183795
0.00175643
0.00178931
0.00188229
0.00213007
0.0023118
0.00291393
0.00300533
0.00305333
0.00307277
0.0030737
0.00306516
0.00305559
0.00304918
0.00304843
0.00305471
0.00306867
0.00309062
0.00312093
0.00316022
0.00320999
0.00327273
0.00335395
0.0192594
0.0192514
0.0192471
0.0192477
0.0192552
0.0192723
0.0193031
0.018092
0.0151766
0.0125487
0.0102338
0.00825307
0.00661968
0.00530859
0.0045889
0.00408214
0.00468746
0.00325637
0.00359143
0.0044544
0.00540626
0.00521025
0.0052147
0.005314
0.00624816
0.00637298
0.00647517
0.00654204
0.00652473
0.00643316
0.00629612
0.00613385
0.00596178
0.00579055
0.00562715
0.0054737
0.00533067
0.00519807
0.00507517
0.00496091
0.0048514
0.00474822
0.00464263
0.0192566
0.0192478
0.0192424
0.0192416
0.0192469
0.0192608
0.0192867
0.0192983
0.0164497
0.0138949
0.0116543
0.00973031
0.00812526
0.00682489
0.00587832
0.00561564
0.00514246
0.0054183
0.00608102
0.00709091
0.00839251
0.00972142
0.0107496
0.0112034
0.0108707
0.0108902
0.0109782
0.0111826
0.0113957
0.0115735
0.0117147
0.0118055
0.0117621
0.0114774
0.0111654
0.0108351
0.0104924
0.0101405
0.0097799
0.00940918
0.00882375
0.00814284
0.00749756
0.0192657
0.0192536
0.0192439
0.0192373
0.0192347
0.0192375
0.0192476
0.0192678
0.0193014
0.0180604
0.0155585
0.0133641
0.0114771
0.00989259
0.00860775
0.00763402
0.0071182
0.0072253
0.00760835
0.00826402
0.00925367
0.0105751
0.0121082
0.0136219
0.0148888
0.0159251
0.0159497
0.0159738
0.0159925
0.0160034
0.0160048
0.0159818
0.0159308
0.0158509
0.0157419
0.0156028
0.0154328
0.0152304
0.0149932
0.0147174
0.0143979
0.0140289
0.0130067
0.0119177
0.0192634
0.0192506
0.0192399
0.019232
0.0192275
0.0192277
0.019234
0.0192483
0.0192735
0.0193115
0.0175199
0.0153565
0.0134968
0.0119384
0.01068
0.00973437
0.00914983
0.00899573
0.00926454
0.00996566
0.0110893
0.0125593
0.0142721
0.0161561
0.0180042
0.0180152
0.0180187
0.0180179
0.0180136
0.0180059
0.0179955
0.0179802
0.0179567
0.0179249
0.0178844
0.0178341
0.017773
0.0176991
0.0176099
0.017502
0.0173707
0.0172099
0.0170123
0.0167687
0.0192611
0.0192475
0.0192359
0.0192267
0.0192204
0.019218
0.0192206
0.0192296
0.0192469
0.0192749
0.0193141
0.0176367
0.015809
0.0142826
0.0130652
0.0121719
0.0116362
0.0115046
0.0118236
0.0125825
0.0137252
0.015175
0.0169004
0.0189444
0.0190562
0.0190554
0.0190526
0.0190454
0.019034
0.0190201
0.0190046
0.0189865
0.0189659
0.018943
0.0189177
0.0188899
0.0188593
0.0188255
0.0187879
0.0187457
0.0186976
0.0186421
0.0185768
0.0184988
0.0192588
0.0192446
0.019232
0.0192215
0.0192136
0.0192089
0.0192081
0.0192124
0.019223
0.0192414
0.0192694
0.0193068
0.018397
0.0169267
0.0157702
0.0149516
0.014504
0.0144655
0.014857
0.0156682
0.016872
0.0184522
0.0194796
0.0194837
0.0194834
0.0194789
0.0194708
0.0194595
0.0194459
0.0194304
0.0194137
0.0193962
0.0193781
0.0193594
0.0193404
0.0193209
0.0193011
0.0192808
0.01926
0.0192387
0.0192169
0.0191946
0.0191716
0.0191478
0.0192567
0.0192418
0.0192284
0.0192168
0.0192073
0.0192004
0.0191968
0.019197
0.019202
0.0192128
0.0192304
0.0192557
0.0192886
0.0193275
0.0187526
0.01803
0.0176848
0.0177533
0.018262
0.0192229
0.0195458
0.019561
0.0195702
0.0195738
0.0195724
0.0195667
0.0195574
0.0195453
0.0195313
0.0195161
0.0195002
0.0194841
0.0194681
0.0194522
0.0194367
0.0194215
0.0194067
0.0193924
0.0193785
0.0193652
0.0193527
0.019341
0.0193306
0.0193215
0.0192547
0.0192392
0.019225
0.0192124
0.0192015
0.0191928
0.0191867
0.0191836
0.0191841
0.0191888
0.0191984
0.0192133
0.0192339
0.0192599
0.0192903
0.0193231
0.0193563
0.019388
0.0194164
0.0194406
0.0194596
0.019473
0.0194809
0.0194838
0.0194822
0.0194767
0.0194681
0.0194571
0.0194446
0.0194311
0.0194172
0.0194033
0.0193896
0.0193763
0.0193635
0.0193513
0.0193397
0.0193287
0.0193185
0.019309
0.0193005
0.019293
0.0192868
0.019282
0.0192529
0.0192369
0.019222
0.0192084
0.0191963
0.0191861
0.0191779
0.0191721
0.019169
0.0191691
0.0191726
0.0191797
0.0191907
0.0192053
0.0192231
0.0192432
0.0192642
0.0192848
0.0193036
0.0193194
0.0193315
0.0193396
0.0193436
0.0193438
0.0193405
0.0193342
0.0193255
0.019315
0.0193033
0.0192909
0.0192782
0.0192655
0.0192531
0.0192412
0.0192297
0.0192189
0.0192087
0.0191992
0.0191904
0.0191824
0.0191753
0.0191691
0.019164
0.0191599
0.0192512
0.0192347
0.0192192
0.0192049
0.0191918
0.0191802
0.0191703
0.0191623
0.0191564
0.0191529
0.0191518
0.0191533
0.0191573
0.0191638
0.0191722
0.019182
0.0191924
0.0192025
0.0192114
0.0192184
0.019223