/*--------------------------------*- C++ -*----------------------------------*\
  =========                 |
  \\      /  F ield         | OpenFOAM: The Open Source CFD Toolbox
   \\    /   O peration     | Website:  https://openfoam.org
    \\  /    A nd           | Version:  13
     \\/     M anipulation  |
\*---------------------------------------------------------------------------*/
FoamFile
{
    format      ascii;
    class       volScalarField;
    location    "600";
    object      p;
}
// * * * * * * * * * * * * * * * * * * * * * * * * * * * * * * * * * * * * * //

dimensions      [0 2 -2 0 0 0 0];

internalField   nonuniform List<scalar> 
171634
(
8.14999
7.64042
7.12256
6.59938
6.07377
5.5485
5.02614
4.50888
3.9985
3.49624
3.00281
2.51837
2.04259
1.57462
1.11326
0.657021
0.204238
-0.246804
-0.697804
-1.15036
-1.6059
-2.06559
8.15002
7.63669
7.11508
6.58825
6.05924
5.53096
5.00605
4.4868
3.97504
3.47203
2.97848
2.49451
2.01972
1.5532
1.09363
0.639414
0.188782
-0.260107
-0.709057
-1.15976
-1.61371
-2.07213
8.15263
7.63173
7.10248
6.56822
6.03225
5.49772
4.96752
4.44409
3.92939
3.42475
2.93084
2.44774
1.97488
1.51121
1.0552
0.605033
0.1587
-0.285865
-0.730682
-1.17762
-1.62834
-2.08419
8.1565
7.62388
7.08279
6.53698
5.99017
5.44593
4.9075
4.37762
3.85843
3.35134
2.85702
2.3754
1.90572
1.44664
0.99631
0.552559
0.113015
-0.324742
-0.763057
-1.20409
-1.64972
-2.10149
8.16211
7.61321
7.05564
6.49373
5.93181
5.37403
4.82417
4.28537
3.76005
3.24974
2.75506
2.27578
1.81082
1.35842
0.916268
0.481687
0.0517911
-0.376332
-0.805473
-1.23818
-1.67665
-2.12266
8.16922
7.59887
7.0195
6.43624
5.85428
5.27858
4.71362
4.16315
3.62994
3.11568
2.62095
2.14521
1.68697
1.2439
0.813029
0.390983
-0.0258154
-0.440931
-0.857739
-1.27928
-1.70815
-2.14644
8.17802
7.58022
6.97284
6.36208
5.75427
5.15549
4.5712
4.00593
3.46293
2.9441
2.44991
1.97944
1.53059
1.10025
0.684557
0.279215
-0.120271
-0.51831
-0.919016
-1.32604
-1.74246
-2.17072
8.18878
7.55644
6.91362
6.26795
5.62728
4.99922
4.39055
3.80682
3.25196
2.72809
2.23549
1.7727
1.33678
0.923574
0.528032
0.144618
-0.232346
-0.608347
-0.988413
-1.37693
-1.77753
-2.19304
8.20216
7.52677
6.83947
6.14981
5.46768
4.80272
4.16353
3.55705
2.98804
2.45886
1.96952
1.51778
1.09955
0.709228
0.340203
-0.0146866
-0.362655
-0.710547
-1.06451
-1.42977
-1.81058
-2.21017
8.21933
7.49056
6.74765
6.00266
5.26828
4.55693
3.87966
3.24524
2.65953
2.12515
1.64161
1.20558
0.811385
0.451497
0.11719
-0.200824
-0.511741
-0.824104
-1.14539
-1.48181
-1.83821
-2.2182
8.24233
7.4475
6.63507
5.82043
5.0201
4.25029
3.52543
2.85678
2.25155
1.71259
1.23862
0.824757
0.463115
0.143574
-0.145417
-0.415954
-0.679791
-0.947582
-1.22838
-1.5294
-1.8561
-2.21233
8.27452
7.39795
6.49841
5.59578
4.71177
3.86796
3.08343
2.37281
1.74498
1.20289
0.744011
0.361193
0.0435476
-0.222575
-0.452521
-0.662113
-0.866414
-1.07868
-1.30976
-1.5679
-1.85895
-2.18681
8.32128
7.34346
6.33438
5.31989
4.329
3.3908
2.53098
1.76874
1.11505
0.572592
0.136845
-0.202602
-0.460792
-0.656172
-0.80922
-0.940746
-1.0701
-1.21374
-1.38442
-1.59129
-1.84026
-2.13487
8.39106
7.28766
6.14012
4.98241
3.85375
2.79412
1.83861
1.01268
0.329738
-0.208424
-0.609487
-0.888493
-1.06623
-1.16774
-1.22053
-1.25218
-1.28761
-1.34708
-1.44532
-1.59186
-1.79213
-2.04861
8.49698
7.23757
5.91385
4.57079
3.26234
2.04456
0.966525
0.0622423
-0.652563
-1.17841
-1.52805
-1.72297
-1.79171
-1.76839
-1.69039
-1.59451
-1.51295
-1.47033
-1.48297
-1.55997
-1.70517
-1.91905
8.65898
7.20621
5.65803
4.07342
2.52707
1.09914
-0.139571
-1.14176
-1.88959
-2.3892
-2.66196
-2.73891
-2.65896
-2.46873
-2.21951
-1.96111
-1.73504
-1.57048
-1.48426
-1.48346
-1.56873
-1.73707
8.91117
7.22149
5.3865
3.48377
1.61879
-0.0910697
-1.54271
-2.67067
-3.45431
-3.90797
-4.0668
-3.97688
-3.69243
-3.27777
-2.80415
-2.33944
-1.93673
-1.62901
-1.43131
-1.34613
-1.36853
-1.49012
9.30596
7.32566
5.12069
2.79252
0.492285
-1.60356
-3.34003
-4.62509
-5.43998
-5.81776
-5.81112
-5.48356
-4.91347
-4.19336
-3.42496
-2.70124
-2.0881
-1.61915
-1.3029
-1.13295
-1.09546
-1.17399
9.91272
7.57818
4.89271
1.98522
-0.925371
-3.56338
-5.68449
-7.1599
-7.98716
-8.23588
-7.98678
-7.32275
-6.35102
-5.20983
-4.05071
-3.00252
-2.14229
-1.49649
-1.05946
-0.810167
-0.721535
-0.765834
-4.60706
-3.18043
-2.05572
-1.23697
-0.694416
-0.385677
-0.265817
-0.292565
-4.9027
-3.05713
-1.67741
-0.716266
-0.106849
0.221038
0.335259
0.295512
32.2096
32.2608
31.9477
31.1715
31.5076
32.0165
32.3164
32.3289
31.9602
31.1083
29.6833
31.6161
32.1171
32.4037
32.3949
31.9941
31.0974
29.6122
31.6695
32.1672
32.448
32.4294
32.0133
31.0954
29.5798
27.3967
31.6673
32.1647
32.4451
32.426
32.0092
31.0905
29.5738
27.3894
29.4161
30.2161
30.9607
31.6093
32.1094
32.3949
32.3846
31.9819
31.0828
29.5945
27.4497
28.48
29.3014
30.0995
30.8444
31.4963
32.0037
32.3019
32.312
31.9404
31.0848
29.6553
27.5886
28.3176
29.1353
29.9327
30.6811
31.3421
31.8659
32.19
32.2382
31.9216
31.1408
29.8046
27.8523
28.1071
28.9221
29.7219
30.4798
31.1595
31.7139
32.0834
32.1953
31.9647
31.2954
30.0906
28.2837
27.8519
28.6662
29.4733
30.2489
30.9603
31.5642
32.0048
32.2132
32.1066
31.5902
30.5589
28.9268
26.6435
26.7552
27.5537
28.3699
29.1896
29.9925
30.7505
31.4256
31.9673
32.3105
32.3739
32.0587
31.2477
29.8237
27.6962
25.6607
26.4195
27.2122
28.032
28.869
29.7079
30.5268
31.295
31.9693
32.4899
32.7765
32.7221
32.1901
31.0205
29.0571
25.2951
26.0395
26.8246
27.6478
28.5038
29.3839
30.2745
31.154
31.9895
32.7302
33.299
33.5812
33.4119
32.5723
30.8028
24.8866
25.6124
26.386
27.2087
28.0807
29.001
29.9655
30.9649
31.9808
32.9769
33.8867
34.5966
34.9129
34.5345
33.0549
30.0267
25.2531
18.6189
10.6944
24.4339
25.135
25.8898
26.7035
27.582
28.5317
29.5595
30.6706
31.8652
33.1294
34.4232
35.6526
36.6143
36.9281
35.9845
32.9615
27.5145
20.7027
11.1986
23.9362
24.6043
25.3298
26.1209
26.9882
27.945
29.0079
30.1968
31.5325
33.031
34.6949
36.4818
38.2407
39.6021
39.7749
37.3192
31.7884
21.8965
8.62042
-6.14302
23.3938
24.0189
24.7016
25.4518
26.2829
27.2122
28.2628
29.465
30.8552
32.4751
34.3713
36.5749
39.0574
41.6033
42.5786
42.0145
37.0956
25.2
9.51689
-14.9342
-36.2068
22.8091
23.3804
24.0052
24.6934
25.4582
26.317
27.2933
28.4177
29.727
31.2675
33.0923
35.2476
37.7343
40.4349
42.7263
43.8442
40.5279
32.0326
9.21897
-27.2994
-76.371
-71.7615
22.1871
22.6942
23.2464
23.8517
24.5201
25.2642
26.1011
27.0494
28.128
29.3525
30.7206
32.1856
33.5866
34.5206
36.3801
33.8638
23.3098
6.31327
-44.8643
-155.109
-85.9386
-45.1176
21.5356
21.9697
22.4371
22.9422
23.4896
24.0838
24.7289
25.4253
26.1609
26.8973
27.5449
27.9112
27.5889
25.7303
20.987
17.4731
-0.655902
-31.5517
-62.4158
-100.246
-107.816
-64.2731
-43.2976
-23.0183
-9.78986
20.8645
21.2198
21.5945
21.9886
22.4003
22.8248
23.252
23.6634
24.0172
24.2286
24.1458
23.4969
21.8075
18.2854
11.797
1.19583
-9.64874
-29.5978
-45.9603
-54.8119
-52.4133
-43.7945
-33.4633
-22.6195
-11.5907
-6.02493
-2.32062
-0.122929
1.20591
1.91694
2.14049
2.02896
1.72555
1.33634
0.935589
0.578653
0.308894
0.15927
0.149755
0.280981
0.521609
0.784763
20.185
20.4593
20.7385
21.0183
21.291
21.5439
21.7549
21.8916
21.8951
21.6607
21.022
19.7215
17.3775
13.474
7.43376
-1.03663
-11.2579
-21.1809
-30.2055
-34.5605
-34.6246
-31.3217
-26.137
-17.8031
-12.4164
-7.68908
-4.02824
-1.51314
0.0958144
1.04301
1.50293
1.61978
1.51622
1.28618
0.997982
0.703457
0.442109
0.240212
0.107881
0.0317285
-0.0352697
-0.19077
-0.606573
19.5087
19.7031
19.8889
20.0582
20.199
20.2927
20.3109
20.2122
19.9349
19.3797
18.3983
16.7912
14.3056
10.6654
5.66269
-0.660774
-7.62637
-13.9445
-18.7613
-21.3158
-21.8032
-20.6508
-18.2969
-15.1504
-11.4735
-7.87152
-4.84558
-2.57723
-1.01094
-0.00536598
0.570941
0.826986
0.856675
0.737637
0.530042
0.279625
0.0195223
-0.230781
-0.468124
-0.710652
-1.00532
-1.44052
-2.15325
18.7146
18.8464
18.9652
19.0637
19.1316
19.1542
19.1103
18.9694
18.6878
18.2081
17.4492
16.295
14.6048
12.2265
9.02852
4.96559
0.173571
-4.91454
-9.56782
-13.1533
-15.2058
-15.8509
-15.3821
-14.0547
-12.0757
-9.65749
-7.14761
-4.87971
-3.0423
-1.67928
-0.74468
-0.165309
0.132379
0.216583
0.14724
-0.0270325
-0.269227
-0.553693
-0.867016
-1.21027
-1.6023
-2.08398
-2.72279
-3.61422
18.1368
18.2075
18.257
18.277
18.2559
18.178
18.0215
17.7572
17.3451
16.7343
15.8624
14.6489
13.0006
10.8313
8.08899
4.79572
1.09813
-2.69503
-6.1406
-8.8236
-10.5321
-11.309
-11.2992
-10.6443
-9.47167
-7.93359
-6.23668
-4.59911
-3.18582
-2.07671
-1.27877
-0.760349
-0.477176
-0.383465
-0.436733
-0.600906
-0.847962
-1.15891
-1.52496
-1.94914
-2.44828
-3.05496
-3.81689
-4.79612
17.5839
17.5992
17.5872
17.539
17.4427
17.2828
17.0389
16.6846
16.1861
15.5017
14.5833
13.379
11.8335
9.90262
7.57473
4.89586
1.9935
-0.915229
-3.55586
-5.68332
-7.16556
-7.99539
-8.23864
-7.97941
-7.3085
-6.33847
-5.20693
-4.0609
-3.02622
-2.18105
-1.55337
-1.1372
-0.91019
-0.844559
-0.912392
-1.0887
-1.35354
-1.69359
-2.10327
-2.58597
-3.15495
-3.83377
-4.65527
-5.65825
17.0607
17.027
16.9618
16.8559
16.6982
16.474
16.1652
15.7494
15.1992
14.4826
13.5641
12.4095
10.9898
9.28783
7.31183
5.11093
2.78577
0.486568
-1.61073
-3.35067
-4.63951
-5.45613
-5.83191
-5.82106
-5.49107
-4.92327
-4.21038
-3.45241
-2.74086
-2.14153
-1.68846
-1.39002
-1.23915
-1.22161
-1.32079
-1.5207
-1.80814
-2.17426
-2.61566
-3.13526
-3.74256
-4.45342
-5.28858
-6.27037
16.5704
16.4945
16.3841
16.2309
16.0244
15.7516
15.3972
14.9425
14.3663
13.6449
12.7541
11.6717
10.3829
8.88629
7.19925
5.36668
3.46563
1.6011
-0.109741
-1.5635
-2.6938
-3.47886
-3.9324
-4.09044
-4.00086
-3.71954
-3.31124
-2.84658
-2.39261
-2.00229
-1.70871
-1.52663
-1.45812
-1.49805
-1.63785
-1.86822
-2.18102
-2.57071
-3.0353
-3.57692
-4.20178
-4.91966
-5.74275
-6.68265
16.1153
16.0034
15.8557
15.6644
15.4203
15.1122
14.7274
14.251
13.667
12.9585
12.1094
11.1071
9.9452
8.6285
7.17719
5.63029
4.04644
2.50008
1.07129
-0.168989
-1.17299
-1.92237
-2.42308
-2.69689
-2.77583
-2.69969
-2.51545
-2.27426
-2.02554
-1.81059
-1.65851
-1.58593
-1.59971
-1.70033
-1.88465
-2.14814
-2.48636
-2.89617
-3.37652
-3.92877
-4.55669
-5.2658
-6.06228
-6.95085
15.6962
15.5542
15.3761
15.1549
14.8827
14.5501
14.1468
13.6612
13.0815
12.3961
11.5948
10.6711
9.62419
8.46188
7.20308
5.87984
4.53688
3.22803
2.00928
0.929808
0.0237988
-0.69282
-1.22052
-1.5723
-1.77016
-1.84313
-1.82563
-1.755
-1.66791
-1.59635
-1.56479
-1.58944
-1.67926
-1.83795
-2.0659
-2.36175
-2.72363
-3.15004
-3.64051
-4.19578
-4.81779
-5.50912
-6.27201
-7.10698
15.3132
15.1465
14.944
14.6999
14.4073
14.0586
13.6456
13.1595
12.5918
11.9347
11.1823
10.3318
9.38541
8.35208
7.24871
6.10106
4.94295
3.81354
2.75274
1.7957
0.967918
0.282886
-0.257612
-0.66145
-0.943931
-1.12613
-1.23328
-1.29294
-1.33257
-1.377
-1.44636
-1.55526
-1.71315
-1.92531
-2.19418
-2.52038
-2.9037
-3.34371
-3.84027
-4.39366
-5.00452
-5.67347
-6.40034
-7.1833
14.9658
14.7789
14.5573
14.296
13.9892
13.6308
13.2144
12.7335
12.1821
11.5552
10.8497
10.0651
9.20534
8.27903
7.30078
6.29114
5.27587
4.2839
3.34431
2.48278
1.71852
1.06251
0.517387
0.0785154
-0.264681
-0.527416
-0.72826
-0.887724
-1.02658
-1.16409
-1.31662
-1.49685
-1.71378
-1.97329
-2.27882
-2.63217
-3.03411
-3.48488
-3.9845
-4.53294
-5.13
-5.77504
-6.4665
-7.20127
14.6528
14.4497
14.2134
13.9395
13.6233
13.2599
12.8445
12.3723
11.8392
11.2422
10.58
9.8536
9.06742
8.2295
7.35213
6.45169
5.54795
4.6626
3.81717
3.03076
2.31795
1.68761
1.14264
0.680449
0.293757
-0.028422
-0.299814
-0.535788
-0.752144
-0.963887
-1.1842
-1.42385
-1.69098
-1.9914
-2.32893
-2.70594
-3.12373
-3.58289
-4.08355
-4.62541
-5.20776
-5.82924
-6.4875
-7.17884
14.3729
14.1571
13.9095
13.6266
13.3046
12.9396
12.528
12.0664
11.552
10.9833
10.3601
9.68421
8.96009
8.19495
7.39903
6.58542
5.76942
4.96751
4.1959
3.46899
2.79801
2.19013
1.64816
1.17077
0.752996
0.386888
0.0622811
-0.23239
-0.509204
-0.779869
-1.05498
-1.34351
-1.65261
-1.98767
-2.3525
-2.74963
-3.18059
-3.64614
-4.14641
-4.68095
-5.24875
-5.84803
-6.47611
-7.12907
14.1247
13.8988
13.6428
13.3538
13.0286
12.6643
12.2582
11.8078
11.3116
10.7688
10.18
9.54744
8.87531
8.16994
7.43985
6.69553
5.94896
5.21283
4.49952
3.82006
3.18319
2.59473
2.05727
1.57026
1.13034
0.731771
0.367019
0.0273456
-0.29652
-0.613736
-0.932794
-1.26111
-1.60482
-1.96872
-2.35639
-2.7703
-3.21201
-3.6823
-4.18128
-4.70839
-5.26245
-5.84151
-6.44275
-7.06233
13.9065
13.6729
13.4108
13.1177
12.7912
12.429
12.0292
11.59
11.1107
10.5911
10.0322
9.43636
8.80749
8.15106
7.47417
6.78527
6.09386
5.40983
4.74278
4.10129
3.49227
2.92044
2.38814
1.89532
1.43973
1.01725
0.622257
0.248147
-0.112222
-0.466035
-0.820087
-1.18047
-1.55236
-1.93994
-2.34642
-2.77409
-3.22441
-3.69812
-4.19526
-4.71522
-5.25672
-5.81778
-6.39559
-6.9865
13.7168
13.4773
13.2108
12.9152
12.5887
12.2294
11.8361
11.4076
10.9435
10.4442
9.91087
9.34589
8.75277
8.13625
7.50225
6.85768
6.21014
5.56745
4.93718
4.32612
3.73979
3.18206
2.65504
2.15898
1.69241
1.25236
0.834659
0.434284
0.045712
-0.336704
-0.718409
-1.10438
-1.49895
-1.90571
-2.32745
-2.76621
-3.22332
-3.6994
-4.19444
-4.70777
-5.23809
-5.78344
-6.34113
-6.90772
13.5543
13.3103
13.0407
12.7437
12.4179
12.062
11.6749
11.2561
10.8054
10.3235
9.81177
9.27237
8.70851
8.12429
7.52472
6.91547
6.30273
5.69279
5.09173
4.50499
3.93705
3.39116
2.86918
2.37156
1.89737
1.4445
1.00983
0.589526
0.179303
-0.225301
-0.628658
-1.03483
-1.44744
-1.8695
-2.30343
-2.751
-3.21336
-3.69102
-4.18388
-4.69126
-5.21186
-5.74378
-6.28446
-6.83072
13.4176
13.1703
12.8985
12.6009
12.2763
11.9237
11.5423
11.132
10.6928
10.2255
9.73161
9.2131
8.67287
8.11453
7.54231
6.96098
6.37564
5.79147
5.21342
4.64595
4.09278
3.55665
3.03925
2.54112
2.06173
1.59958
1.15233
0.717036
0.290345
-0.131289
-0.551397
-0.973314
-1.40004
-1.83412
-2.27763
-2.73207
-3.19841
-3.67705
-4.16783
-4.67003
-5.18238
-5.70305
-6.22963
-6.75917
13.3055
13.0558
12.7826
12.4849
12.1616
11.812
11.4357
11.0325
10.6028
10.1475
9.66799
9.16616
8.64466
8.10665
7.55581
6.99621
6.43214
5.86794
5.30776
4.75534
4.21381
3.68557
3.17213
2.6741
2.19122
1.72243
1.26598
0.819568
0.38054
-0.0539567
-0.486803
-0.920755
-1.35832
-1.80167
-2.25254
-2.71222
-3.18151
-3.66072
-4.14961
-4.64746
-5.15302
-5.66453
-6.17971
-6.69582
13.2171
12.9657
12.6916
12.394
12.072
11.725
11.3528
10.9554
10.5334
10.0874
9.61908
9.13014
8.62298
8.10047
7.56585
7.02266
6.47463
5.92549
5.37879
4.83777
4.30515
3.78304
3.27283
2.77518
2.29003
1.8166
1.35356
0.8991
0.451062
0.00711008
-0.435151
-0.878038
-1.32368
-1.77393
-2.23028
-2.69383
-3.16525
-3.64474
-4.13203
-4.62638
-5.12656
-5.63089
-6.13719
-6.64289
13.1516
12.8991
12.6245
12.3271
12.0061
11.6612
11.2922
10.8992
10.4828
10.0439
9.58375
9.10421
8.60749
8.09619
7.57325
7.04186
6.50533
5.96698
5.42996
4.89714
4.37097
3.85335
3.3456
2.8484
2.36179
1.88525
1.41769
0.957644
0.503316
0.0527254
-0.396174
-0.845382
-1.29675
-1.7519
-2.21213
-2.67841
-3.15129
-3.63091
-4.11696
-4.60868
-5.10488
-5.60391
-6.1037
-6.60179
13.1084
12.8552
12.5803
12.2831
11.9629
11.6194
11.2526
10.8625
10.4498
10.0155
9.56073
9.08732
8.59737
8.09332
7.57792
7.05412
6.52499
5.99358
5.46279
4.93525
4.41325
3.89857
3.39247
2.89564
2.4082
1.92975
1.45939
0.99585
0.537565
0.0827841
-0.370319
-0.823539
-1.27855
-1.73681
-2.19951
-2.66751
-3.14129
-3.62094
-4.10613
-4.5961
-5.08967
-5.58521
-6.08074
-6.57386
13.0873
12.8337
12.5588
12.2618
11.9421
11.5994
11.2337
10.8452
10.4345
10.0025
9.55048
9.08017
8.59361
8.09317
7.5815
7.06145
6.53594
6.00791
5.48013
4.95515
4.43514
3.92184
3.41649
2.91979
2.43189
1.95245
1.48068
1.01539
0.555129
0.0982634
-0.356926
-0.812136
-1.26895
-1.72875
-2.19266
-2.6615
-3.13572
-3.61538
-4.10013
-4.58922
-5.08148
-5.5753
-6.06872
-6.55939
8.15583
7.64714
7.13015
6.6078
6.08298
5.55844
5.03673
4.52004
4.01011
3.5082
3.01501
2.5307
2.05494
1.5869
1.12538
0.668894
0.215802
-0.235605
-0.687013
-1.14
-1.59599
-2.05614
8.15598
7.64355
7.12282
6.59685
6.06865
5.54111
5.01687
4.49819
3.9869
3.48424
2.99093
2.50709
2.0323
1.56569
1.10593
0.651455
0.200492
-0.248783
-0.698161
-1.14932
-1.60374
-2.06264
8.15879
7.63884
7.11053
6.57717
6.04205
5.5083
4.9788
4.45597
3.94175
3.43746
2.94379
2.4608
1.98793
1.52413
1.0679
0.617424
0.170712
-0.274288
-0.71958
-1.16702
-1.61826
-2.07462
8.16298
7.63138
7.0913
6.54646
6.00058
5.45718
4.9195
4.39026
3.87157
3.36484
2.87075
2.38921
1.91949
1.46023
1.00962
0.565488
0.125493
-0.312774
-0.75164
-1.19325
-1.63947
-2.09182
8.169
7.62123
7.06478
6.50394
5.94304
5.3862
4.83715
4.29904
3.77425
3.26432
2.76986
2.29062
1.82556
1.37292
0.930401
0.49535
0.0649025
-0.363834
-0.79363
-1.22701
-1.66617
-2.11287
8.17664
7.60755
7.02944
6.4474
5.86658
5.29192
4.72788
4.17817
3.64554
3.13167
2.63713
2.1614
1.70299
1.25958
0.82823
0.405591
-0.0118913
-0.427757
-0.845357
-1.26771
-1.69741
-2.13651
8.18607
7.58971
6.98375
6.37439
5.76789
5.1703
4.58706
4.02264
3.48029
2.96187
2.46785
1.99733
1.54821
1.1174
0.701086
0.29499
-0.10535
-0.504312
-0.905985
-1.314
-1.73141
-2.16065
8.19757
7.56687
6.92569
6.28163
5.64249
5.01582
4.40837
3.82563
3.2715
2.74806
2.2556
1.79268
1.35636
0.942524
0.546169
0.161798
-0.216232
-0.593373
-0.974622
-1.36434
-1.76614
-2.18283
8.21175
7.53826
6.85287
6.16509
5.48476
4.82145
4.18371
3.5784
3.01023
2.48153
1.99229
1.5403
1.12149
0.730329
0.36025
0.00414742
-0.345149
-0.694443
-1.04985
-1.41657
-1.79883
-2.19985
8.22977
7.50319
6.76252
6.01974
5.28751
4.57815
3.90264
3.26964
2.68493
2.15108
1.66758
1.23114
0.836137
0.475126
0.13946
-0.180081
-0.492639
-0.806716
-1.12976
-1.46794
-1.82609
-2.2078
8.25361
7.46129
6.65146
5.83945
5.0417
4.27434
3.55168
2.88481
2.28082
1.74246
1.26845
0.853934
0.491157
0.170119
-0.120616
-0.393057
-0.6589
-0.928763
-1.21166
-1.5148
-1.8436
-2.2019
8.2865
7.41279
6.51625
5.61672
4.73586
3.89512
3.11342
2.40512
1.77889
1.2375
0.778427
0.39461
0.0753602
-0.192762
-0.424931
-0.636864
-0.843573
-1.0583
-1.29188
-1.55252
-1.84608
-2.17641
8.33367
7.35901
6.35331
5.34244
4.3554
3.42117
2.56515
1.80609
1.15456
0.612953
0.176732
-0.164293
-0.424795
-0.622864
-0.778721
-0.913059
-1.04522
-1.19169
-1.36528
-1.57507
-1.82699
-2.12452
8.40331
7.3032
6.15928
5.00569
3.88178
2.82741
1.87723
1.05591
0.376044
-0.161061
-0.563106
-0.844681
-1.02585
-1.13102
-1.18732
-1.22221
-1.26076
-1.32336
-1.42484
-1.57473
-1.77841
-2.03832
8.50812
7.25175
5.93154
4.59291
3.29031
2.07984
1.00978
0.112538
-0.597705
-1.12236
-1.47403
-1.6733
-1.74732
-1.72904
-1.65524
-1.56281
-1.48437
-1.44495
-1.46106
-1.54178
-1.69087
-1.90873
8.66747
7.2166
5.67079
4.09015
2.55078
1.13344
-0.0923318
-1.08265
-1.82322
-2.32171
-2.59897
-2.68377
-2.61232
-2.42911
-2.18461
-1.92915
-1.70544
-1.54362
-1.46082
-1.46401
-1.55361
-1.72651
8.91476
7.2241
5.38822
3.48723
1.63005
-0.0639267
-1.49392
-2.60104
-3.37195
-3.82477
-3.99343
-3.91854
-3.64838
-3.24343
-2.77405
-2.31002
-1.90734
-1.60091
-1.40608
-1.32489
-1.35198
-1.47872
9.30171
7.31435
5.10095
2.7682
0.475334
-1.59557
-3.29338
-4.54004
-5.33272
-5.7117
-5.72613
-5.42826
-4.88329
-4.17636
-3.40911
-2.68026
-2.06223
-1.59174
-1.27712
-1.1108
-1.07816
-1.16239
9.89723
7.54352
4.83291
1.90455
-1.00289
-3.5978
-5.64528
-7.04867
-7.83861
-8.0963
-7.8922
-7.28546
-6.35748
-5.23192
-4.06297
-2.99529
-2.11999
-1.46784
-1.03083
-0.784712
-0.701079
-0.751681
-4.67484
-3.20009
-2.04307
-1.21068
-0.665761
-0.359698
-0.245457
-0.279771
-5.05451
-3.10046
-1.66215
-0.680097
-0.0663321
0.258808
0.365512
0.315116
32.4738
32.5781
32.3108
31.5627
31.6904
32.253
32.6125
32.6847
32.3689
31.548
30.1043
31.8132
32.3725
32.7242
32.7815
32.4406
31.577
30.0664
31.8741
32.4325
32.7811
32.8323
32.4795
31.5952
30.0504
27.7429
31.8718
32.43
32.7782
32.8289
32.4753
31.5901
30.044
27.7349
29.4921
30.3238
31.1084
31.8064
32.3648
32.7153
32.7711
32.4281
31.5619
30.0478
27.7886
28.5276
29.3718
30.1994
30.9815
31.6791
32.2402
32.5979
32.6677
32.3488
31.5239
30.0751
27.9136
28.3595
29.1977
30.0218
30.8037
31.5055
32.0772
32.4541
32.5554
32.2843
31.5314
30.1858
28.1657
28.1421
28.9752
29.7984
30.5855
31.3008
31.8969
32.3124
32.471
32.2811
31.6384
30.4363
28.5926
27.8794
28.7093
29.5364
30.3371
31.0791
31.719
32.2
32.4504
32.3833
31.897
30.8817
29.2436
26.9257
26.7652
27.5736
28.4029
29.2395
30.0638
30.8482
31.555
32.1333
32.5167
32.6215
32.3448
31.5658
30.1646
28.0442
25.6592
26.424
27.2249
28.0556
28.9069
29.7642
30.6066
31.404
32.1138
32.6764
33.0107
33.0079
32.5285
31.4093
29.4854
25.2898
26.0389
26.8307
27.663
28.5313
29.4279
30.3403
31.2488
32.1223
32.9117
33.5414
33.8967
33.8097
33.0506
31.3391
24.8779
25.6074
26.3864
27.2168
28.0998
29.0355
30.022
31.0527
32.113
33.1712
34.166
34.9878
35.4363
35.1849
33.7664
30.6418
25.899
19.5169
11.6215
24.4224
25.1263
25.8855
26.7059
27.5945
28.5596
29.6109
30.7579
32.0075
33.3557
34.7757
36.1843
37.3753
37.9316
37.0873
33.4957
28.5235
21.3965
12.2932
23.9223
24.5926
25.3217
26.1188
26.9958
27.9683
29.0569
30.2876
31.6921
33.3042
35.152
37.2242
39.4022
41.318
40.1428
38.5434
31.7102
21.3624
9.17599
-4.31584
23.3782
24.005
24.6906
25.4463
26.2866
27.2319
28.3099
29.5593
31.0309
32.7927
34.9328
37.5494
40.7124
44.4171
45.1488
44.9679
37.6621
24.4734
5.68992
-8.94308
22.7923
23.3648
23.9921
24.6851
25.4586
26.3328
27.3366
28.5099
29.9058
31.6008
33.6989
36.3324
39.5878
42.4354
46.9934
48.7553
45.7537
53.4852
22.1697
22.6774
23.2316
23.841
24.5171
25.2752
26.1371
27.1303
28.2881
29.6503
31.2559
33.1211
35.1109
37.6408
40.3222
38.5691
28.5412
21.5179
21.9523
22.4212
22.9296
23.4834
24.0891
24.7547
25.4871
26.2833
27.1187
27.9222
28.5157
28.4469
26.7735
26.5113
16.3687
-0.410371
-75.4798
-25.7898
-8.44993
20.8469
21.2023
21.578
21.9745
22.3911
22.8244
23.2665
23.7031
24.0965
24.3659
24.3592
23.7867
22.1009
18.2967
11.0686
4.03524
-15.9199
-37.8908
-53.7292
-56.2108
-53.9008
-46.1943
-37.8907
-25.5872
-15.1041
-6.86833
-2.17742
0.347336
1.63267
2.26084
2.42234
2.25762
1.90645
1.47441
1.03589
0.648256
0.358006
0.201375
0.202691
0.368735
0.678859
1.05436
20.1678
20.442
20.7218
21.0034
21.2796
21.5385
21.7595
21.9121
21.9386
21.7329
21.1217
19.8266
17.4153
13.2618
6.67372
-2.64583
-11.4076
-23.7782
-30.9581
-33.5766
-33.0008
-30.2895
-26.5574
-21.3057
-13.6176
-8.60936
-4.39716
-1.49599
0.259727
1.23435
1.67515
1.75358
1.60717
1.33801
1.01756
0.698476
0.420699
0.211776
0.084665
0.0310372
0.00769846
-0.0864107
-0.437483
19.4923
19.6865
19.8727
20.0431
20.1862
20.284
20.3085
20.2192
19.9545
19.4119
18.4371
16.8162
14.27
10.4791
5.18725
-1.46573
-8.58445
-14.8045
-18.8814
-20.8008
-21.084
-20.1845
-18.3625
-15.6136
-12.1928
-8.47098
-5.14408
-2.64369
-0.971735
0.0637041
0.63885
0.882402
0.895641
0.759101
0.534334
0.26795
-0.00598809
-0.267462
-0.513103
-0.75993
-1.0544
-1.48578
-2.19806
18.6995
18.831
18.9495
19.0482
19.1169
19.1411
19.0999
18.963
18.6868
18.2137
17.4604
16.3061
14.602
12.1834
8.90247
4.70229
-0.25396
-5.41341
-9.96949
-13.1767
-14.9019
-15.4355
-15.0739
-13.9874
-12.2443
-9.9555
-7.40573
-5.01748
-3.07502
-1.65453
-0.698196
-0.114316
0.179582
0.255173
0.174188
-0.0129478
-0.268402
-0.566298
-0.892893
-1.24913
-1.654
-2.14921
-2.80312
-3.7144
18.1228
18.1931
18.2425
18.2626
18.242
18.1652
18.0107
17.749
17.3403
16.7331
15.8641
14.6495
12.9919
10.7994
8.01447
4.65938
0.897651
-2.91286
-6.27743
-8.79789
-10.3615
-11.0812
-11.11
-10.5574
-9.49775
-8.03145
-6.33922
-4.66163
-3.20145
-2.06098
-1.24928
-0.72793
-0.447299
-0.359268
-0.420097
-0.593117
-0.849877
-1.1711
-1.54784
-1.98311
-2.49397
-3.11364
-3.89124
-4.89038
17.5711
17.5861
17.5739
17.5258
17.43
17.271
17.0285
16.6763
16.1803
15.4983
14.5818
13.3773
11.8271
9.88492
7.53749
4.83323
1.90995
-0.995572
-3.59297
-5.64678
-7.05724
-7.85025
-8.10208
-7.88664
-7.2715
-6.34392
-5.22737
-4.07172
-3.01821
-2.15842
-1.52422
-1.10739
-0.883112
-0.82226
-0.896319
-1.07988
-1.35264
-1.70104
-2.11946
-2.61136
-3.19023
-3.87996
-4.71388
-5.7315
17.049
17.0152
16.9498
16.8442
16.6868
16.4635
16.156
15.7419
15.1937
14.4793
13.5626
12.4088
10.988
9.28185
7.29852
5.089
2.7592
0.467431
-1.60479
-3.30599
-4.55638
-5.35084
-5.7278
-5.73753
-5.43645
-4.89321
-4.19309
-3.43605
-2.71942
-2.1153
-1.66064
-1.36367
-1.21629
-1.20348
-1.30822
-1.51424
-1.80818
-2.18107
-2.62955
-3.15656
-3.77173
-4.49107
-5.33545
-6.32737
16.5599
16.4838
16.3735
16.2205
16.0145
15.7425
15.3892
14.9361
14.3618
13.6426
12.7539
11.6731
10.3854
8.88854
7.20033
5.36673
3.46737
1.61068
-0.0841764
-1.51617
-2.62555
-3.39781
-3.85046
-4.01816
-3.94331
-3.67601
-3.2772
-2.81669
-2.36353
-1.97334
-1.68096
-1.50158
-1.4369
-1.48134
-1.62608
-1.86169
-2.17995
-2.57526
-3.04564
-3.5932
-4.22426
-4.94871
-5.77863
-6.72549
16.1059
15.9939
15.8463
15.6553
15.4117
15.1045
14.7208
14.2459
13.6637
12.9573
12.1106
11.1106
9.95079
8.63596
7.18641
5.64178
4.06187
2.52251
1.10437
-0.122881
-1.11493
-1.85698
-2.35653
-2.63478
-2.72143
-2.65365
-2.47633
-2.23979
-1.994
-1.7814
-1.632
-1.56274
-1.58038
-1.68517
-1.87388
-2.14187
-2.48467
-2.89912
-3.38414
-3.9411
-4.57377
-5.28769
-6.08894
-6.98214
15.6878
15.5459
15.3679
15.1471
14.8755
14.5437
14.1415
13.6574
13.0795
12.3961
11.5972
10.6761
9.63178
8.47221
7.21637
5.89656
4.558
3.25501
2.04361
0.972164
0.0732515
-0.638758
-1.16522
-1.51899
-1.72113
-1.79931
-1.78678
-1.72031
-1.63661
-1.56812
-1.53973
-1.56778
-1.66123
-1.82369
-2.05547
-2.35518
-2.7209
-3.15115
-3.64539
-4.20439
-4.83005
-5.52489
-6.29112
-7.1292
15.3058
15.1391
14.9369
14.6932
14.4013
14.0534
13.6415
13.1568
12.5908
11.9357
11.1856
10.3376
9.39404
8.3637
7.26355
6.11947
4.96546
3.84079
2.78528
1.83359
1.01046
0.328539
-0.210875
-0.615651
-0.900658
-1.08626
-1.19703
-1.26014
-1.30299
-1.35049
-1.42293
-1.53502
-1.69618
-1.91166
-2.18383
-2.51331
-2.89985
-3.343
-3.84261
-4.39893
-5.0126
-5.68417
-6.41345
-7.19852
14.9591
14.7724
14.5512
14.2903
13.9842
13.6266
13.2113
12.7317
12.182
11.557
10.8536
10.0715
9.21434
8.29092
7.31577
6.30947
5.2978
4.30969
3.37407
2.51635
1.7553
1.10147
0.55723
0.117912
-0.226834
-0.491853
-0.695356
-0.857596
-0.999226
-1.13951
-1.29483
-1.4779
-1.6977
-1.96007
-2.26843
-2.62454
-3.02916
-3.48251
-3.98459
-4.53535
-5.13458
-5.78159
-6.4748
-7.21101
14.6469
14.4441
14.2081
13.9346
13.6191
13.2566
12.8422
12.3712
11.8397
11.2444
10.5842
9.86007
9.07635
8.24108
7.36653
6.46905
5.5684
4.68619
3.84385
3.06026
2.34979
1.72106
1.17683
0.714449
0.326778
0.00301818
-0.270347
-0.508515
-0.727179
-0.941294
-1.16403
-1.40612
-1.67571
-1.97857
-2.31849
-2.69781
-3.11783
-3.57911
-4.08175
-4.62547
-5.20951
-5.83248
-6.49202
-7.18438
14.3677
14.1521
13.9049
13.6225
13.3011
12.937
12.5263
12.0659
11.5529
10.9858
10.3644
9.69058
8.96868
8.2059
7.41247
6.60143
5.78804
4.98871
4.21955
3.49484
2.82564
2.21901
1.67766
1.20024
0.781837
0.414614
0.0885335
-0.207855
-0.486542
-0.759181
-1.03633
-1.32693
-1.6381
-1.97521
-2.34204
-2.7411
-3.1739
-3.64119
-4.14308
-4.67911
-5.24823
-5.84867
-6.4777
-7.13139
14.12
13.8945
13.6389
13.3503
13.0257
12.6622
12.257
11.8078
11.3128
10.7715
10.1843
9.55358
8.88341
8.18012
7.45219
6.71009
5.96573
5.23173
4.52041
3.8427
3.20726
2.6198
2.08288
1.59593
1.15561
0.756256
0.390403
0.0493946
-0.275971
-0.594799
-0.915541
-1.24558
-1.59101
-1.95663
-2.34596
-2.76148
-3.20472
-3.67644
-4.17673
-4.70504
-5.26015
-5.84011
-6.44208
-7.06221
13.9023
13.669
13.4073
13.1147
12.7888
12.4274
12.0284
11.5903
11.1121
10.5938
10.0364
9.44219
8.81505
8.16044
7.48542
6.79842
6.10888
5.42663
4.76123
4.12119
3.51333
2.94235
2.41053
1.91783
1.462
1.03896
0.643152
0.268011
-0.0935485
-0.448663
-0.804092
-1.16589
-1.53921
-1.92821
-2.33608
-2.76508
-3.21666
-3.69155
-4.18977
-4.7107
-5.25305
-5.81482
-6.3932
-6.98452
13.7131
13.4739
13.2077
12.9126
12.5867
12.2282
11.8356
11.4081
10.9451
10.4469
9.91495
9.35139
8.75979
8.14486
7.51248
6.86955
6.2236
5.58242
4.95354
4.3437
3.75835
3.20136
2.67479
2.17888
1.71218
1.27174
0.853437
0.45227
0.0627604
-0.3207
-0.703523
-1.09066
-1.48641
-1.89434
-2.31722
-2.75709
-3.21525
-3.6923
-4.18822
-4.70235
-5.23337
-5.77929
-6.33743
-6.90435
13.551
13.3073
13.038
12.7415
12.4163
12.061
11.6747
11.2567
10.807
10.3262
9.81566
9.27754
8.71502
8.1322
7.53404
6.92621
6.31485
5.70621
5.10633
4.52063
3.95355
3.4083
2.88675
2.38931
1.91508
1.46195
1.02684
0.605929
0.19497
-0.210469
-0.614731
-1.02186
-1.43543
-1.85846
-2.29335
-2.74184
-3.20507
-3.68353
-4.17713
-4.68517
-5.20634
-5.73873
-6.27978
-6.8263
13.4145
13.1675
12.8961
12.599
12.2749
11.9229
11.5423
11.1327
10.6945
10.2282
9.73533
9.21796
8.67893
8.12182
7.55085
6.97077
6.38664
5.8036
5.22658
4.66002
4.10761
3.57207
3.05506
2.55714
2.07777
1.61546
1.16788
0.732132
0.304865
-0.117438
-0.53828
-0.960976
-1.3885
-1.8234
-2.2677
-2.72291
-3.18998
-3.66929
-4.16068
-4.66344
-5.17627
-5.69733
-6.22422
-6.75398
13.3027
13.0533
12.7805
12.4832
12.1604
11.8114
11.4357
11.0333
10.6045
10.1501
9.67154
9.17075
8.65033
8.11343
7.56371
7.00521
6.44222
5.87902
5.31976
4.76816
4.22732
3.69961
3.18655
2.68874
2.20593
1.73706
1.28037
0.833611
0.394129
-0.0409055
-0.474352
-0.908948
-1.34718
-1.7912
-2.24274
-2.70308
-3.17299
-3.65277
-4.14219
-4.64051
-5.14647
-5.65832
-6.17377
-6.69007
13.2145
12.9634
12.6897
12.3924
12.0709
11.7245
11.353
10.9563
10.535
10.09
9.62249
9.1345
8.62834
8.10684
7.57324
7.03106
6.484
5.93577
5.38991
4.84963
4.31764
3.79603
3.28619
2.78878
2.30372
1.83026
1.36706
0.912327
0.463927
0.0195358
-0.423224
-0.866652
-1.31286
-1.76369
-2.22061
-2.68472
-3.15668
-3.63666
-4.12441
-4.61917
-5.11971
-5.62433
-6.13087
-6.63674
13.1491
12.8969
12.6226
12.3256
12.0052
11.6608
11.2924
10.9001
10.4845
10.0463
9.58705
9.10841
8.61261
8.10225
7.58025
7.0498
6.51417
5.97666
5.44042
4.9083
4.38271
3.86557
3.35819
2.86123
2.37474
1.89819
1.43053
0.970273
0.515648
0.0646897
-0.384634
-0.834309
-1.28617
-1.74182
-2.20256
-2.66934
-3.14269
-3.62275
-4.10921
-4.6013
-5.09781
-5.59711
-6.09712
-6.59536
13.106
12.853
12.5785
12.2817
11.962
11.6191
11.2528
10.8634
10.4515
10.0179
9.56395
9.0914
8.60233
8.09918
7.58468
7.06176
6.53349
6.00288
5.47283
4.94596
4.42452
3.91031
3.40456
2.90797
2.42067
1.94224
1.4718
1.00809
0.54955
0.0944466
-0.359033
-0.812672
-1.26813
-1.72685
-2.19001
-2.65846
-3.13267
-3.61273
-4.0983
-4.58861
-5.08246
-5.57826
-6.07399
-6.56726
13.0848
12.8316
12.5571
12.2604