/*--------------------------------*- C++ -*----------------------------------*\
  =========                 |
  \\      /  F ield         | OpenFOAM: The Open Source CFD Toolbox
   \\    /   O peration     | Website:  https://openfoam.org
    \\  /    A nd           | Version:  13
     \\/     M anipulation  |
\*---------------------------------------------------------------------------*/
FoamFile
{
    format      ascii;
    class       volScalarField;
    location    "100";
    object      nut;
}
// * * * * * * * * * * * * * * * * * * * * * * * * * * * * * * * * * * * * * //

dimensions      [0 2 -1 0 0 0 0];

internalField   nonuniform List<scalar> 
171745
(
0.0187248
0.0187115
0.0186982
0.0186851
0.0186722
0.0186593
0.0186465
0.0186337
0.018621
0.0186083
0.0185956
0.0185828
0.01857
0.0185571
0.0185441
0.018531
0.0185179
0.0185047
0.0184914
0.0184782
0.018465
0.0184519
0.0184389
0.0184261
0.0187259
0.0187125
0.0186993
0.0186862
0.0186732
0.0186604
0.0186476
0.0186349
0.0186222
0.0186096
0.0185969
0.0185842
0.0185714
0.0185586
0.0185456
0.0185326
0.0185196
0.0185064
0.0184933
0.0184801
0.018467
0.0184539
0.018441
0.0184283
0.018728
0.0187147
0.0187014
0.0186884
0.0186754
0.0186626
0.0186499
0.0186372
0.0186246
0.018612
0.0185995
0.0185869
0.0185742
0.0185615
0.0185487
0.0185358
0.0185228
0.0185098
0.0184968
0.0184838
0.0184708
0.0184579
0.0184451
0.0184325
0.0187314
0.018718
0.0187048
0.0186918
0.0186789
0.0186661
0.0186535
0.0186409
0.0186285
0.018616
0.0186036
0.0185911
0.0185786
0.0185661
0.0185535
0.0185408
0.018528
0.0185152
0.0185024
0.0184896
0.0184768
0.0184641
0.0184516
0.0184392
0.0187364
0.018723
0.0187098
0.0186968
0.018684
0.0186713
0.0186588
0.0186464
0.0186341
0.0186218
0.0186096
0.0185974
0.0185851
0.0185728
0.0185605
0.018548
0.0185356
0.018523
0.0185105
0.018498
0.0184855
0.0184731
0.0184609
0.0184488
0.0187434
0.01873
0.0187169
0.018704
0.0186912
0.0186787
0.0186663
0.0186541
0.018642
0.01863
0.0186181
0.0186061
0.0185942
0.0185822
0.0185702
0.0185582
0.0185461
0.0185339
0.0185218
0.0185096
0.0184975
0.0184856
0.0184737
0.018462
0.0187532
0.0187398
0.0187267
0.0187139
0.0187013
0.018689
0.0186768
0.0186649
0.0186531
0.0186414
0.0186298
0.0186182
0.0186067
0.0185952
0.0185836
0.0185721
0.0185604
0.0185488
0.0185371
0.0185255
0.0185139
0.0185024
0.0184911
0.0184799
0.0187667
0.0187534
0.0187405
0.0187278
0.0187154
0.0187033
0.0186915
0.0186798
0.0186684
0.0186572
0.018646
0.018635
0.018624
0.0186131
0.0186021
0.0185911
0.0185801
0.0185691
0.018558
0.018547
0.0185361
0.0185252
0.0185145
0.018504
0.0187857
0.0187726
0.0187598
0.0187473
0.0187352
0.0187235
0.018712
0.0187009
0.01869
0.0186793
0.0186687
0.0186584
0.0186481
0.0186379
0.0186277
0.0186175
0.0186073
0.018597
0.0185868
0.0185766
0.0185664
0.0185563
0.0185464
0.0185366
0.0188125
0.0187996
0.0187872
0.0187751
0.0187634
0.0187521
0.0187412
0.0187307
0.0187204
0.0187105
0.0187008
0.0186913
0.018682
0.0186727
0.0186635
0.0186543
0.0186451
0.0186359
0.0186266
0.0186173
0.0186081
0.018599
0.01859
0.0185811
0.0188507
0.0188383
0.0188263
0.0188147
0.0188036
0.018793
0.0187829
0.0187731
0.0187638
0.0187549
0.0187463
0.0187379
0.0187298
0.0187218
0.0187139
0.018706
0.0186981
0.0186901
0.018682
0.018674
0.018666
0.018658
0.01865
0.0186421
0.0189053
0.0188934
0.0188821
0.0188713
0.018861
0.0188513
0.0188421
0.0188335
0.0188253
0.0188177
0.0188105
0.0188036
0.0187971
0.0187907
0.0187845
0.0187783
0.018772
0.0187656
0.0187591
0.0187525
0.0187458
0.0187391
0.0187323
0.0187256
0.0189824
0.0189712
0.0189607
0.0189507
0.0189414
0.0189328
0.0189247
0.0189174
0.0189107
0.0189047
0.0188992
0.0188942
0.0188897
0.0188854
0.0188812
0.0188771
0.0188728
0.0188684
0.0188637
0.0188588
0.0188538
0.0188485
0.018843
0.0188373
0.0190872
0.0190767
0.0190668
0.0190576
0.0190491
0.0190413
0.0190344
0.0190282
0.019023
0.0190185
0.0190149
0.019012
0.0190097
0.0190078
0.0190061
0.0190045
0.0190027
0.0190007
0.0189982
0.0189954
0.0189921
0.0189884
0.0189842
0.0189795
0.019217
0.0192063
0.0191962
0.0191869
0.0191784
0.0191708
0.0191641
0.0191584
0.0191539
0.0191505
0.0191483
0.0191472
0.0191469
0.0191474
0.0191483
0.0191493
0.0191504
0.0191511
0.0191515
0.0191512
0.0191502
0.0191484
0.0191457
0.0191421
0.019346
0.0193334
0.0193215
0.0193104
0.0193
0.0192906
0.0192823
0.0192752
0.0192696
0.0192656
0.0192632
0.0192625
0.019263
0.0192646
0.0192667
0.0192692
0.0192718
0.0192744
0.0192772
0.0192797
0.0192813
0.0192816
0.0192804
0.0192777
0.0194077
0.0193912
0.0193752
0.0193597
0.0193448
0.0193307
0.0193176
0.0193057
0.0192952
0.0192861
0.0192783
0.0192714
0.0192648
0.0192579
0.0192504
0.0192424
0.0192345
0.0192277
0.0192234
0.0192224
0.0192238
0.0192237
0.0192218
0.0192182
0.0192941
0.0192713
0.019248
0.0192241
0.0191996
0.0191743
0.0191479
0.01912
0.0190896
0.0190556
0.019016
0.0189685
0.018911
0.0188431
0.0187664
0.0186846
0.018603
0.0185278
0.018465
0.0184204
0.0183995
0.0183912
0.018384
0.0183777
0.0188568
0.0188192
0.0187772
0.0187297
0.018675
0.0186108
0.0185339
0.0184401
0.0183237
0.018178
0.0179955
0.0170187
0.0161277
0.0156738
0.0155673
0.0156794
0.0159031
0.0159959
0.015775
0.0156058
0.0154963
0.0154608
0.0154648
0.0154794
0.0155037
0.0178176
0.017721
0.0176027
0.0174583
0.0172823
0.0170677
0.0168066
0.01649
0.0159243
0.0142728
0.0129915
0.0120802
0.0115172
0.0112566
0.0112237
0.0112936
0.0113793
0.0113015
0.0109878
0.0107409
0.0105624
0.010454
0.0104317
0.0104807
0.0105489
0.0153898
0.0150601
0.014685
0.0142662
0.013805
0.0133021
0.012576
0.0113503
0.0102533
0.00933516
0.0086234
0.00812325
0.00782369
0.00769619
0.00767635
0.00755396
0.00724413
0.00698719
0.00677483
0.0066018
0.00646501
0.00636578
0.00630445
0.00628717
0.00632871
0.0101529
0.00963826
0.00914519
0.008676
0.00823008
0.00780488
0.00739701
0.00700318
0.00655021
0.00612069
0.00577828
0.00553564
0.00531717
0.00509124
0.00491417
0.00477925
0.00467477
0.00458776
0.00450774
0.00442976
0.00434929
0.0042829
0.00423791
0.00421429
0.00420959
0.00489999
0.00468764
0.00450098
0.00433684
0.00419226
0.00406468
0.00395217
0.00385345
0.00376849
0.00369938
0.00365184
0.00363385
0.00364546
0.00367081
0.00371798
0.00377615
0.00382017
0.00382078
0.00376584
0.00367105
0.00353351
0.00348176
0.00349006
0.00353623
0.00360453
0.00275185
0.00274155
0.00274244
0.00275468
0.00277765
0.0028114
0.00285706
0.00291415
0.00298548
0.00307792
0.00320516
0.00337577
0.00356312
0.00359459
0.00374385
0.00392602
0.00404811
0.00395647
0.00365892
0.00334518
0.00293758
0.00314818
0.00307103
0.00306527
0.00314237
0.00318263
0.00266148
0.00276415
0.00287104
0.00298124
0.0030938
0.00320956
0.00332975
0.00346174
0.00361954
0.00383444
0.00408833
0.0041361
0.00435235
0.00455276
0.00441115
0.00391728
0.00288604
0.00246354
0.00245147
0.00270855
0.00292377
0.00363094
0.00417515
0.00495522
0.00608927
0.0035117
0.00365881
0.00380668
0.00395537
0.00410507
0.004258
0.00442376
0.00462552
0.00489354
0.00493156
0.00396577
0.0043229
0.00460941
0.00406787
0.00189563
0.00168998
0.00137449
0.00244372
0.00502785
0.00783102
0.0101387
0.0104699
0.0109565
0.0115819
0.00458518
0.004777
0.00496335
0.00514561
0.00532255
0.00549558
0.00566989
0.00586253
0.00477861
0.00533517
0.002854
0.00318177
0.00186967
0.00175274
0.000648631
0.000966462
0.00185445
0.00631669
0.00787912
0.0092814
0.00899923
0.00897437
0.00924054
0.00959654
0.00623223
0.00640719
0.00657582
0.00663248
0.00632197
0.00579693
0.00501152
0.00405247
0.0059915
0.00293941
0.00354811
0.00134551
0.000325343
0.00258006
0.00802123
0.00743125
0.00715816
0.00714734
0.00754671
0.00795369
0.00577108
0.00707949
0.00672074
0.006629
0.00681843
0.0071178
0.00713592
0.00211745
0.0028415
0.00350619
0.0042687
0.00595672
0.00339963
0.00330503
0.0033856
0.00333658
0.00599868
0.00567696
0.00538568
0.00513529
0.00492927
0.00477044
0.0046521
0.00456333
0.00449314
0.00443291
0.00437794
0.00432087
0.00427287
0.00424031
0.00422389
0.00422507
0.00425423
0.00917369
0.00849976
0.00803478
0.00777689
0.0077086
0.00766444
0.00732092
0.00704041
0.00681249
0.00662905
0.00648467
0.00637562
0.00630179
0.00626245
0.00627595
0.00633687
0.00641659
0.00651319
0.0140475
0.0128286
0.0119744
0.0114749
0.0113004
0.0113927
0.0116275
0.0114059
0.0110644
0.0107911
0.0105855
0.0104477
0.0103815
0.0104079
0.0104645
0.0105392
0.0106303
0.0107358
0.0180143
0.0178083
0.0168311
0.0160175
0.0156637
0.0157012
0.0160145
0.0160306
0.0157876
0.0155931
0.0154546
0.0153793
0.0153745
0.0153814
0.0153991
0.0154267
0.0154631
0.0155071
0.0190005
0.0189532
0.0188971
0.0188306
0.0187541
0.0186702
0.0185837
0.0185007
0.0184278
0.0183707
0.0183344
0.0183233
0.0183138
0.0183059
0.0182996
0.0182947
0.0182915
0.0182898
0.0192678
0.0192585
0.0192499
0.0192415
0.0192326
0.0192232
0.0192135
0.0192044
0.019197
0.0191926
0.0191923
0.0191921
0.0191904
0.0191871
0.0191822
0.0191759
0.0191683
0.0191599
0.0192603
0.0192578
0.019257
0.0192575
0.0192589
0.0192609
0.0192632
0.0192655
0.0192679
0.0192703
0.0192723
0.019273
0.0192724
0.0192703
0.0192667
0.0192617
0.0192555
0.0192482
0.0191503
0.0191483
0.0191473
0.0191473
0.0191479
0.0191489
0.01915
0.0191511
0.0191518
0.0191521
0.0191515
0.0191502
0.019148
0.0191448
0.0191407
0.0191356
0.0191297
0.0191231
0.0190203
0.0190169
0.0190141
0.019012
0.0190103
0.0190087
0.0190072
0.0190055
0.0190034
0.0190009
0.018998
0.0189946
0.0189908
0.0189864
0.0189815
0.0189761
0.0189702
0.018964
0.0189071
0.0189018
0.018897
0.0188926
0.0188884
0.0188843
0.0188803
0.0188761
0.0188717
0.018867
0.0188621
0.018857
0.0188517
0.0188461
0.0188403
0.0188343
0.018828
0.0188216
0.0188204
0.0188133
0.0188066
0.0188001
0.0187939
0.0187877
0.0187815
0.0187753
0.0187689
0.0187624
0.0187558
0.0187492
0.0187424
0.0187357
0.0187288
0.0187219
0.018715
0.0187081
0.0187577
0.0187492
0.0187409
0.0187328
0.0187249
0.018717
0.0187091
0.0187012
0.0186933
0.0186853
0.0186772
0.0186692
0.0186612
0.0186532
0.0186453
0.0186375
0.0186297
0.0186221
0.0187134
0.0187037
0.0186943
0.018685
0.0186757
0.0186666
0.0186574
0.0186482
0.0186389
0.0186296
0.0186204
0.0186112
0.0186021
0.018593
0.0185841
0.0185754
0.0185667
0.0185583
0.0186821
0.0186717
0.0186613
0.0186511
0.0186409
0.0186307
0.0186204
0.0186102
0.0185999
0.0185897
0.0185795
0.0185693
0.0185592
0.0185492
0.0185394
0.0185298
0.0185204
0.0185112
0.01866
0.0186489
0.0186379
0.0186269
0.0186159
0.0186049
0.0185939
0.0185829
0.0185718
0.0185608
0.0185497
0.0185388
0.0185279
0.0185172
0.0185066
0.0184963
0.0184861
0.0184762
0.0186441
0.0186326
0.018621
0.0186095
0.0185979
0.0185864
0.0185747
0.0185631
0.0185514
0.0185397
0.018528
0.0185164
0.0185049
0.0184935
0.0184824
0.0184714
0.0184606
0.0184501
0.0186327
0.0186207
0.0186088
0.0185968
0.0185848
0.0185728
0.0185607
0.0185485
0.0185364
0.0185242
0.018512
0.0184999
0.0184879
0.018476
0.0184643
0.0184528
0.0184416
0.0184306
0.0186244
0.0186122
0.0185999
0.0185876
0.0185753
0.0185629
0.0185504
0.0185379
0.0185253
0.0185128
0.0185002
0.0184877
0.0184753
0.018463
0.0184509
0.018439
0.0184274
0.018416
0.0186185
0.0186061
0.0185936
0.0185811
0.0185685
0.0185558
0.0185431
0.0185302
0.0185174
0.0185045
0.0184917
0.0184789
0.0184662
0.0184536
0.0184412
0.018429
0.0184171
0.0184054
0.0186145
0.0186019
0.0185892
0.0185765
0.0185638
0.0185509
0.018538
0.018525
0.0185119
0.0184988
0.0184858
0.0184728
0.0184598
0.018447
0.0184344
0.018422
0.0184099
0.018398
0.0186119
0.0185992
0.0185865
0.0185737
0.0185608
0.0185478
0.0185348
0.0185216
0.0185084
0.0184952
0.018482
0.0184689
0.0184558
0.0184429
0.0184302
0.0184176
0.0184053
0.0183933
0.0186106
0.0185979
0.0185851
0.0185722
0.0185593
0.0185462
0.0185331
0.0185199
0.0185066
0.0184934
0.0184801
0.0184669
0.0184537
0.0184407
0.0184279
0.0184153
0.0184029
0.0183907
0.0187249
0.0187116
0.0186984
0.0186853
0.0186723
0.0186595
0.0186467
0.018634
0.0186213
0.0186086
0.0185958
0.0185831
0.0185703
0.0185574
0.0185444
0.0185313
0.0185181
0.0185049
0.0184917
0.0184784
0.0184652
0.0184521
0.0184391
0.0184262
0.0187261
0.0187127
0.0186995
0.0186864
0.0186735
0.0186606
0.0186479
0.0186352
0.0186225
0.0186098
0.0185972
0.0185845
0.0185717
0.0185589
0.0185459
0.0185329
0.0185198
0.0185067
0.0184935
0.0184804
0.0184673
0.0184542
0.0184413
0.0184285
0.0187283
0.0187149
0.0187017
0.0186887
0.0186758
0.018663
0.0186503
0.0186376
0.018625
0.0186125
0.0185999
0.0185873
0.0185746
0.0185619
0.0185491
0.0185362
0.0185233
0.0185103
0.0184972
0.0184842
0.0184712
0.0184583
0.0184456
0.018433
0.0187318
0.0187185
0.0187053
0.0186923
0.0186794
0.0186667
0.0186541
0.0186416
0.0186291
0.0186167
0.0186043
0.0185918
0.0185793
0.0185668
0.0185542
0.0185415
0.0185288
0.018516
0.0185032
0.0184904
0.0184776
0.0184649
0.0184524
0.01844
0.0187371
0.0187237
0.0187106
0.0186976
0.0186849
0.0186722
0.0186597
0.0186474
0.0186351
0.0186229
0.0186106
0.0185984
0.0185862
0.0185739
0.0185616
0.0185492
0.0185368
0.0185243
0.0185118
0.0184993
0.0184868
0.0184745
0.0184622
0.0184502
0.0187444
0.0187311
0.018718
0.0187051
0.0186924
0.0186799
0.0186676
0.0186555
0.0186434
0.0186315
0.0186195
0.0186076
0.0185958
0.0185838
0.0185719
0.0185599
0.0185478
0.0185357
0.0185236
0.0185115
0.0184994
0.0184875
0.0184757
0.018464
0.0187544
0.0187411
0.0187281
0.0187153
0.0187028
0.0186905
0.0186784
0.0186665
0.0186548
0.0186432
0.0186316
0.0186201
0.0186087
0.0185972
0.0185857
0.0185742
0.0185626
0.018551
0.0185394
0.0185278
0.0185163
0.0185049
0.0184936
0.0184825
0.018768
0.0187548
0.0187419
0.0187294
0.0187171
0.018705
0.0186933
0.0186817
0.0186704
0.0186592
0.0186481
0.0186372
0.0186263
0.0186154
0.0186045
0.0185936
0.0185826
0.0185717
0.0185607
0.0185498
0.0185389
0.0185282
0.0185175
0.0185071
0.018787
0.0187739
0.0187613
0.0187489
0.0187369
0.0187253
0.0187139
0.0187028
0.018692
0.0186814
0.018671
0.0186607
0.0186505
0.0186404
0.0186303
0.0186201
0.01861
0.0185999
0.0185897
0.0185796
0.0185696
0.0185596
0.0185498
0.0185401
0.0188136
0.0188009
0.0187885
0.0187766
0.018765
0.0187539
0.0187431
0.0187326
0.0187225
0.0187127
0.0187031
0.0186937
0.0186844
0.0186753
0.0186662
0.0186571
0.018648
0.0186389
0.0186298
0.0186207
0.0186116
0.0186027
0.0185938
0.0185851
0.0188517
0.0188393
0.0188275
0.0188161
0.0188051
0.0187947
0.0187846
0.018775
0.0187658
0.018757
0.0187485
0.0187403
0.0187323
0.0187245
0.0187167
0.0187089
0.0187012
0.0186934
0.0186855
0.0186776
0.0186698
0.0186621
0.0186543
0.0186467
0.018906
0.0188943
0.0188831
0.0188725
0.0188624
0.0188529
0.0188439
0.0188354
0.0188274
0.0188199
0.0188129
0.0188062
0.0187998
0.0187936
0.0187876
0.0187815
0.0187754
0.0187693
0.018763
0.0187567
0.0187503
0.018744
0.0187376
0.0187312
0.018983
0.0189721
0.0189618
0.0189521
0.0189431
0.0189347
0.0189269
0.0189198
0.0189133
0.0189075
0.0189022
0.0188974
0.0188931
0.018889
0.018885
0.0188811
0.0188772
0.0188731
0.0188687
0.0188642
0.0188596
0.0188549
0.01885
0.0188449
0.0190883
0.0190782
0.0190687
0.0190599
0.0190518
0.0190445
0.0190379
0.0190321
0.0190272
0.0190231
0.0190197
0.0190171
0.0190151
0.0190134
0.019012
0.0190107
0.0190093
0.0190076
0.0190057
0.0190035
0.0190009
0.018998
0.0189947
0.0189911
0.0192204
0.0192104
0.0192011
0.0191925
0.0191847
0.0191777
0.0191717
0.0191666
0.0191626
0.0191598
0.019158
0.0191573
0.0191575
0.0191584
0.0191597
0.0191612
0.0191627
0.0191641
0.0191652
0.0191658
0.0191659
0.0191654
0.0191642
0.0191622
0.0193561
0.0193449
0.0193343
0.0193245
0.0193154
0.0193072
0.0193001
0.0192941
0.0192896
0.0192865
0.019285
0.0192851
0.0192865
0.0192891
0.0192925
0.0192964
0.0193007
0.0193053
0.01931
0.0193144
0.0193182
0.0193209
0.0193225
0.0193228
0.0194331
0.0194191
0.0194055
0.0193924
0.0193799
0.0193681
0.0193573
0.0193477
0.0193394
0.0193328
0.019328
0.0193249
0.0193232
0.0193225
0.0193225
0.0193233
0.019325
0.0193281
0.0193333
0.0193408
0.0193478
0.0193535
0.0193577
0.01936
0.019345
0.0193266
0.0193079
0.0192888
0.0192694
0.0192497
0.0192297
0.0192094
0.0191888
0.0191674
0.0191448
0.0191201
0.0190924
0.0190611
0.0190269
0.0189918
0.0189584
0.0189302
0.0189108
0.0189031
0.0189044
0.0189057
0.0189068
0.0189072
0.0189346
0.0189079
0.0188786
0.0188461
0.0188098
0.0187688
0.0187217
0.0186665
0.0186006
0.0185202
0.0184211
0.0182995
0.0173785
0.0168114
0.0165935
0.0166081
0.0167323
0.0168861
0.0170553
0.0171006
0.0170699
0.0170523
0.0170422
0.0170408
0.0170462
0.0179348
0.0178854
0.0178252
0.0177518
0.0176621
0.0175518
0.017415
0.0172444
0.0170303
0.0160557
0.0147395
0.013738
0.0130823
0.0127658
0.0127335
0.0128761
0.0130748
0.0132582
0.0132929
0.0131106
0.0130009
0.0129694
0.0129593
0.0129711
0.0130034
0.0158515
0.0157115
0.0155404
0.0153354
0.0150918
0.0148039
0.0143702
0.0132492
0.0121517
0.0111575
0.0103321
0.00971553
0.00935202
0.00918288
0.0091633
0.00922696
0.00922901
0.00893564
0.00869867
0.0085179
0.00839369
0.00833254
0.00832904
0.00835069
0.00839715
0.0116016
0.0112951
0.0109699
0.010629
0.0102731
0.00975644
0.00908775
0.00839844
0.00773578
0.00714777
0.00667542
0.00647072
0.00645363
0.00649999
0.0062709
0.00605814
0.00588024
0.00572788
0.00559751
0.00549022
0.00540778
0.00535135
0.00533293
0.00535207
0.0053912
0.00589244
0.00573727
0.00559028
0.00545187
0.00532148
0.00519797
0.00508001
0.0049638
0.00478132
0.00448018
0.00427757
0.00428179
0.00406738
0.00437938
0.00453113
0.00449005
0.00442485
0.00433936
0.0042413
0.00414363
0.00405437
0.00397167
0.00394271
0.00395715
0.00400383
0.00311913
0.00313069
0.00314998
0.00317732
0.00321334
0.00325937
0.00331812
0.0033941
0.00349508
0.00363591
0.0037249
0.00354686
0.00407018
0.00406929
0.00428581
0.00416779
0.00395494
0.00371099
0.00345589
0.00321839
0.00304124
0.00280575
0.00304277
0.00330046
0.00351087
0.00338326
0.00286843
0.00299905
0.00313428
0.00327383
0.00341935
0.00357519
0.00374568
0.00394639
0.00420724
0.00432412
0.00457749
0.00348298
0.0046447
0.00389985
0.00289481
0.00271283
0.00236508
0.00191917
0.00193849
0.00223822
0.00295885
0.00454686
0.00525036
0.00567779
0.00603903
0.00405168
0.0042532
0.00444331
0.00462414
0.00479984
0.00497866
0.00518395
0.00543716
0.00544527
0.00387738
0.00339563
0.00396521
0.00164044
0.00140031
0.000635332
0.000464581
0.000924239
0.00101008
0.00221127
0.00519513
0.00593458
0.010509
0.00764374
0.00853548
0.00504556
0.00518807
0.00530207
0.00536836
0.00536157
0.00525308
0.00488934
0.00404172
0.00593909
0.00293078
0.00361759
0.00118014
0.00162769
0.00815029
0.00898453
0.00956513
0.00938347
0.0101163
0.00577637
0.00587246
0.00588921
0.00579444
0.00555675
0.00507992
0.00423462
0.00487588
0.00298572
0.00289215
0.000408507
0.000264342
0.00575589
0.00480625
0.0056849
0.00619285
0.00675668
0.000174107
0.00226817
0.00516309
0.00481026
0.00553505
0.00605076
0.00626623
0.00261746
0.0033169
0.00468657
0.00556612
0.00623627
0.0044823
0.00442187
0.00425137
0.0042285
0.00690264
0.00646022
0.00631311
0.00629971
0.00625638
0.00603032
0.00584918
0.00570083
0.00557742
0.00547581
0.0053985
0.00534434
0.00531403
0.0053256
0.00535563
0.00540272
0.00546636
0.0108933
0.0100962
0.00951609
0.00920749
0.00911911
0.00920733
0.00921778
0.00890608
0.00865512
0.00846083
0.00832204
0.00823817
0.00822557
0.0082377
0.00827403
0.00833318
0.00841284
0.00851084
0.0157619
0.0144908
0.0135388
0.0129463
0.0127203
0.0128157
0.0131264
0.0135034
0.0132284
0.013019
0.0128802
0.0128248
0.0128071
0.0128117
0.012837
0.012881
0.0129416
0.0130161
0.0183898
0.0182723
0.0180825
0.0171602
0.0166782
0.0165794
0.0167538
0.0170717
0.0170952
0.0169933
0.0169341
0.0169122
0.0168991
0.0168947
0.0168981
0.0169084
0.0169247
0.0169463
0.0191188
0.0190912
0.0190609
0.019027
0.0189897
0.0189502
0.0189111
0.0188755
0.0188473
0.01883
0.0188274
0.0188271
0.0188272
0.0188275
0.0188275
0.0188272
0.0188266
0.0188259
0.0193141
0.0193083
0.0193042
0.0193015
0.0192997
0.0192987
0.0192986
0.0192995
0.0193022
0.0193072
0.0193137
0.0193193
0.0193237
0.0193265
0.0193276
0.019327
0.0193248
0.0193213
0.0192802
0.0192786
0.0192787
0.0192802
0.0192828
0.0192862
0.0192902
0.0192944
0.0192989
0.0193035
0.0193075
0.0193106
0.0193127
0.0193136
0.0193131
0.0193113
0.0193082
0.019304
0.0191589
0.0191573
0.0191567
0.0191571
0.0191581
0.0191596
0.0191612
0.0191628
0.0191642
0.0191652
0.0191657
0.0191656
0.0191648
0.0191633
0.0191608
0.0191576
0.0191535
0.0191488
0.0190244
0.0190212
0.0190187
0.0190168
0.0190154
0.0190141
0.0190129
0.0190116
0.01901
0.019008
0.0190057
0.0190031
0.0190001
0.0189967
0.0189928
0.0189885
0.0189837
0.0189785
0.0189096
0.0189045
0.0188999
0.0188956
0.0188917
0.0188879
0.018884
0.0188801
0.0188761
0.0188717
0.0188673
0.0188627
0.0188579
0.0188529
0.0188477
0.0188423
0.0188367
0.018831
0.0188225
0.0188155
0.018809
0.0188027
0.0187966
0.0187906
0.0187846
0.0187786
0.0187724
0.0187662
0.0187599
0.0187535
0.0187472
0.0187407
0.0187343
0.0187278
0.0187213
0.0187148
0.0187598
0.0187513
0.0187432
0.0187353
0.0187275
0.0187197
0.018712
0.0187043
0.0186965
0.0186886
0.0186808
0.018673
0.0186652
0.0186575
0.0186498
0.0186422
0.0186347
0.0186274
0.0187155
0.0187059
0.0186966
0.0186874
0.0186783
0.0186692
0.0186601
0.018651
0.0186419
0.0186328
0.0186237
0.0186146
0.0186057
0.0185968
0.018588
0.0185794
0.018571
0.0185627
0.0186842
0.0186738
0.0186636
0.0186534
0.0186433
0.0186332
0.0186231
0.0186129
0.0186028
0.0185926
0.0185825
0.0185724
0.0185624
0.0185526
0.0185429
0.0185334
0.0185241
0.018515
0.018662
0.018651
0.01864
0.0186291
0.0186182
0.0186073
0.0185964
0.0185854
0.0185744
0.0185634
0.0185525
0.0185416
0.0185308
0.0185202
0.0185097
0.0184994
0.0184893
0.0184795
0.0186459
0.0186344
0.0186229
0.0186115
0.0186
0.0185884
0.0185769
0.0185653
0.0185536
0.018542
0.0185304
0.0185188
0.0185074
0.0184961
0.0184849
0.018474
0.0184633
0.0184529
0.0186341
0.0186222
0.0186103
0.0185984
0.0185865
0.0185745
0.0185624
0.0185503
0.0185381
0.018526
0.0185138
0.0185018
0.0184898
0.0184779
0.0184663
0.0184548
0.0184436
0.0184326
0.0186255
0.0186132
0.018601
0.0185888
0.0185765
0.0185641
0.0185517
0.0185391
0.0185266
0.018514
0.0185015
0.018489
0.0184766
0.0184643
0.0184523
0.0184404
0.0184288
0.0184174
0.0186192
0.0186068
0.0185943
0.0185818
0.0185692
0.0185566
0.0185438
0.018531
0.0185182
0.0185053
0.0184925
0.0184797
0.018467
0.0184544
0.018442
0.0184298
0.0184179
0.0184062
0.0186149
0.0186023
0.0185897
0.018577
0.0185642
0.0185514
0.0185384
0.0185254
0.0185124
0.0184993
0.0184862
0.0184732
0.0184603
0.0184475
0.0184349
0.0184225
0.0184103
0.0183984
0.0186122
0.0185995
0.0185868
0.018574
0.0185611
0.0185481
0.0185351
0.0185219
0.0185087
0.0184955
0.0184823
0.0184692
0.0184561
0.0184432
0.0184304
0.0184179
0.0184055
0.0183935
0.0186109
0.0185981
0.0185853
0.0185725
0.0185595
0.0185465
0.0185334
0.0185201
0.0185069
0.0184936
0.0184803
0.0184671
0.0184539
0.0184409
0.0184281
0.0184154
0.018403
0.0183909
0.0187251
0.0187118
0.0186986
0.0186856
0.0186727
0.0186598
0.0186471
0.0186344
0.0186217
0.018609
0.0185963
0.0185836
0.0185707
0.0185578
0.0185448
0.0185318
0.0185186
0.0185054
0.0184921
0.0184789
0.0184657
0.0184525
0.0184395
0.0184266
0.0187264
0.018713
0.0186999
0.0186868
0.0186739
0.0186611
0.0186484
0.0186357
0.0186231
0.0186104
0.0185978
0.0185851
0.0185723
0.0185595
0.0185466
0.0185336
0.0185205
0.0185074
0.0184942
0.018481
0.0184679
0.0184549
0.0184419
0.0184292
0.0187288
0.0187156
0.0187024
0.0186894
0.0186765
0.0186638
0.0186511
0.0186385
0.018626
0.0186134
0.0186009
0.0185883
0.0185757
0.018563
0.0185502
0.0185374
0.0185244
0.0185114
0.0184984
0.0184854
0.0184724
0.0184595
0.0184468
0.0184342
0.018733
0.0187197
0.0187066
0.0186937
0.0186809
0.0186682
0.0186557
0.0186432
0.0186308
0.0186184
0.0186061
0.0185937
0.0185812
0.0185687
0.0185562
0.0185436
0.0185309
0.0185181
0.0185053
0.0184925
0.0184798
0.0184672
0.0184546
0.0184423
0.0187391
0.0187259
0.0187129
0.0187
0.0186873
0.0186748
0.0186624
0.0186501
0.0186379
0.0186258
0.0186137
0.0186015
0.0185894
0.0185772
0.0185649
0.0185526
0.0185402
0.0185278
0.0185153
0.0185029
0.0184905
0.0184782
0.018466
0.018454
0.0187475
0.0187343
0.0187214
0.0187086
0.0186961
0.0186838
0.0186716
0.0186595
0.0186476
0.0186358
0.018624
0.0186122
0.0186004
0.0185886
0.0185768
0.0185648
0.0185529
0.0185409
0.0185289
0.0185169
0.0185049
0.018493
0.0184813
0.0184698
0.0187584
0.0187453
0.0187325
0.0187199
0.0187075
0.0186954
0.0186835
0.0186718
0.0186602
0.0186487
0.0186373
0.018626
0.0186147
0.0186034
0.018592
0.0185807
0.0185692
0.0185578
0.0185463
0.0185349
0.0185235
0.0185122
0.0185011
0.0184901
0.0187726
0.0187596
0.0187469
0.0187346
0.0187225
0.0187106
0.0186991
0.0186877
0.0186766
0.0186656
0.0186547
0.018644
0.0186333
0.0186226
0.0186119
0.0186011
0.0185904
0.0185796
0.0185689
0.0185581
0.0185475
0.0185369
0.0185264
0.0185162
0.0187917
0.0187789
0.0187665
0.0187544
0.0187426
0.0187312
0.0187201
0.0187093
0.0186987
0.0186883
0.0186781
0.0186681
0.0186581
0.0186482
0.0186383
0.0186284
0.0186186
0.0186086
0.0185987
0.0185889
0.0185791
0.0185694
0.0185598
0.0185504
0.0188183
0.0188058
0.0187937
0.0187821
0.0187708
0.0187599
0.0187494
0.0187392
0.0187294
0.0187198
0.0187105
0.0187014
0.0186924
0.0186835
0.0186747
0.0186659
0.0186571
0.0186483
0.0186394
0.0186306
0.0186219
0.0186133
0.0186048
0.0185964
0.018856
0.018844
0.0188325
0.0188214
0.0188108
0.0188007
0.018791
0.0187817
0.0187728
0.0187644
0.0187562
0.0187483
0.0187406
0.018733
0.0187256
0.0187182
0.0187108
0.0187033
0.0186958
0.0186884
0.018681
0.0186737
0.0186664
0.0186593
0.0189099
0.0188986
0.0188879
0.0188777
0.018868
0.0188589
0.0188503
0.0188422
0.0188347
0.0188276
0.0188209
0.0188146
0.0188086
0.0188028
0.0187971
0.0187915
0.0187858
0.0187801
0.0187744
0.0187686
0.0187628
0.0187571
0.0187514
0.0187457
0.0189866
0.0189763
0.0189666
0.0189575
0.018949
0.0189411
0.0189339
0.0189273
0.0189214
0.0189161
0.0189113
0.018907
0.0189031
0.0188995
0.0188961
0.0188927
0.0188893
0.0188858
0.0188821
0.0188784
0.0188746
0.0188708
0.0188669
0.0188628
0.0190926
0.0190833
0.0190747
0.0190667
0.0190595
0.0190529
0.0190472
0.0190422
0.019038
0.0190346
0.019032
0.01903
0.0190286
0.0190276
0.0190269
0.0190263
0.0190256
0.0190248
0.0190237
0.0190226
0.0190213
0.0190198
0.019018
0.0190158
0.0192283
0.0192196
0.0192117
0.0192045
0.019198
0.0191924
0.0191876
0.0191838
0.0191811
0.0191793
0.0191786
0.0191789
0.0191801
0.0191819
0.0191841
0.0191866
0.0191891
0.0191916
0.019194
0.0191962
0.0191982
0.0191997
0.0192007
0.0192011
0.0193751
0.0193663
0.0193581
0.0193505
0.0193438
0.0193379
0.019333
0.0193291
0.0193266
0.0193253
0.0193256
0.0193273
0.0193303
0.0193344
0.0193395
0.0193451
0.0193513
0.0193579
0.0193649
0.0193717
0.0193784
0.0193844
0.0193896
0.0193938
0.0194785
0.0194686
0.0194591
0.01945
0.0194415
0.0194336
0.0194265
0.0194205
0.0194157
0.0194124
0.0194109
0.0194113
0.0194136
0.0194175
0.019423
0.0194298
0.0194382
0.0194482
0.0194602
0.019473
0.0194857
0.019498
0.0195091
0.0195187
0.0194377
0.0194262
0.0194143
0.0194021
0.0193895
0.0193767
0.0193637
0.0193507
0.0193379
0.0193257
0.0193142
0.0193037
0.0192943
0.0192861
0.0192796
0.0192754
0.0192746
0.0192789
0.0192898
0.019305
0.0193213
0.0193378
0.0193534
0.0193676
0.0190777
0.0190646
0.0190494
0.0190318
0.0190117
0.0189886
0.0189622
0.0189318
0.0188965
0.0188556
0.0188081
0.0187539
0.0186936
0.0184348
0.0180076
0.017808
0.017686
0.0175141
0.0172618
0.0169856
0.0167903
0.0167893
0.0170737
0.0176413
0.0183914
0.0181097
0.0180977
0.0180788
0.0180527
0.018018
0.017973
0.0179148
0.0178401
0.0177437
0.0176201
0.0169671
0.0159414
0.0151062
0.0145656
0.0143555
0.0143993
0.0145199
0.0145532
0.0144326
0.0141804
0.0139124
0.0138151
0.0140121
0.0145016
0.0151836
0.0160565
0.0160493
0.0160312
0.0159929
0.0159318
0.0158428
0.0156577
0.0149759
0.0142296
0.0134691
0.0127469
0.0121123
0.0115691
0.0112017
0.0111182
0.011299
0.0115649
0.0117502
0.0117241
0.0115266
0.0111484
0.0109254
0.0110244
0.0113888
0.0114282
0.0116381
0.011712
0.0117124
0.0116339
0.0114724
0.0112299
0.0109037
0.0104685
0.00996851
0.0094744
0.00905773
0.00871428
0.00849274
0.00831751
0.00827746
0.00824529
0.00802021
0.00783073
0.00767963
0.00757906
0.00751642
0.00748441
0.00748057
0.00750456
0.0075549
0.00704758
0.00703784
0.00701466
0.00697924
0.00693533
0.00689114
0.00680611
0.00649643
0.00615034
0.00583894
0.00561521
0.00515409
0.00541484
0.00567999
0.0056356
0.00554903
0.00546867
0.00538822
0.00531427
0.00526113
0.00524773
0.00525493
0.0052733
0.00530662
0.00535923
0.00385013
0.00388619
0.00392165
0.00395742
0.00399386
0.00402957
0.00406594
0.00412021
0.00418755
0.0042772
0.00388736
0.00440315
0.00380458
0.00371699
0.00407102
0.00438423
0.0042678
0.0041244
0.00397351
0.00385041
0.00377407
0.00369299
0.00361263
0.00371184
0.00384614
0.00401429
0.00296629
0.00305742
0.00315206
0.00325066
0.00335414
0.00346447
0.00358595
0.00374091
0.00398091
0.00405891
0.00286446
0.00285785
0.00317405
0.0031228
0.00276305
0.00246717
0.00225197
0.00209695
0.0020121
0.00195914
0.0020538
0.00257929
0.00342049
0.00416533
0.00499704
0.00362366
0.00375774
0.00389332
0.00403348
0.00418431
0.00435708
0.00457039
0.0046075
0.0034603
0.00255724
0.00248805
0.00114424
0.000113338
0.000757941
0.00183645
0.0043365
0.00801643
0.0106165
0.0103217
0.0057268
0.0058129
0.00586998
0.00590354
0.00592363
0.00597024
0.0060365
0.00513324
0.0034378
0.00272841
0.00108527
0.000754572
0.00440791
0.00611801
0.00736323
0.0103388
0.00670594
0.00683701
0.00697763
0.00713602
0.0073157
0.00673981
0.00574969
0.00323674
0.00229743
0.000342355
0.00136788
0.00351926
0.00480349
0.00566553
0.00116702
0.00260473
0.00326458
0.00474934
0.00513239
0.00290158
0.00422506
0.00467056
0.00537635
0.00374029
0.0041315
0.00436614
0.00466943
0.0063219
0.00612586
0.00602742
0.00600369
0.0092239
0.00878027
0.00844427
0.00828462
0.00821306
0.00816869
0.00793201
0.00774065
0.00758719
0.00747377
0.00740477
0.00736949
0.00736526
0.00738821
0.00743505
0.00750358
0.00759207
0.0132276
0.012495
0.0118696
0.011375
0.0110947
0.0111258
0.0114479
0.0118145
0.0116041
0.0114556
0.0113526
0.0112404
0.0108433
0.0107813
0.0110202
0.0112968
0.0113646
0.0114529
0.0174199
0.016697
0.0156779
0.0148802
0.0144117
0.014307
0.0144887
0.014763
0.0149185
0.0148425
0.0145503
0.0141871
0.0139684
0.0140578
0.0144612
0.0150734
0.0155933
0.0156453
0.018767
0.018711
0.0186475
0.018578
0.0181623
0.0178183
0.0177336
0.0177447