/*--------------------------------*- C++ -*----------------------------------*\
  =========                 |
  \\      /  F ield         | OpenFOAM: The Open Source CFD Toolbox
   \\    /   O peration     | Website:  https://openfoam.org
    \\  /    A nd           | Version:  13
     \\/     M anipulation  |
\*---------------------------------------------------------------------------*/
FoamFile
{
    format      ascii;
    class       volScalarField;
    location    "100";
    object      omega;
}
// * * * * * * * * * * * * * * * * * * * * * * * * * * * * * * * * * * * * * //

dimensions      [0 0 -1 0 0 0 0];

internalField   nonuniform List<scalar> 
171745
(
16.4026
16.3355
16.2691
16.2035
16.1386
16.0744
16.0108
15.9478
15.8854
15.8235
15.7622
15.7013
15.6408
15.5808
15.5211
15.4618
15.4029
15.3444
15.2863
15.2287
15.1715
15.1147
15.0585
15.0028
16.4034
16.3363
16.2699
16.2043
16.1394
16.0752
16.0116
15.9487
15.8863
15.8245
15.7632
15.7023
15.6419
15.5819
15.5223
15.4631
15.4043
15.3459
15.2878
15.2303
15.1731
15.1165
15.0603
15.0047
16.4051
16.3379
16.2716
16.206
16.1411
16.0769
16.0133
15.9504
15.8881
15.8264
15.7651
15.7044
15.6441
15.5842
15.5247
15.4656
15.4069
15.3486
15.2907
15.2333
15.1763
15.1197
15.0637
15.0083
16.4076
16.3405
16.2741
16.2085
16.1436
16.0795
16.016
15.9532
15.891
15.8293
15.7682
15.7076
15.6475
15.5878
15.5285
15.4696
15.411
15.3529
15.2952
15.238
15.1812
15.1248
15.069
15.0137
16.4116
16.3444
16.278
16.2124
16.1475
16.0834
16.02
15.9573
15.8953
15.8338
15.7729
15.7124
15.6525
15.593
15.534
15.4753
15.4171
15.3592
15.3018
15.2448
15.1883
15.1322
15.0767
15.0217
16.4173
16.35
16.2836
16.218
16.1532
16.0892
16.0259
15.9634
15.9015
15.8402
15.7795
15.7194
15.6597
15.6005
15.5418
15.4835
15.4256
15.3681
15.311
15.2544
15.1982
15.1425
15.0873
15.0327
16.4255
16.3582
16.2918
16.2262
16.1614
16.0975
16.0344
15.972
15.9103
15.8493
15.789
15.7291
15.6699
15.6111
15.5528
15.4949
15.4374
15.3803
15.3237
15.2675
15.2118
15.1565
15.1018
15.0476
16.4373
16.3699
16.3035
16.2379
16.1733
16.1095
16.0465
15.9844
15.923
15.8623
15.8023
15.7429
15.6841
15.6258
15.568
15.5107
15.4537
15.3972
15.3411
15.2855
15.2303
15.1757
15.1215
15.0678
16.4541
16.3867
16.3203
16.2548
16.1903
16.1267
16.064
16.0022
15.9411
15.8809
15.8214
15.7625
15.7042
15.6466
15.5894
15.5327
15.4764
15.4206
15.3652
15.3102
15.2557
15.2017
15.1482
15.0951
16.4784
16.411
16.3447
16.2793
16.2149
16.1516
16.0892
16.0277
15.9672
15.9074
15.8485
15.7903
15.7328
15.6759
15.6195
15.5636
15.5082
15.4532
15.3986
15.3444
15.2907
15.2374
15.1846
15.1323
16.5135
16.4462
16.3799
16.3148
16.2507
16.1876
16.1257
16.0647
16.0047
15.9457
15.8875
15.8301
15.7735
15.7176
15.6622
15.6074
15.5529
15.4989
15.4453
15.3921
15.3392
15.2868
15.2348
15.1832
16.5644
16.4973
16.4312
16.3663
16.3026
16.24
16.1786
16.1183
16.0591
16.0009
15.9438
15.8875
15.8322
15.7775
15.7234
15.6699
15.6167
15.564
15.5115
15.4593
15.4075
15.356
15.3049
15.254
16.6387
16.5718
16.506
16.4415
16.3783
16.3163
16.2557
16.1963
16.1382
16.0813
16.0256
15.971
15.9173
15.8644
15.8122
15.7604
15.709
15.6579
15.6068
15.5559
15.5052
15.4547
15.4043
15.3541
16.7474
16.6808
16.6155
16.5516
16.4891
16.4281
16.3686
16.3106
16.2542
16.1993
16.1458
16.0937
16.0428
15.9928
15.9434
15.8945
15.8457
15.7968
15.7477
15.6984
15.649
15.5995
15.5498
15.4998
16.9082
16.842
16.7775
16.7145
16.6532
16.5938
16.5362
16.4807
16.4273
16.3759
16.3266
16.2792
16.2333
16.1887
16.1447
16.1009
16.057
16.0124
15.9668
15.92
15.8725
15.8242
15.7751
15.725
17.151
17.0857
17.0224
16.9612
16.9023
16.8459
16.7923
16.7417
16.6944
16.6505
16.6101
16.5731
16.5387
16.5063
16.4748
16.4432
16.4105
16.3757
16.3381
16.2963
16.2523
16.2061
16.1577
16.107
17.5324
17.4691
17.4087
17.3515
17.298
17.2487
17.2042
17.1656
17.1333
17.1083
17.0908
17.0807
17.0772
17.0786
17.0826
17.0864
17.0873
17.0826
17.0697
17.0462
17.0107
16.9697
16.9228
16.8701
18.1644
18.1072
18.0552
18.0093
17.9706
17.9407
17.9218
17.9164
17.9276
17.9583
18.011
18.0863
18.1827
18.2961
18.4196
18.5449
18.6633
18.7655
18.8424
18.8854
18.8841
18.8507
18.8014
18.7367
19.2803
19.2464
19.2248
19.2184
19.2313
19.2688
19.3385
19.4495
19.6127
19.8381
20.136
20.5107
20.9577
21.4601
21.9919
22.5242
23.03
23.4832
23.8584
24.1325
24.285
24.2802
24.1762
24.0281
23.8417
21.4867
21.5616
21.6769
21.8422
22.0704
22.379
22.7903
23.3304
24.0308
24.9211
26.024
27.3382
28.824
30.4041
31.9875
33.4979
34.8824
36.1052
37.1352
37.9384
38.4792
38.7287
38.6061
38.1643
37.611
26.9785
27.6065
28.3604
29.2566
30.3182
31.5771
33.073
34.8518
36.9584
39.423
42.2256
45.2795
48.4236
51.4545
54.2091
56.6187
58.6864
60.443
61.9129
63.1022
63.9843
64.4979
64.6138
64.2563
63.2849
45.7379
48.1901
50.7295
53.3411
56.0244
58.7934
61.6714
64.6834
67.8284
71.0643
74.2907
77.3509
80.0503
82.2343
83.8813
85.1303
86.1806
87.2335
88.4409
89.8531
91.6206
93.1532
94.175
94.5722
94.3097
100.451
102.976
104.892
106.247
107.108
107.548
107.645
107.452
107.013
106.352
105.501
104.511
103.409
102.506
101.79
101.689
102.687
105.285
109.722
115.794
126.847
135.066
141.123
145.351
147.923
164.014
158.245
152.321
146.453
140.733
135.233
130.023
125.009
120.199
115.68
111.684
108.478
106.428
105.161
103.676
103.979
107.547
118.408
138.102
164.348
241.88
252.051
261.665
269.757
277.176
286.125
163.366
153.964
145.611
138.102
131.245
124.941
119.074
113.728
109.091
105.814
104.669
103.704
103.963
108.876
123.631
155.653
245.494
334.71
409.455
436.57
433.86
407.243
392.999
386.935
376.591
136.576
129.323
122.958
117.356
112.409
108.079
104.535
102.271
102.422
101.715
104.831
118.032
151.083
180.621
362.824
639.32
804.08
467.689
160.748
126.987
115.18
119.543
126.207
132.643
117.333
112.941
109.146
105.927
103.238
101.164
99.9529
100.398
104.488
104.833
118.652
138.438
206.671
574.319
1152.71
457.857
329.304
154.128
104.899
99.6887
103.028
110.99
115.408
118.005
100.525
98.7312
97.3962
96.5361
96.3444
97.2109
100.102
107.169
107.683
122.567
147.908
352.341
667.353
290.1
111.481
115.667
127.065
139.865
142.775
144.363
123.05
110.972
119.769
140.536
158.477
179.147
168.403
453.024
406.909
381.32
372.519
302.977
257.411
275.146
291.454
307.591
72.8746
75.9111
78.7512
81.2081
83.1385
84.5213
85.4862
86.2067
86.8588
87.5706
88.3993
89.5062
90.4354
90.9654
91.0178
90.507
89.2275
40.9363
43.7735
46.8206
49.9084
52.8279
55.4125
57.5951
59.3898
60.8379
61.9761
62.8254
63.3809
63.6042
63.4847
62.8343
61.7249
60.4529
59.0583
25.5969
26.7721
28.1492
29.6787
31.272
32.8273
34.2611
35.5239
36.5889
37.435
38.0413
38.3873
38.4418
38.1101
37.6301
37.0575
36.4145
35.721
20.0752
20.406
20.8142
21.2915
21.8164
22.3573
22.8809
23.3555
23.7566
24.0642
24.2607
24.3294
24.2475
24.1223
23.9578
23.7598
23.5344
23.288
18.0411
18.1046
18.1912
18.2986
18.4212
18.5506
18.677
18.7897
18.8791
18.9373
18.9576
18.9304
18.8878
18.8298
18.7575
18.6724
18.5764
18.4716
17.1402
17.1261
17.1197
17.1198
17.1242
17.1303
17.1348
17.1346
17.1269
17.1092
17.0783
17.0395
16.9952
16.945
16.8892
16.8283
16.763
16.694
16.6642
16.6252
16.5895
16.5565
16.5252
16.4946
16.4634
16.4305
16.395
16.356
16.313
16.268
16.2207
16.171
16.119
16.0648
16.0087
15.951
16.3829
16.3343
16.2875
16.2423
16.1982
16.1547
16.1112
16.0672
16.0225
15.9766
15.9295
15.8817
15.833
15.7833
15.7326
15.681
15.6286
15.5756
16.204
16.1509
16.0992
16.0486
15.9989
15.9499
15.9011
15.8524
15.8036
15.7544
15.705
15.6556
15.6059
15.556
15.5058
15.4553
15.4046
15.3538
16.0854
16.0299
15.9755
15.9221
15.8694
15.8174
15.7658
15.7145
15.6633
15.6123
15.5614
15.5107
15.4602
15.4097
15.3593
15.309
15.2588
15.2086
16.0049
15.9479
15.8918
15.8366
15.7821
15.7281
15.6747
15.6216
15.5689
15.5164
15.4643
15.4125
15.361
15.3098
15.2589
15.2082
15.1579
15.1078
15.9497
15.8916
15.8344
15.7779
15.722
15.6667
15.6119
15.5576
15.5036
15.45
15.3968
15.3439
15.2915
15.2395
15.1879
15.1366
15.0858
15.0353
15.9115
15.8527
15.7946
15.7371
15.6802
15.6239
15.568
15.5126
15.4576
15.403
15.3488
15.2951
15.2418
15.189
15.1366
15.0847
15.0333
14.9823
15.885
15.8255
15.7667
15.7085
15.6508
15.5937
15.537
15.4807
15.4249
15.3694
15.3145
15.2599
15.2059
15.1523
15.0993
15.0467
14.9947
14.9431
15.8664
15.8064
15.7471
15.6883
15.63
15.5721
15.5148
15.4578
15.4013
15.3452
15.2895
15.2343
15.1796
15.1254
15.0717
15.0185
14.9659
14.9139
15.8533
15.7929
15.7332
15.6739
15.6151
15.5567
15.4988
15.4413
15.3842
15.3275
15.2713
15.2155
15.1603
15.1055
15.0513
14.9976
14.9445
14.8919
15.8441
15.7834
15.7233
15.6636
15.6044
15.5456
15.4873
15.4293
15.3718
15.3146
15.258
15.2017
15.146
15.0908
15.0361
14.982
14.9285
14.8755
15.8376
15.7767
15.7162
15.6563
15.5968
15.5377
15.479
15.4207
15.3628
15.3053
15.2482
15.1916
15.1356
15.08
15.025
14.9705
14.9166
14.8633
15.833
15.7719
15.7113
15.6511
15.5914
15.532
15.4731
15.4145
15.3563
15.2986
15.2412
15.1844
15.128
15.0722
15.0169
14.9622
14.908
14.8545
15.83
15.7688
15.708
15.6476
15.5877
15.5282
15.469
15.4103
15.3519
15.294
15.2365
15.1794
15.1228
15.0668
15.0113
14.9564
14.902
14.8483
15.828
15.7667
15.7058
15.6454
15.5854
15.5257
15.4664
15.4076
15.3491
15.291
15.2334
15.1762
15.1195
15.0634
15.0078
14.9527
14.8982
14.8444
15.827
15.7656
15.7047
15.6442
15.5841
15.5244
15.4651
15.4061
15.3476
15.2894
15.2317
15.1744
15.1177
15.0614
15.0057
14.9506
14.8961
14.8421
16.4027
16.3356
16.2693
16.2037
16.1388
16.0745
16.011
15.948
15.8856
15.8237
15.7624
15.7015
15.641
15.5809
15.5213
15.462
15.4031
15.3446
15.2865
15.2288
15.1715
15.1148
15.0585
15.0028
16.4035
16.3364
16.2701
16.2045
16.1396
16.0754
16.0118
15.9488
15.8865
15.8246
15.7633
15.7025
15.6421
15.5821
15.5225
15.4632
15.4044
15.346
15.2879
15.2303
15.1732
15.1165
15.0603
15.0047
16.4051
16.338
16.2717
16.2061
16.1412
16.077
16.0135
15.9506
15.8883
15.8265
15.7653
15.7045
15.6442
15.5843
15.5248
15.4657
15.407
15.3487
15.2908
15.2333
15.1763
15.1197
15.0637
15.0082
16.4076
16.3405
16.2741
16.2085
16.1437
16.0795
16.0161
15.9533
15.891
15.8294
15.7683
15.7077
15.6475
15.5878
15.5285
15.4696
15.4111
15.3529
15.2952
15.238
15.1811
15.1248
15.069
15.0137
16.4115
16.3443
16.2779
16.2123
16.1475
16.0834
16.02
15.9573
15.8952
15.8338
15.7728
15.7124
15.6525
15.593
15.5339
15.4753
15.417
15.3592
15.3017
15.2447
15.1881
15.1321
15.0765
15.0215
16.417
16.3498
16.2834
16.2178
16.153
16.089
16.0258
15.9632
15.9013
15.84
15.7793
15.7192
15.6595
15.6004
15.5416
15.4833
15.4254
15.3679
15.3108
15.2541
15.1979
15.1422
15.087
15.0324
16.4251
16.3578
16.2914
16.2258
16.1611
16.0972
16.0341
15.9717
15.9101
15.8491
15.7887
15.7289
15.6696
15.6108
15.5525
15.4946
15.4371
15.38
15.3234
15.2672
15.2114
15.1562
15.1014
15.0472
16.4367
16.3694
16.3029
16.2374
16.1728
16.109
16.0461
15.984
15.9226
15.8619
15.8019
15.7426
15.6837
15.6254
15.5676
15.5103
15.4533
15.3968
15.3408
15.2851
15.2299
15.1753
15.1211
15.0674
16.4534
16.386
16.3196
16.2542
16.1897
16.1261
16.0635
16.0016
15.9406
15.8804
15.8209
15.762
15.7038
15.6461
15.5889
15.5322
15.476
15.4202
15.3648
15.3098
15.2553
15.2013
15.1478
15.0948
16.4774
16.4101
16.3438
16.2785
16.2142
16.1508
16.0885
16.0271
15.9665
15.9068
15.8479
15.7897
15.7322
15.6753
15.6189
15.5631
15.5077
15.4527
15.3981
15.344
15.2903
15.2371
15.1844
15.1321
16.5122
16.445
16.3788
16.3137
16.2497
16.1867
16.1248
16.0639
16.0039
15.9449
15.8868
15.8295
15.7729
15.717
15.6616
15.6068
15.5524
15.4985
15.4449
15.3918
15.3391
15.2868
15.2349
15.1834
16.5628
16.4958
16.4299
16.3651
16.3014
16.2389
16.1776
16.1174
16.0582
16.0001
15.943
15.8869
15.8315
15.7769
15.7229
15.6694
15.6164
15.5637
15.5113
15.4593
15.4077
15.3565
15.3055
15.2549
16.6369
16.5701
16.5046
16.4403
16.3772
16.3154
16.2548
16.1956
16.1375
16.0807
16.0251
15.9705
15.9169
15.8641
15.812
15.7603
15.709
15.658
15.6071
15.5565
15.5061
15.456
15.406
15.3562
16.7458
16.6795
16.6145
16.5509
16.4887
16.4279
16.3685
16.3107
16.2544
16.1996
16.1462
16.0941
16.0432
15.9932
15.9438
15.8949
15.8461
15.7974
15.7486
15.6997
15.6508
15.6019
15.5529
15.5038
16.9077
16.8421
16.778
16.7155
16.6546
16.5955
16.5382
16.4829
16.4295
16.3782
16.3287
16.2811
16.2349
16.1899
16.1455
16.1013
16.057
16.0122
15.9666
15.9202
15.8734
15.826
15.7779
15.7291
17.1538
17.0893
17.0268
16.9662
16.9079
16.8519
16.7984
16.7478
16.7002
16.6557
16.6143
16.5757
16.5395
16.5049
16.471
16.437
16.402
16.3652
16.3261
16.2842
16.241
16.196
16.1492
16.1003
17.5419
17.4797
17.4202
17.3637
17.3105
17.2611
17.216
17.1758
17.141
17.1122
17.0894
17.0726
17.0606
17.0519
17.0444
17.0362
17.025
17.0092
16.9869
16.9558
16.9202
16.8804
16.836
16.7867
18.1867
18.1299
18.0777
18.0308
17.9899
17.9562
17.9311
17.9164
17.914
17.9257
17.9527
17.9952
18.0508
18.1158
18.1851
18.2528
18.3133
18.3612
18.3911
18.398
18.3815
18.3537
18.3138
18.2619
19.3336
19.2922
19.26
19.2389
19.2311
19.2402
19.2705
19.3278
19.4187
19.5494
19.7252
19.9485
20.2147
20.5122
20.824
21.1317
21.4184
21.6681
21.8646
21.992
22.0268
22.0184
21.9754
21.9011
21.7961
21.5287
21.5394
21.5736
21.6367
21.7362
21.8826
22.09
22.3748
22.759
23.2642
23.9096
24.7016
25.6201
26.6149
27.6231
28.5903
29.4759
30.246
30.8689
31.3127
31.5512
31.5481
31.4504
31.258
30.981
26.2915
26.528
26.8327
27.2187
27.7052
28.3187
29.0944
30.0753
31.3157
32.8694
34.7676
36.9833
39.4002
41.8445
44.1545
46.2361
48.055
49.5955
50.8349
51.7428
52.2858
52.389
52.0611
51.5212
50.7885
39.4683
40.5638
41.782
43.135
44.6497
46.3686
48.3499
50.664
53.3765
56.5271
60.094
63.9037
67.6707
71.0948
74.0239
76.4511
78.4656
80.1358
81.4684
82.4506
83.0666
83.2327
82.7258
81.5989
80.2011
81.9344
83.7003
85.3682
86.9424
88.4485
89.9318
91.4454
92.9859
94.7058
96.6703
98.8539
101.099
103.305
105.118
106.871
108.738
110.712
112.743
114.709
116.513
118.289
120.432
121.22
120.59
118.79
151.333
148.314
145.091
141.76
138.409
135.124
131.997
129.113
126.576
124.593
123.37
123.279
122.2
122.753
126.559
134.317
143.406
152.698
162.004
171.205
181.738
211.574
214.316
215.764
215.588
214.972
179.58
170.263
161.986
154.618
148.084
142.365
137.385
133.334
130.771
129.795
129.171
134.654
153.314
189.749
253.664
261.539
292.546
349.836
355.357
375.332
391.01
416.784
398.733
384.043
371.341
174.813
166.517
159.12
152.557
146.823
142.022
138.666
137.762
135.433
141.005
173.538
227.414
479.921
708.648
1341.57
962.403
869.138
848.008
520.041
353.689
316.55
218.211
262.353
258.721
176.465
169.344
163.306
158.263
154.215
151.261
150.074
153.465
152.335
174.217
217.236
676.134
506.985
148.918
147.621
145.942
150.767
147.472
152.521
148.187
144.701
142.174
140.883
141.646
147.071
149.117
175.084
234.669
1147.39
1610.95
160.027
168.089
173.881
181.141
173.59
1065.6
275.935
146.949
159.726
208.091
228.746
212.67
529.383
405.545
379.033
357.682
328.99
236.963
244.516
251.439
257.704
59.1202
62.654
66.3655
69.9824
73.1927
75.8301
77.8866
79.4548
80.6117
81.388
81.8406
81.9699
81.686
80.7144
79.4981
78.0674
76.4559
34.247
36.2582
38.5656
41.0353
43.474
45.7077
47.6366
49.2334
50.5024
51.4386
52.0346
52.281
52.0412
51.6092
50.9933
50.2138
49.3036
48.2957
23.7813
24.4958
25.357
26.3365
27.3731
28.3932
29.3345
30.152
30.8175
31.3096
31.6083
31.6691
31.603
31.4497
31.2143
30.9068
30.5397
30.1264
19.7264
19.9272
20.1771
20.469
20.7879
21.1127
21.4219
21.696
21.9171
22.0717
22.1494
22.1515
22.1215
22.0597
21.9672
21.847
21.7032
21.5405
17.9905
18.0255
18.0764
18.1402
18.2123
18.2865
18.3559
18.4139
18.4546
18.4728
18.462
18.4383
18.4032
18.3564
18.2981
18.2291
18.1507
18.0643
17.1382
17.1182
17.1042
17.0949
17.0886
17.0829
17.0752
17.0634
17.0455
17.0198
16.986
16.9481
16.9058
16.8587
16.8068
16.7504
16.69
16.6262
16.6671
16.6269
16.5895
16.5544
16.5208
16.4877
16.454
16.4189
16.3816
16.3415
16.299
16.255
16.2091
16.1612
16.1113
16.0594
16.0058
15.9506
16.3842
16.3354
16.2883
16.2427
16.1982
16.1542
16.1104
16.0662
16.0212
15.9753
15.9288
15.8817
15.834
15.7856
15.7363
15.6862
15.6353
15.5839
16.2038
16.1508
16.0991
16.0485
15.9988
15.9497
15.901
15.8524
15.8037
15.7548
15.706
15.6571
15.6081
15.5589
15.5095
15.4599
15.4101
15.3601
16.0846
16.0292
15.9749
15.9215
15.8689
15.8169
15.7654
15.7142
15.6633
15.6124
15.5619
15.5115
15.4614
15.4113
15.3614
15.3116
15.2618
15.2123
16.004
15.9471
15.8911
15.8359
15.7814
15.7275
15.6741
15.6212
15.5686
15.5163
15.4643
15.4127
15.3615
15.3105
15.2598
15.2094
15.1593
15.1095
15.9489
15.8909
15.8337
15.7772
15.7214
15.6661
15.6114
15.5571
15.5031
15.4496
15.3965
15.3438
15.2915
15.2396
15.1881
15.137
15.0863
15.036
15.9109
15.852
15.794
15.7365
15.6797
15.6234
15.5675
15.5121
15.4572
15.4026
15.3485
15.2948
15.2416
15.1888
15.1365
15.0846
15.0333
14.9824
15.8845
15.825
15.7662
15.708
15.6504
15.5932
15.5365
15.4803
15.4244
15.369
15.3141
15.2596
15.2055
15.152
15.0989
15.0464
14.9943
14.9428
15.866
15.8061
15.7467
15.6879
15.6296
15.5718
15.5144
15.4575
15.4009
15.3448
15.2892
15.234
15.1792
15.125
15.0713
15.0181
14.9655
14.9134
15.853
15.7927
15.7329
15.6736
15.6148
15.5565
15.4986
15.441
15.3839
15.3272
15.271
15.2152
15.1599
15.1052
15.0509
14.9972
14.9441
14.8915
15.8439
15.7833
15.7231
15.6635
15.6043
15.5455
15.4871
15.4292
15.3716
15.3145
15.2578
15.2015
15.1458
15.0906
15.0359
14.9817
14.9282
14.8752
15.8376
15.7767
15.7162
15.6563
15.5968
15.5377
15.479
15.4207
15.3627
15.3052
15.2482
15.1916
15.1355
15.0799
15.0248
14.9703
14.9164
14.8631
15.8331
15.772
15.7114
15.6512
15.5915
15.5321
15.4732
15.4146
15.3564
15.2986
15.2413
15.1844
15.128
15.0722
15.0168
14.9621
14.9079
14.8543
15.8302
15.7689
15.7082
15.6478
15.5879
15.5284
15.4692
15.4105
15.3521
15.2941
15.2366
15.1795
15.1229
15.0669
15.0113
14.9564
14.902
14.8483
15.8282
15.7669
15.706
15.6456
15.5856
15.5259
15.4666
15.4078
15.3493
15.2912
15.2335
15.1763
15.1196
15.0634
15.0078
14.9527
14.8982
14.8444
15.8272
15.7659
15.7049
15.6444
15.5843
15.5246
15.4653
15.4063
15.3477
15.2896
15.2319
15.1746
15.1178
15.0615
15.0058
14.9507
14.8961
14.8421
16.4028
16.3357
16.2694
16.2038
16.139
16.0748
16.0112
15.9482
15.8858
15.824
15.7626
15.7017
15.6413
15.5812
15.5215
15.4622
15.4033
15.3448
15.2867
15.2289
15.1717
15.1149
15.0586
15.0029
16.4035
16.3365
16.2702
16.2046
16.1397
16.0755
16.012
15.9491
15.8867
15.8249
15.7636
15.7027
15.6423
15.5823
15.5227
15.4635
15.4046
15.3462
15.2881
15.2305
15.1733
15.1166
15.0604
15.0047
16.4051
16.338
16.2717
16.2061
16.1413
16.0771
16.0136
15.9507
15.8884
15.8266
15.7654
15.7046
15.6443
15.5844
15.5249
15.4658
15.4071
15.3488
15.2908
15.2333
15.1763
15.1197
15.0637
15.0081
16.4073
16.3402
16.2739
16.2083
16.1435
16.0794
16.0159
15.9531
15.8909
15.8293
15.7682
15.7076
15.6474
15.5877
15.5284
15.4694
15.4109
15.3528
15.295
15.2377
15.1809
15.1245
15.0686
15.0133
16.4108
16.3436
16.2773
16.2117
16.1469
16.0828
16.0195
15.9568
15.8947
15.8332
15.7723
15.7119
15.6519
15.5924
15.5334
15.4747
15.4164
15.3585
15.3011
15.244
15.1874
15.1313
15.0757
15.0207
16.4158
16.3486
16.2823
16.2167
16.1519
16.088
16.0247
15.9622
15.9003
15.839
15.7783
15.7181
15.6585
15.5993
15.5405
15.4822
15.4243
15.3667
15.3096
15.2529
15.1967
15.1409
15.0857
15.031
16.4234
16.3562
16.2898
16.2243
16.1596
16.0957
16.0326
15.9702
15.9086
15.8476
15.7872
15.7274
15.6681
15.6093
15.5509
15.493
15.4355
15.3784
15.3217
15.2655
15.2097
15.1544
15.0996
15.0454
16.4346
16.3673
16.301
16.2355
16.1709
16.1072
16.0443
15.9821
15.9208
15.8601
15.8001
15.7407
15.6819
15.6236
15.5657
15.5084
15.4514
15.3949
15.3388
15.2831
15.2279
15.1732
15.119
15.0653
16.4509
16.3836
16.3173
16.2519
16.1875
16.1239
16.0613
15.9995
15.9385
15.8783
15.8188
15.7599
15.7017
15.644
15.5868
15.5301
15.4738
15.418
15.3626
15.3076
15.2531
15.1991
15.1456
15.0925
16.4745
16.4073
16.3411
16.2758
16.2116
16.1483
16.086
16.0246
15.9641
15.9044
15.8455
15.7874
15.7299
15.673
15.6166
15.5608
15.5054
15.4504
15.3958
15.3417
15.2881
15.2349
15.1822
15.1299
16.5088
16.4417
16.3756
16.3106
16.2467
16.1838
16.1219
16.0611
16.0012
15.9422
15.8842
15.8269
15.7703
15.7144
15.6591
15.6043
15.55
15.4961
15.4426
15.3895
15.3369
15.2847
15.2329
15.1816
16.5588
16.4919
16.4261
16.3615
16.298
16.2357
16.1744
16.1143
16.0552
15.9972
15.9402
15.8841
15.8288
15.7742
15.7203
15.6668
15.6139
15.5613
15.5091
15.4573
15.4059
15.3548
15.3042
15.2538
16.6322
16.5657
16.5004
16.4364
16.3735
16.3119
16.2516
16.1925
16.1346
16.0779
16.0224
15.9679
15.9143
15.8616
15.8095
15.7579
15.7067
15.6559
15.6052
15.555
15.505
15.4553
15.4059
15.3566
16.7409
16.6751
16.6105
16.5473
16.4855
16.425
16.366
16.3084
16.2523
16.1976
16.1443
16.0923
16.0413
15.9913
15.942
15.8931
15.8444
15.7959
15.7474
15.6991
15.6509
15.6028
15.5548
15.5066
16.9037
16.8389
16.7756
16.7137
16.6535
16.5949
16.5381
16.483
16.4298
16.3785
16.329
16.2812
16.2347
16.1893
16.1445
16.1
16.0554
16.0105
15.965
15.9194
15.8737
15.8277
15.7811
15.734
17.1532
17.09
17.0287
16.9692
16.9118
16.8565
16.8036
16.7531
16.7054
16.6604
16.618
16.5781
16.5402
16.5035
16.4674
16.4311
16.3939
16.3555
16.3152
16.2741
16.2321
16.189
16.1444
16.0983
17.5488
17.4886
17.4309
17.3758
17.3237
17.2749
17.2297
17.1886
17.152
17.12
17.0928
17.0698
17.0501
17.0323
17.0148
16.9959
16.9743
16.9491
16.9192
16.8861
16.8507
16.8125
16.7706
16.7249
18.2129
18.1581
18.1072
18.0606
18.019
17.983
17.9536
17.9318
17.9186
17.9151
17.9215
17.9371
17.9599
17.9864
18.0126
18.0348
18.05
18.0556
18.0493
18.0332
18.0113
17.9824
17.9455
17.9
19.4002
19.3533
19.3136
19.2821
19.2602
19.2497
19.253
19.2731
19.3131
19.3764
19.4643
19.576
19.7065
19.8472
19.9876
20.1185
20.2321
20.3219
20.3807
20.4091
20.4224
20.4176
20.3926
20.3466
20.2805
21.6173
21.5846
21.5667
21.566
21.586
21.6321
21.711
21.831
22.003
22.2381
22.5448
22.9233
23.3593
23.8244
24.2856
24.7171
25.1015
25.4235
25.6644
25.8146
25.9254
25.9855
25.9891
25.9335
25.8197
26.1867
26.1792
26.1951
26.2555
26.3684
26.5482
26.8151
27.1943
27.7193
28.4269
29.3463
30.4699
31.7346
33.0325
34.2633
35.3741
36.3451
37.1586
37.7834
38.1812
38.4773
38.6453
38.6583
38.5116
38.2131
37.0417
37.1611
37.3223
37.5161
37.7875
38.2382
38.912
39.8707
41.1903
42.944
45.1655
47.763
50.5039
53.0828
55.3101
57.172
58.7285
59.9997
60.9494
61.5054
61.8104
61.8778
61.6463
61.1025
60.2868
67.7046
67.6295
67.6923
67.8966
68.2249
68.6183
69.1274
70.0852
71.5879
73.7222
76.5396
79.7915
82.9026
85.5991
87.7081
89.3741
90.795
91.9783
92.8298
93.2671
93.2606
93.0667
92.55
91.5828
90.2009
124.537
122.143
119.916
117.866
116.028
114.431
113.139
112.018
111.408
111.624
113.113
112.488
113.575
117.655
122.947
127.957
132.594
136.842
140.238
142.284
143.373
146.577
152.165
151.099
149.555
147.703
172.354
164.653
157.771
151.65
146.276
141.684
137.977
135.171
134.143
132.44
133.741
149.18
191.284
214.549
253.91
270.51
277.46
278.188
274.093
280.554
277.018
284.152
310.96
301.533
291.647
179.393
171.142
163.745
157.144
151.353
146.461
142.761
139.346
139.119
155.956
214.979
723.94
2375.61
636.368
697.916
592.178
445.884
341.695
313.207
145.454
139.071
133.375
128.199
123.486
119.548
115.73
116.577
124.665
153.007
812.405
673.269
212.7
202.193
191.052
199.541
153.724
148.011
142.871
138.313
134.391
131.432
130.434
142.568
180.704
1100.46
251.901
229.554
217.19
198.105
269.713
187.986
266.142
270.462
242.41
510.829
433.411
347.134
321.278
247.829
216.534
216.626
216.286
118.797
122.505
124.946
126.524
44.612
46.9493
49.6405
52.426
54.9731
57.0768
58.7252
59.9888
60.9069
61.4663
61.6864
61.7295
61.5753
61.1673
60.5087
59.6298
58.573
29.1675
30.1747
31.3856
32.7248
34.0665
35.2956
36.3501
37.212
37.8701
38.3088
38.5881
38.7678
38.8257
38.7494
38.5352
38.191
37.7294
37.1844
22.5178
22.8609
23.278
23.7507
24.2443
24.7191
25.1448
25.502
25.7738
25.9476
26.0596
26.1293
26.15
26.1179
26.0319
25.8949
25.7127
25.4921
19.4807
19.5814
19.7065
19.8501
20.0016
20.1484
20.2798
20.387
20.463
20.5017
20.5194
20.5207
20.5037
20.467
20.4103
20.3344
20.2407
20.1311
17.9554
17.9663
17.9866
18.0139
18.0442
18.0727
18.0953
18.1085
18.1098
18.0965
18.0771
18.0514
18.0185
17.9775
17.9282
17.8706
17.805
17.7328
17.1374
17.1118
17.0906
17.0727
17.0563
17.0398
17.0211
16.999
16.9723
16.9402
16.9061
16.8694
16.8296
16.7862
16.7388
16.6876
16.6328
16.5748
16.6683
16.6268
16.5877
16.5506
16.5147
16.4791
16.4431
16.4059
16.3671
16.3264
16.285
16.2426
16.1989
16.1537
16.1068
16.0581
16.0077
15.956
16.3829
16.3339
16.2865
16.2405
16.1955
16.1511
16.1069
16.0624
16.0175
15.9721
15.9265
15.8807
15.8345
15.7877
15.7402
15.692
15.6432
15.5936
16.201
16.148
16.0963
16.0456
15.9959
15.9468
15.8981
15.8497
15.8012
15.7528
15.7046
15.6565
15.6084
15.5602
15.5118
15.4633
15.4146
15.3658
16.0812
16.0259
15.9716
15.9183
15.8657
15.8138
15.7624
15.7114
15.6606
15.6101
15.5599
15.51
15.4603
15.4108
15.3615
15.3123
15.2632
15.2142
16.0008
15.9439
15.888
15.8328
15.7784
15.7246
15.6712
15.6184
15.5659
15.5137
15.462
15.4106
15.3596
15.3089
15.2585
15.2084
15.1586
15.1092
15.946
15.8881
15.8309
15.7744
15.7186
15.6634
15.6087
15.5544
15.5005
15.4471
15.394
15.3414
15.2892
15.2375
15.1861
15.1351
15.0846
15.0344
15.9084
15.8496
15.7915
15.7341
15.6772
15.6209
15.5651
15.5097
15.4547
15.4002
15.3461
15.2924
15.2392
15.1865
15.1342
15.0824
15.0311
14.9802
15.8823
15.8228
15.764
15.7058
15.6482
15.591
15.5343
15.4781
15.4222
15.3668
15.3118
15.2573
15.2032
15.1497
15.0966
15.044
14.992
14.9404
15.8641
15.8042
15.7448
15.686
15.6277
15.5699
15.5125
15.4555
15.3989
15.3428
15.2871
15.2318
15.1771
15.1228
15.0691
15.0159
14.9632
14.9111
15.8515
15.7912
15.7314
15.6721
15.6133
15.5549
15.497
15.4394
15.3823
15.3256
15.2693
15.2135
15.1581
15.1033
15.049
14.9953
14.9421
14.8894
15.8429
15.7822
15.7221
15.6624
15.6032
15.5444
15.486
15.428
15.3704
15.3133
15.2565
15.2003
15.1445
15.0892
15.0345
14.9803
14.9266
14.8736
15.837
15.7761
15.7157
15.6558
15.5962
15.5371
15.4784
15.4201
15.3621
15.3046
15.2475
15.1909
15.1347
15.0791
15.024
14.9694
14.9155
14.8621
15.833
15.7719
15.7113
15.6511
15.5914
15.532
15.473
15.4144
15.3562
15.2984
15.2411
15.1842
15.1277
15.0718
15.0165
14.9617
14.9074
14.8538
15.8303
15.7691
15.7083
15.648
15.588
15.5285
15.4693
15.4105
15.3522
15.2942
15.2366
15.1795
15.1229
15.0668
15.0112
14.9562
14.9018
14.848
15.8284
15.7671
15.7063
15.6458
15.5858
15.5261
15.4669
15.408
15.3495
15.2913
15.2337
15.1764
15.1197
15.0635
15.0078
14.9527
14.8982
14.8442
15.8275
15.7661
15.7052
15.6447
15.5846
15.5249
15.4655
15.4066
15.348
15.2898
15.232
15.1747
15.1179
15.0616
15.0059
14.9507
14.8961
14.842
16.4029
16.3359
16.2696
16.2041
16.1392
16.0751
16.0115
15.9486
15.8862
15.8244
15.763
15.7021
15.6417
15.5816
15.5219
15.4626
15.4037
15.3451
15.287
15.2292
15.1719
15.1151
15.0588
15.003
16.4036
16.3366
16.2703
16.2047
16.1399
16.0758
16.0122
15.9493
15.887
15.8252
15.7639
15.703
15.6426
15.5826
15.523
15.4637
15.4049
15.3464
15.2883
15.2306
15.1734
15.1167
15.0604
15.0047
16.4048
16.3378
16.2715
16.206
16.1411
16.077
16.0135
15.9506
15.8884
15.8266
15.7654
15.7046
15.6443
15.5844
15.5249
15.4658
15.407
15.3487
15.2907
15.2332
15.1761
15.1195
15.0634
15.0078
16.4064
16.3393
16.273
16.2075
16.1427
16.0786
16.0151
15.9524
15.8902
15.8285
15.7674
15.7068
15.6466
15.5869
15.5276
15.4686
15.4101
15.3519
15.2941
15.2368
15.1799
15.1234
15.0675
15.0121
16.4086
16.3415
16.2752
16.2096
16.1448
16.0808
16.0174
15.9547
15.8927
15.8312
15.7703
15.7098
15.6499
15.5904
15.5312
15.4725
15.4142
15.3563
15.2988
15.2417
15.1851
15.1289
15.0733
15.0182
16.4121
16.3449
16.2785
16.213
16.1483
16.0843
16.0211
15.9585
15.8966
15.8353
15.7746
15.7144
15.6548
15.5955
15.5367
15.4784
15.4204
15.3628
15.3056
15.2489
15.1926
15.1368
15.0815
15.0267
16.4182
16.351
16.2846
16.2191
16.1544
16.0905
16.0274
15.9651
15.9034
15.8424
15.782
15.7221
15.6628
15.6039
15.5455
15.4876
15.43
15.3728
15.3161
15.2598
15.2039
15.1486
15.0937
15.0394
16.4283
16.3611
16.2947
16.2293
16.1647
16.101
16.0381
15.9759
15.9146
15.8539
15.7939
15.7344
15.6755
15.6172
15.5593
15.5018
15.4448
15.3882
15.332
15.2763
15.221
15.1662
15.1119
15.0581
16.4439
16.3767
16.3104
16.245
16.1806
16.1171
16.0544
15.9926
15.9316
15.8714
15.8118
15.753
15.6947
15.6369
15.5797
15.5229
15.4666
15.4107
15.3552
15.3002
15.2456
15.1915
15.1379
15.0848
16.4668
16.3996
16.3335
16.2683
16.2041
16.1409
16.0786
16.0172
15.9567
15.8971
15.8382
15.78
15.7224
15.6655
15.6091
15.5532
15.4977
15.4427
15.3881
15.334
15.2803
15.2271
15.1743
15.122
16.5003
16.4333
16.3673
16.3024
16.2386
16.1758
16.114
16.0532
15.9934
15.9345
15.8764
15.8191
15.7626
15.7067
15.6513
15.5965
15.5422
15.4883
15.4348
15.3817
15.3292
15.277
15.2253
15.174
16.5494
16.4827
16.4171
16.3527
16.2894
16.2272
16.1661
16.1061
16.0471
15.9892
15.9322
15.8762
15.8209
15.7664
15.7125
15.6591
15.6062
15.5537
15.5015
15.4499
15.3986
15.3478
15.2974
15.2473
16.622
16.5558
16.4909
16.4271
16.3646
16.3033
16.2432
16.1843
16.1266
16.0701
16.0147
15.9603
15.9068
15.8542
15.8022
15.7507
15.6996
15.649
15.5986
15.5486
15.4991
15.4499
15.4009
15.3522
16.7303
16.6651
16.6011
16.5385
16.4772
16.4172
16.3586
16.3014
16.2456
16.1912
16.1381
16.0862
16.0354
15.9855
15.9363
15.8875
15.839
15.7908
15.7427
15.6951
15.6477
15.6005
15.5533
15.5062
16.8941
16.8304
16.7681
16.7073
16.6479
16.5901
16.534
16.4796
16.4269
16.3759
16.3266
16.2788
16.2324
16.1868
16.1419
16.0974
16.0528
16.008
15.9632
15.9187
15.8742
15.8296
15.7847
15.7394
17.1475
17.0862
17.0266
16.9688
16.9128
16.8588
16.8069
16.7573
16.71
16.6652
16.6227
16.5823
16.5436
16.5059
16.4686
16.431
16.3928
16.3535
16.3136
16.2737
16.2335
16.1926
16.1506
16.1072
17.5517
17.4946
17.4397
17.3872
17.3373
17.2903
17.2463
17.2058
17.169
17.136
17.1068
17.0807
17.057
17.0343
17.0112
16.9865
16.9593
16.9291
16.8971
16.8643
16.8302
16.7941
16.7553
16.7133
18.2403
18.1891
18.1413
18.0973
18.0574
18.0222
17.9923
17.9684
17.9512
17.941
17.9378
17.9405
17.947
17.9541
17.9587
17.9581
17.9505
17.9352
17.9155
17.8931
17.8673
17.8369
17.8005
17.7574
19.4701
19.424
19.3844
19.3518
19.3271
19.3114
19.3061
19.313
19.3338
19.3696
19.4206
19.4842
19.5543
19.6233
19.6836
19.7302
19.7602
19.7722
19.7757
19.7725
19.7617
19.741
19.7073
19.6586
19.5946
21.796
21.7655
21.7354
21.7085
21.6985
21.7074
21.739
21.798
21.8893
22.0177
22.1849
22.3846
22.6001
22.8082
22.9903
23.1376
23.2483
23.3201
23.3816
23.428
23.4575
23.4647
23.4418
23.3833
23.2889
26.4677