/*--------------------------------*- C++ -*----------------------------------*\
  =========                 |
  \\      /  F ield         | OpenFOAM: The Open Source CFD Toolbox
   \\    /   O peration     | Website:  https://openfoam.org
    \\  /    A nd           | Version:  13
     \\/     M anipulation  |
\*---------------------------------------------------------------------------*/
FoamFile
{
    format      ascii;
    class       volScalarField;
    location    "100";
    object      p;
}
// * * * * * * * * * * * * * * * * * * * * * * * * * * * * * * * * * * * * * //

dimensions      [0 2 -2 0 0 0 0];

internalField   nonuniform List<scalar> 
171745
(
-2.80486
-3.27509
-3.75113
-4.23279
-4.71958
-5.2105
-5.70403
-6.19823
-6.69079
-7.17903
-7.66
-8.13047
-8.58707
-9.0264
-9.44512
-9.84007
-10.2083
-10.5471
-10.8543
-11.1279
-11.3665
-11.5691
-11.7352
-11.8648
-2.81035
-3.28011
-3.75607
-4.23807
-4.72562
-5.21772
-5.71287
-6.20909
-6.70403
-7.19497
-7.67888
-8.15249
-8.61232
-9.0549
-9.47676
-9.87462
-10.2455
-10.5865
-10.8955
-11.1705
-11.4099
-11.6129
-11.7789
-11.9079
-2.8201
-3.28882
-3.7646
-4.24729
-4.73642
-5.23099
-5.72946
-6.2298
-6.72959
-7.22601
-7.7159
-8.19585
-8.66224
-9.11137
-9.53959
-9.94342
-10.3196
-10.6653
-10.9781
-11.2559
-11.4971
-11.7009
-11.8668
-11.9947
-2.83373
-3.30078
-3.7762
-4.25991
-4.75144
-5.24977
-5.75332
-6.25999
-6.76721
-7.27201
-7.77107
-8.26075
-8.73716
-9.19634
-9.63431
-10.0473
-10.4318
-10.7846
-11.1032
-11.3854
-11.6295
-11.8346
-12.0002
-12.1265
-2.84973
-3.31436
-3.7892
-4.2742
-4.76893
-5.27234
-5.78279
-6.29807
-6.81547
-7.33178
-7.84344
-8.34649
-8.83671
-9.30973
-9.76115
-10.1868
-10.5827
-10.9455
-11.2722
-11.5605
-11.8086
-12.0154
-12.1807
-12.3046
-2.86658
-3.32786
-3.80174
-4.28824
-4.78694
-5.29676
-5.81601
-6.34234
-6.87284
-7.40407
-7.9321
-8.45258
-8.96082
-9.4519
-9.92092
-10.3631
-10.774
-11.1498
-11.4871
-11.7834
-12.0367
-12.2459
-12.4106
-12.5313
-2.88189
-3.3387
-3.81111
-4.29921
-4.80259
-5.32019
-5.85022
-6.3902
-6.93701
-7.48689
-8.0355
-8.57798
-9.10901
-9.62302
-10.1144
-10.5776
-11.0076
-11.3999
-11.7508
-12.0572
-12.317
-12.529
-12.693
-12.8095
-2.89285
-3.34383
-3.81407
-4.30374
-4.81247
-5.33919
-5.88206
-6.43848
-7.00509
-7.57779
-8.15173
-8.72141
-9.28076
-9.82333
-10.3426
-10.8321
-11.2859
-11.6989
-12.0666
-12.3856
-12.6535
-12.8689
-13.0317
-13.1429
-2.89586
-3.33934
-3.8065
-4.29755
-4.81218
-5.34934
-5.90719
-6.48301
-7.07324
-7.6734
-8.27808
-8.881
-9.47512
-10.0529
-10.6066
-11.1286
-11.6119
-12.0504
-12.4389
-12.7734
-13.051
-13.2704
-13.4316
-13.536
-2.88657
-3.32061
-3.7835
-4.27552
-4.79643
-5.34526
-5.9202
-6.51854
-7.13654
-7.76938
-8.41101
-9.05421
-9.69074
-10.3116
-10.9076
-11.4697
-11.9893
-12.4591
-12.8731
-13.2265
-13.516
-13.7401
-13.8989
-13.9944
-2.85979
-3.2821
-3.73925
-4.23154
-4.75884
-5.32032
-5.91438
-6.5384
-7.18866
-7.85998
-8.54568
-9.23745
-9.92553
-10.5991
-11.247
-11.8581
-12.4222
-12.9305
-13.3757
-13.7521
-14.0559
-14.2854
-14.441
-14.5252
-2.80938
-3.21738
-3.66699
-4.15849
-4.69187
-5.26661
-5.88148
-6.53429
-7.22145
-7.93771
-8.6757
-9.42584
-10.1765
-10.9145
-11.626
-12.2974
-12.9161
-13.4714
-13.9546
-14.3592
-14.6804
-14.9162
-15.0673
-15.1371
-2.7283
-3.11915
-3.55905
-4.04815
-4.58666
-5.17455
-5.81133
-6.49555
-7.22431
-7.99247
-8.79216
-9.61237
-10.4391
-11.256
-12.0456
-12.791
-13.4766
-14.0896
-14.6195
-15.0585
-15.4009
-15.6442
-15.7893
-15.8406
-2.60862
-2.97939
-3.40705
-3.89153
-4.43332
-5.03319
-5.69185
-6.40932
-7.18391
-8.01134
-8.88347
-9.78778
-10.7072
-11.621
-12.5071
-13.3435
-14.1113
-14.7948
-15.3819
-15.8632
-16.2319
-16.4842
-16.6213
-16.6491
-2.44157
-2.78924
-3.20163
-3.67826
-4.22
-4.82887
-5.5075
-6.2583
-7.082
-7.97603
-8.93271
-9.93788
-10.9706
-12.0045
-13.01
-13.9591
-14.8279
-15.5979
-16.2551
-16.7889
-17.1904
-17.4541
-17.5808
-17.5784
-2.21916
-2.54131
-2.9352
-3.39971
-3.93625
-4.54858
-5.24225
-6.02344
-6.89705
-7.86412
-8.91855
-10.0449
-11.2173
-12.4007
-13.5555
-14.6443
-15.6372
-16.5131
-17.2567
-17.8557
-18.2993
-18.5782
-18.692
-18.6508
-1.92998
-2.22451
-2.59607
-3.04253
-3.56595
-4.17251
-4.87188
-5.6759
-6.59642
-7.64082
-8.80722
-10.0801
-11.4268
-12.7996
-14.143
-15.4059
-16.5508
-17.5555
-18.4055
-19.0865
-19.5839
-19.8841
-19.9823
-19.891
-1.57328
-1.83997
-2.18548
-2.60621
-3.10488
-3.69076
-4.37939
-5.19122
-6.14843
-7.26959
-8.56132
-10.0102
-11.5755
-13.1907
-14.775
-16.2555
-17.5854
-18.7453
-19.726
-20.5122
-21.081
-21.4115
-21.493
-21.3389
-1.13029
-1.37164
-1.68842
-2.07476
-2.53373
-3.07815
-3.73101
-4.52451
-5.49701
-6.68447
-8.1098
-9.76885
-11.6136
-13.5479
-15.4472
-17.2024
-18.7557
-20.0994
-21.239
-22.1604
-22.8267
-23.1986
-23.2572
-23.0211
-22.5454
-0.632737
-0.853306
-1.13811
-1.47794
-1.87541
-2.34666
-2.92329
-3.65185
-4.59339
-5.8158
-7.37513
-9.28887
-11.5028
-13.8715
-16.1907
-18.2893
-20.1025
-21.6564
-22.9894
-24.0901
-24.9011
-25.3464
-25.3778
-25.0228
-24.3775
-0.0424358
-0.255737
-0.511813
-0.796707
-1.11077
-1.47178
-1.91934
-2.5195
-3.36599
-4.57491
-6.25988
-8.48549
-11.2025
-14.1922
-17.0938
-19.6111
-21.6909
-23.4499
-24.9954
-26.3191
-27.3316
-27.8942
-27.8975
-27.3915
-26.5273
0.528541
0.310594
0.0817425
-0.137465
-0.342697
-0.55071
-0.807075
-1.19768
-1.85717
-2.96794
-4.73492
-7.31854
-10.7088
-14.5797
-18.3514
-21.4374
-23.796
-25.73
-27.4909
-29.0872
-30.4101
-31.1228
-31.032
-30.2677
-29.1062
1.02733
0.767253
0.538188
0.367635
0.267399
0.226251
0.198873
0.0905347
-0.267379
-1.13761
-2.86686
-5.8022
-10.0245
-14.9466
-19.756
-23.513
-26.1289
-28.1702
-30.1137
-31.9729
-34.0846
-35.1887
-34.8934
-33.7365
-32.159
0.952147
0.63279
0.398557
0.283766
0.309982
0.479619
0.762858
1.07483
1.23739
0.925308
-0.397353
-3.40865
-8.5702
-13.8103
-20.0109
-24.6969
-27.7438
-29.8119
-31.7969
-33.811
-37.8795
-40.0173
-39.2329
-37.567
-35.5108
-33.2273
-0.0121824
-0.192559
-0.20174
-0.0020739
0.433305
1.11078
1.9914
2.94246
3.66145
3.49091
1.36715
-4.09274
-12.042
-21.5986
-28.9162
-32.2658
-34.2478
-35.6595
-37.6858
-39.5263
-43.6684
-41.6748
-39.4072
-36.5211
-33.4761
-1.05128
-0.953817
-0.587384
0.10359
1.1697
2.64624
4.5072
6.59807
8.51707
6.70899
3.29599
-5.83947
-18.3679
-30.3339
-41.0394
-40.0753
-37.7636
-38.9498
-41.0237
-42.7667
-42.1186
-40.7934
-38.4259
-35.2137
-1.71715
-1.57557
-1.1408
-0.333595
0.927256
2.72069
5.11216
8.08667
11.3633
12.3914
12.6997
7.69223
-0.0814068
-18.7195
-90.2883
-50.5466
-38.836
-38.8971
-40.3594
-41.9281
-41.8221
-40.4558
-38.1252
-35.2985
-1.9352
-1.59598
-0.900938
0.217161
1.80715
3.88216
6.34318
8.87029
11.1438
11.9135
11.292
10.8778
-39.0686
-39.8229
-40.9011
-43.1405
-43.3353
-41.178
-38.3062
-34.9836
-41.1087
-42.898
-44.675
-45.7419
-43.418
-39.4497
-35.4306
-42.5034
-46.7693
-45.456
-42.3329
-38.7253
-43.6499
-43.0875
-40.9337
-38.4485
-3.58846
-5.45925
-8.16674
-11.7102
-15.7587
-19.6987
-22.8866
-25.2275
-26.9976
-28.4785
-29.7279
-30.6612
-31.0124
-30.5985
-29.5633
-28.2151
-26.7302
-5.1373
-6.90851
-9.23294
-12.0615
-15.1682
-18.1718
-20.7446
-22.8055
-24.4573
-25.816
-26.8976
-27.6344
-27.9166
-27.6642
-26.9386
-25.9048
-24.7169
-23.4649
-6.32212
-7.94946
-9.93766
-12.2299
-14.6749
-17.0552
-19.1821
-20.9746
-22.4511
-23.6529
-24.581
-25.1925
-25.4316
-25.2654
-24.7379
-23.9551
-23.0223
-22.0149
-7.13879
-8.61598
-10.3292
-12.2276
-14.2101
-16.1444
-17.9109
-19.4423
-20.7259
-21.7689
-22.5646
-23.0861
-23.3059
-23.2163
-22.8447
-22.2568
-21.5275
-20.7169
-7.67595
-9.007
-10.4948
-12.0962
-13.7412
-15.3438
-16.8249
-18.1326
-19.2446
-20.1523
-20.8448
-21.3067
-21.5232
-21.4904
-21.2313
-20.7913
-20.2232
-19.5728
-8.00436
-9.20026
-10.5009
-11.8717
-13.2622
-14.6137
-15.8712
-16.9946
-17.9601
-18.7533
-19.3635
-19.7797
-19.9921
-20.0028
-19.8302
-19.5061
-19.0674
-18.5485
-8.1896
-9.26599
-10.412
-11.6001
-12.7934
-13.9502
-15.0309
-16.0038
-16.8469
-17.5455
-18.0894
-18.4697
-18.681
-18.7272
-18.6223
-18.3886
-18.0525
-17.64
-8.26854
-9.24145
-10.2603
-11.3029
-12.3416
-13.3455
-14.2851
-15.1355
-15.878
-16.4989
-16.9889
-17.3408
-17.5517
-17.6255
-17.5727
-17.4093
-17.1545
-16.8281
-8.27531
-9.15934
-10.073
-10.9982
-11.9135
-12.7958
-13.6224
-14.3737
-15.0339
-15.5913
-16.0375
-16.3667
-16.5772
-16.6722
-16.6595
-16.551
-16.3609
-16.1043
-8.23204
-9.04034
-9.86671
-10.6965
-11.5127
-12.2974
-13.033
-13.7039
-14.297
-14.8024
-15.2128
-15.5234
-15.7331
-15.8442
-15.8627
-15.7973
-15.6589
-15.4589
-8.15648
-8.9006
-9.65461
-10.4064
-11.1423
-11.8483
-12.5103
-13.1159
-13.6543
-14.117
-14.498
-14.7933
-15.0017
-15.1252
-15.168
-15.1367
-15.0397
-14.8857
-8.06114
-8.75111
-9.44508
-10.1329
-10.8036
-11.4457
-12.0481
-12.6005
-13.0942
-13.5221
-13.8789
-14.1613
-14.3682
-14.501
-14.5627
-14.5586
-14.4947
-14.3782
-7.95568
-8.60018
-9.24438
-9.87976
-10.4972
-11.0874
-11.6413
-12.1505
-12.6077
-13.007
-13.3438
-13.6154
-13.8207
-13.9604
-14.037
-14.0543
-14.0171
-13.931
-7.84724
-8.45374
-9.05679
-9.64914
-10.2232
-10.7712
-11.2857
-11.7597
-12.1871
-12.5629
-12.8834
-13.1458
-13.3493
-13.4943
-13.5825
-13.6168
-13.6011
-13.5398
-7.74125
-8.31623
-8.88541
-9.44257
-9.98128
-10.495
-10.9776
-11.423
-11.8262
-12.1829
-12.4898
-12.7446
-12.9463
-13.0952
-13.1925
-13.2404
-13.2419
-13.2006
-7.64178
-8.19085
-8.73237
-9.26095
-9.77106
-10.2571
-10.7139
-11.1362
-11.5199
-11.861
-12.1569
-12.4053
-12.6054
-12.7572
-12.8615
-12.9201
-12.9354
-12.9102
-7.55198
-8.08002
-8.59924
-9.10486
-9.59205
-10.056
-10.4921
-10.8961
-11.264
-11.5927
-11.8796
-12.1228
-12.3215
-12.4753
-12.5851
-12.6522
-12.6783
-12.6661
-7.4741
-7.98545
-8.48701
-8.97453
-9.4437
-9.89031
-10.3103
-10.6997
-11.0553
-11.3742
-11.654
-11.893
-12.0904
-12.2458
-12.3597
-12.4333
-12.4679
-12.4658
-7.40998
-7.90849
-8.39653
-8.8702
-9.32564
-9.75901
-10.1666
-10.5451
-10.8913
-11.2027
-11.477
-11.7128
-11.9091
-12.0656
-12.1826
-12.261
-12.3021
-12.3077
-7.36074
-7.84992
-8.32815
-8.79181
-9.23732
-9.66115
-10.0599
-10.4304
-10.7698
-11.0757
-11.3461
-11.5795
-11.775
-11.9323
-12.0515
-12.1334
-12.1792
-12.1903
-7.32749
-7.81059
-8.28244
-8.73961
-9.17868
-9.59634
-9.98935
-10.3547
-10.6897
-10.9921
-11.2599
-11.4917
-11.6867
-11.8444
-11.965
-12.0492
-12.098
-12.1127
-7.31038
-7.79049
-8.2592
-8.71318
-9.14912
-9.56376
-9.95399
-10.3169
-10.6498
-10.9504
-11.217
-11.448
-11.6427
-11.8007
-11.9221
-12.0074
-12.0577
-12.0744
-2.79601
-3.2667
-3.74314
-4.22516
-4.71225
-5.20342
-5.69716
-6.19154
-6.68422
-7.17257
-7.6536
-8.12411
-8.58072
-9.02003
-9.43873
-9.83362
-10.2018
-10.5405
-10.8476
-11.1212
-11.3597
-11.5624
-11.7286
-11.8583
-2.80149
-3.27173
-3.74814
-4.23053
-4.71841
-5.21078
-5.70614
-6.20253
-6.69758
-7.1886
-7.67255
-8.14617
-8.60601
-9.04856
-9.4704
-9.86823
-10.239
-10.58
-10.8889
-11.1638
-11.4032
-11.6062
-11.7723
-11.9014
-2.81122
-3.28047
-3.75674
-4.23987
-4.72936
-5.22421
-5.7229
-6.22342
-6.72333
-7.21981
-7.70973
-8.18968
-8.65605
-9.10515
-9.53334
-9.93712
-10.3133
-10.6589
-10.9716
-11.2493
-11.4905
-11.6943
-11.8602
-11.9882
-2.82483
-3.29246
-3.76844
-4.25264
-4.74458
-5.24322
-5.74703
-6.25388
-6.76123
-7.26611
-7.7652
-8.25486
-8.73124
-9.19036
-9.62826
-10.0412
-10.4256
-10.7783
-11.0968
-11.3789
-11.6229
-11.828
-11.9935
-12.1198
-2.84079
-3.3061
-3.78157
-4.26715
-4.76234
-5.26613
-5.77687
-6.29238
-6.80992
-7.32633
-7.83802
-8.34105
-8.8312
-9.30412
-9.75542
-10.1809
-10.5767
-10.9393
-11.2659
-11.554
-11.802
-12.0087
-12.1739
-12.2978
-2.85762
-3.3197
-3.79433
-4.28149
-4.78074
-5.29101
-5.81061
-6.33721
-6.8679
-7.39924
-7.92731
-8.44775
-8.95589
-9.44684
-9.91567
-10.3576
-10.7683
-11.1439
-11.481
-11.777
-12.0301
-12.2391
-12.4037
-12.5243
-2.87294
-3.3307
-3.80399
-4.29288
-4.79693
-5.31507
-5.84553
-6.38585
-6.93289
-7.48292
-8.03158
-8.57401
-9.10491
-9.61871
-10.1098
-10.5727
-11.0024
-11.3944
-11.7448
-12.0509
-12.3104
-12.5221
-12.6859
-12.8023
-2.88396
-3.33607
-3.80736
-4.29798
-4.80752
-5.33491
-5.87833
-6.43517
-7.00209
-7.57497
-8.14899
-8.71861
-9.27778
-9.82007
-10.3389
-10.828
-11.2814
-11.6938
-12.061
-12.3795
-12.6468
-12.8618
-13.0243
-13.1353
-2.88709
-3.33193
-3.80035
-4.29255
-4.80817
-5.34618
-5.90471
-6.48109
-7.07172
-7.67215
-8.27693
-8.87979
-9.47368
-10.0511
-10.6042
-11.1257
-11.6083
-12.0461
-12.4338
-12.7675
-13.0445
-13.2633
-13.4239
-13.5279
-2.87802
-3.31368
-3.7781
-4.27152
-4.79366
-5.34354
-5.91938
-6.51844
-7.13701
-7.77021
-8.412
-9.05515
-9.69141
-10.3118
-10.9071
-11.4683
-11.987
-12.4558
-12.8687
-13.221
-13.5095
-13.7327
-13.8908
-13.9857
-2.85154
-3.27581
-3.73481
-4.22882
-4.75765
-5.32049
-5.91569
-6.5407
-7.19171
-7.86359
-8.54956
-9.24131
-9.92908
-10.6021
-11.2491
-11.859
-12.4218
-12.9286
-13.3723
-13.7473
-14.0497
-14.2779
-14.4323
-14.5156
-2.80156
-3.21191
-3.66377
-4.15737
-4.69267
-5.26914
-5.88556
-6.53967
-7.22793
-7.94499
-8.68345
-9.43369
-10.184
-10.9213
-11.6316
-12.3014
-12.9183
-13.4716
-13.9528
-14.3553
-14.6745
-14.9085
-15.0579
-15.1262
-2.72099
-3.11467
-3.5573
-4.049
-4.58993
-5.18007
-5.81888
-6.50494
-7.23524
-8.00464
-8.80515
-9.62568
-10.4521
-11.2681
-12.0562
-12.7995
-13.4826
-14.0928
-14.6199
-15.0561
-15.3957
-15.6363
-15.7789
-15.828
-2.60189
-2.97604
-3.40702
-3.89472
-4.43958
-5.04237
-5.70379
-6.42378
-7.20068
-8.03001
-8.90357
-9.80862
-10.7279
-11.6408
-12.5248
-13.3584
-14.1228
-14.8025
-15.3857
-15.8632
-16.228
-16.4764
-16.6098
-16.6342
-2.43537
-2.78707
-3.20348
-3.68409
-4.22975
-4.84245
-5.52478
-6.27916
-7.10618
-8.00324
-8.96239
-9.96923
-11.0025
-12.0353
-13.0382
-13.9833
-14.8473
-15.6121
-16.2642
-16.7929
-17.189
-17.4471
-17.5682
-17.5605
-2.21337
-2.54029
-2.93903
-3.40845
-3.94993
-4.56724
-5.26597
-6.05221
-6.93088
-7.9027
-8.96145
-10.0912
-11.2654
-12.448
-13.5994
-14.6824
-15.6682
-16.5368
-17.2735
-17.866
-18.3021
-18.5727
-18.6778
-18.6283
-1.9241
-2.22431
-2.60174
-3.05426
-3.58391
-4.19692
-4.90305
-5.71439
-6.64244
-7.69452
-8.86837
-10.1476
-11.4985
-12.8715
-14.2103
-15.4644
-16.5986
-17.5928
-18.4337
-19.1067
-19.5948
-19.8824
-19.9666
-19.8619
-1.56806
-1.84147
-2.194
-2.62206
-3.12841
-3.72243
-4.41991
-5.24145
-6.20953
-7.34262
-8.64724
-10.1087
-11.6839
-13.302
-14.8797
-16.3456
-17.6582
-18.8028
-19.7718
-20.5482
-21.1057
-21.418
-21.476
-21.2989
-1.12365
-1.3731
-1.69847
-2.09379
-2.5622
-3.11679
-3.78091
-4.58747
-5.5754
-6.7825
-8.2314
-9.91504
-11.78
-13.7219
-15.6104
-17.3396
-18.8636
-20.1851
-21.3117
-22.2234
-22.8751
-23.2207
-23.241
-22.9648
-22.4585
-0.62901
-0.859303
-1.15445
-1.50511
-1.91391
-2.39728
-2.9876
-3.73279
-4.69561
-5.94568
-7.54135
-9.49864
-11.7537
-14.1409
-16.442
-18.4944
-20.2589
-21.7828
-23.1063
-24.2033
-24.9927
-25.3876
-25.3525
-24.935
-24.2418
-0.0359524
-0.262579
-0.531944
-0.830011
-1.15713
-1.53156
-1.99334
-2.60988
-3.47794
-4.7192
-6.45637
-8.76108
-11.5718
-14.6113
-17.4768
-19.9016
-21.8912
-23.6061
-25.1556
-26.4955
-27.479
-27.9483
-27.8367
-27.228
-26.294
0.516453
0.2829
0.0399603
-0.190514
-0.403692
-0.616212
-0.87273
-1.26016
-1.92051
-3.05167
-4.88638
-7.62182
-11.2256
-15.2569
-18.9618
-21.8514
-24.0209
-25.877
-27.6742
-29.3291
-30.5709
-31.1344
-30.8725
-29.9748
-28.7193
1.02554
0.741988
0.497364
0.320511
0.225239
0.205023
0.220123
0.174032
-0.11614
-0.949981
-2.74863
-5.98565
-10.6919
-15.9937
-20.7527
-24.1451
-26.3791
-28.3
-30.4008
-32.4911
-34.1057
-35.0021
-34.5679
-33.2362
-31.5175
1.02983
0.682829
0.430144
0.309771
0.347692
0.552643
0.903677
1.32811
1.64242
1.45991
0.0978507
-3.33253
-8.52742
-15.4786
-21.5667
-25.8286
-28.0337
-29.6649
-31.7243
-34.0144
-36.0623
-38.8445
-38.7258
-36.9823
-34.831
-32.577
-0.0960606
-0.301063
-0.309517
-0.0820133
0.414692
1.19702
2.23803
3.42296
4.38604
4.37032
1.07663
-4.30904
-15.4081
-25.8996
-33.2539
-32.0975
-32.3649
-35.1413
-37.7074
-39.7421
-41.1848
-41.8715
-39.4988
-36.8761
-33.9673
-1.57135
-1.45063
-1.03014
-0.244317
0.9703
2.65597
4.80828
7.23937
7.97341
9.02457
3.34249
-9.68917
-25.1357
-59.0202
-44.0245
-28.204
-36.0927
-38.7116
-40.4639
-42.4296
-42.51
-40.7165
-38.8914
-35.8314
-2.20251
-2.05558
-1.59233
-0.715703
0.679491
2.71979
5.55209
9.25061
11.8753
16.1517
13.6972
1.43516
-39.912
-41.9173
-42.3141
-40.9326
-38.3665
-35.9245
-2.45548
-2.05742
-1.26592
0.00753435
1.83777
4.28849
7.36784
10.487
14.7079
15.3298
19.0946
-41.0189
-43.3267
-44.4324
-42.1139
-38.9143
-35.737
-40.6844
-43.0634
-45.4865
-46.7666
-44.6668
-40.4306
-36.1785
-42.3038
-45.6899
-46.8638
-43.2274
-39.25
-42.0854
-42.5909
-40.3799
-37.6028
-3.65265
-5.5916
-8.45137
-12.2106
-16.4202
-20.282
-23.2606
-25.4147
-27.1425
-28.7099
-30.0649
-30.9592
-31.1592
-30.541
-29.3392
-27.8777
-26.3449
-5.26774
-7.08946
-9.49105
-12.4113
-15.5646
-18.5263
-21.0015
-22.9731
-24.5942
-25.9804
-27.1053
-27.8378
-28.0362
-27.6591
-26.8201
-25.7109
-24.4856
-23.2253
-6.44206
-8.10376
-10.1329
-12.4634
-14.9236
-17.2828
-19.3615
-21.1062
-22.5582
-23.7612
-24.6993
-25.3024
-25.4985
-25.2681
-24.6756
-23.842
-22.8802
-21.8627
-7.22993
-8.72902
-10.4647
-12.381
-14.3686
-16.2898
-18.0287
-19.5312
-20.7958
-21.8318
-22.6255
-23.1401
-23.3383
-23.2121
-22.8022
-22.1844
-21.4373
-20.6197
-7.74352
-9.08643
-10.5856
-12.1953
-13.8415
-15.436
-16.9016
-18.1921
-19.2905
-20.1898
-20.8773
-21.3319
-21.5329
-21.4796
-21.1996
-20.7426
-20.1633
-19.5079
-8.05371
-9.25634
-10.5625
-11.9365
-13.3263
-14.6723
-15.9206
-17.0334
-17.9892
-18.7753
-19.3798
-19.7885
-19.991
-19.9901
-19.8058
-19.4716
-19.0259
-18.5035
-8.22476
-9.30497
-10.4538
-11.6431
-12.8351
-13.9879
-15.0625
-16.0284
-16.8648
-17.5576
-18.0962
-18.4706
-18.6753
-18.7145
-18.6026
-18.3629
-18.0225
-17.608
-8.29306
-9.26808
-10.2882
-11.3309
-12.3682
-13.3691
-14.3047
-15.1504
-15.888
-16.5045
-16.9903
-17.3377
-17.5442
-17.6135
-17.5564
-17.3893
-17.132
-16.8044
-8.29188
-9.17708
-10.0912
-11.0161
-11.9302
-12.8102
-13.6339
-14.3818
-15.0385
-15.5926
-16.0355
-16.3614
-16.5689
-16.6609
-16.6456
-16.535
-16.3435
-16.0863
-8.24257
-9.05151
-9.87803
-10.7074
-11.5225
-12.3055
-13.039
-13.7075
-14.298
-14.8009
-15.2088
-15.5172
-15.7247
-15.834
-15.8509
-15.7843
-15.6451
-15.4448
-8.16248
-8.90695
-9.66094
-10.4123
-11.1474
-11.8521
-12.5125
-13.1163
-13.6528
-14.1137
-14.493
-14.7866
-14.9936
-15.1158
-15.1576
-15.1257
-15.0282
-14.8743
-8.06374
-8.7539
-9.44778
-10.1352
-10.8052
-11.4464
-12.0476
-12.5987
-13.091
-13.5176
-13.8731
-14.1543
-14.3603
-14.4923
-14.5535
-14.5489
-14.4849
-14.3684
-7.95573
-8.60033
-9.24443
-9.87949
-10.4964
-11.0859
-11.6389
-12.1472
-12.6034
-13.0016
-13.3376
-13.6084
-13.813
-13.9522
-14.0285
-14.0456
-14.0085
-13.9226
-7.84537
-8.45194
-9.0549
-9.647
-10.2206
-10.7681
-11.2819
-11.7552
-12.1819
-12.5571
-12.8769
-13.1388
-13.3419
-13.4865
-13.5746
-13.6089
-13.5933
-13.5322
-7.73796
-8.31298
-8.8821
-9.43907
-9.97747
-10.4908
-10.9729
-11.4178
-11.8205
-12.1767
-12.4831
-12.7376
-12.9391
-13.0878
-13.1851
-13.233
-13.2347
-13.1937
-7.63744
-8.18654
-8.72802
-9.25646
-9.76635
-10.2521
-10.7085
-11.1305
-11.5137
-11.8546
-12.1501
-12.3983
-12.5983
-12.75
-12.8544
-12.9132
-12.9286
-12.9037
-7.54685
-8.07494
-8.59413
-9.09965
-9.58669
-10.0504
-10.4863
-10.89
-11.2577
-11.5861
-11.8728
-12.1159
-12.3145
-12.4684
-12.5783
-12.6455
-12.6719
-12.6599
-7.46841
-7.9798
-8.48136
-8.96881
-9.43788
-9.88434
-10.3041
-10.6934
-11.0488
-11.3675
-11.6472
-11.8861
-12.0835
-12.239
-12.3531
-12.4268
-12.4617
-12.4598
-7.40389
-7.90245
-8.39049
-8.86414
-9.3195
-9.75277
-10.1603
-10.5386
-10.8847
-11.1959
-11.4702
-11.7059
-11.9023
-12.0589
-12.1761
-12.2547
-12.2961
-12.3019
-7.35437
-7.8436
-8.32185
-8.7855
-9.23096
-9.65472
-10.0534
-10.4238
-10.7631
-11.069
-11.3393
-11.5727
-11.7683
-11.9257
-12.0451
-12.1272
-12.1732
-12.1846
-7.32095
-7.80411
-8.27598
-8.73314
-9.17219
-9.58978
-9.98272
-10.348
-10.683
-10.9853
-11.2531
-11.4849
-11.68
-11.8378
-11.9587
-12.043
-12.0921
-12.1071
-7.30374
-7.78391
-8.25265
-8.70663
-9.14253
-9.55712
-9.94728
-10.3101
-10.643
-10.9436
-11.2101
-11.4413
-11.6361
-11.7942
-11.9157
-12.0013
-12.0518
-12.0688
-2.77837
-3.2499
-3.72713
-4.20987
-4.6976
-5.18931
-5.68351
-6.17825
-6.67121
-7.15973
-7.64086
-8.11137
-8.56794
-9.00717
-9.42575
-9.82051
-10.1885
-10.5271
-10.8341
-11.1076
-11.3461
-11.5488
-11.7151
-11.8451
-2.78385
-3.25496
-3.7322
-4.21535
-4.70389
-5.19683
-5.69265
-6.18941
-6.68473
-7.17592
-7.65995
-8.13358
-8.59336
-9.03582
-9.45753
-9.85522
-10.2258
-10.5667
-10.8755
-11.1502
-11.3896
-11.5926
-11.7588
-11.8881
-2.79352
-3.26373
-3.74091
-4.22486
-4.71507
-5.21053
-5.70972
-6.21062
-6.71081
-7.20746
-7.69746
-8.1774
-8.6437
-9.09268
-9.52071
-9.92431
-10.3003
-10.6457
-10.9582
-11.2357
-11.4769
-11.6806
-11.8466
-11.9747
-2.80706
-3.27578
-3.75278
-4.23791
-4.73065
-5.22998
-5.73433
-6.24161
-6.74926
-7.25433
-7.75349
-8.24313
-8.7194
-9.17835
-9.61604
-10.0287
-10.4128
-10.7653
-11.0835
-11.3654
-11.6093
-11.8142
-11.9798
-12.1062
-2.82294
-3.28951
-3.76616
-4.2528
-4.74894
-5.25351
-5.76489
-6.28088
-6.79876
-7.31538
-7.82714
-8.33012
-8.82012
-9.2928
-9.74381
-10.1689
-10.5643
-10.9266
-11.2527
-11.5405
-11.7882
-11.9948
-12.1599
-12.2838
-2.83971
-3.30327
-3.77929
-4.26771
-4.76806
-5.27926
-5.79961
-6.32679
-6.85788
-7.38946
-7.9176
-8.43797
-8.94589
-9.43651
-9.90492
-10.3464
-10.7566
-11.1315
-11.4681
-11.7636
-12.0162
-12.2249
-12.3893
-12.5099
-2.85499
-3.31453
-3.78948
-4.27986
-4.78523
-5.30449
-5.83586
-6.37688
-6.92443
-7.47474
-8.02349
-8.5658
-9.09641
-9.60976
-10.1003
-10.5625
-10.9914
-11.3826
-11.7323
-12.0376
-12.2964
-12.5076
-12.671
-12.7872
-2.86605
-3.32028
-3.79357
-4.286
-4.79714
-5.3259
-5.87044
-6.42816
-6.9957
-7.56896
-8.14307
-8.71255
-9.27134
-9.81302
-10.3311
-10.8192
-11.2715
-11.6829
-12.0489
-12.3664
-12.6328
-12.847
-13.0089
-13.1194
-2.8693
-3.31671
-3.78754
-4.28193
-4.79952
-5.33922
-5.89916
-6.47665
-7.0681
-7.66901
-8.27396
-8.87664
-9.47004
-10.0466
-10.5987
-11.1189
-11.6001
-12.0363
-12.4225
-12.7548
-13.0303
-13.2479
-13.4077
-13.5109
-2.86048
-3.29925
-3.76658
-4.26269
-4.78725
-5.33925
-5.91688
-6.51739
-7.13704
-7.77092
-8.41298
-9.05595
-9.69161
-10.311
-10.9049
-11.4644
-11.9811
-12.4478
-12.8586
-13.2088
-13.4954
-13.7168
-13.8735
-13.9673
-2.83439
-3.26242
-3.72497
-4.22228
-4.75411
-5.31962
-5.91713
-6.54405
-7.19655
-7.8694
-8.55583
-9.24747
-9.93453
-10.6062
-11.2514
-11.859
-12.4192
-12.9232
-13.3639
-13.736
-14.0357
-14.2614
-14.4137
-14.4952
-2.78496
-3.19984
-3.65603
-4.15369
-4.69275
-5.27263
-5.89205
-6.54873
-7.23905
-7.95758
-8.69684
-9.44713
-10.1967
-10.9324
-11.6403
-12.307
-12.9203
-13.4698
-13.947
-14.3455
-14.6609
-14.8912
-15.0375
-15.1032
-2.70507
-3.10421
-3.5521
-4.04881
-4.59447
-5.18898
-5.83176
-6.52131
-7.25455
-8.02618
-8.82809
-9.64903
-10.4748
-11.2888
-12.0738
-12.813
-13.4912
-14.0962
-14.6178
-15.0485
-15.3828
-15.6183
-15.7562
-15.8014
-2.58676
-2.96747
-3.40485
-3.89875
-4.44956
-5.05799
-5.72469
-6.4495
-7.23061
-8.06341
-8.93941
-9.8456
-10.7645
-11.6751
-12.5551
-13.3831
-14.1407
-14.8132
-15.3891
-15.8592
-16.2165
-16.4577
-16.5842
-16.6026
-2.42089
-2.78042
-3.2046
-3.69287
-4.24605
-4.86606
-5.55547
-6.31653
-7.14974
-8.05218
-9.01558
-10.025
-11.0586
-12.089
-13.0866
-14.0239
-14.8783
-15.6331
-16.2753
-16.7941
-17.18
-17.4278
-17.5389
-17.5219
-2.19968
-2.53587
-2.94395
-3.42275
-3.97364
-4.60039
-5.30852
-6.1041
-6.9918
-7.9721
-9.03819
-10.1733
-11.3495
-12.5299
-13.6741
-14.7457
-15.7177
-16.5721
-17.2957
-17.8754
-18.2977
-18.5537
-18.6438
-18.5798
-1.91012
-2.22137
-2.61009
-3.07413
-3.61555
-4.24063
-4.95923
-5.78341
-6.7247
-7.79006
-8.97658
-10.2662
-11.6228
-12.9942
-14.3228
-15.5594
-16.6728
-17.6472
-18.471
-19.1285
-19.5989
-19.8656
-19.9266
-19.7988
-1.55507
-1.84102
-2.20671
-2.64848
-3.16917
-3.7783
-4.49185
-5.33074
-6.31768
-7.47128
-8.7974
-10.279
-11.8682
-13.4878
-15.0506
-16.4881
-17.7678
-18.8838
-19.8317
-20.5914
-21.129
-21.4125
-21.4337
-21.2182
-1.11042
-1.37426
-1.71471
-2.12585
-2.61103
-3.18365
-3.86772
-4.69702
-5.7117
-6.951
-8.43881
-10.1642
-12.0622
-14.0128
-15.8763
-17.5539
-19.0212
-20.3004
-21.4038
-22.3026
-22.9361
-23.2431
-23.2044
-22.8635
-22.3045
-0.617507
-0.864597
-1.17697
-1.54552
-1.97331
-2.47743
-3.09154
-3.86648
-4.86816
-6.17013
-7.83354
-9.87069
-12.1943
-14.603
-16.8571
-18.8114
-20.4768
-21.9412
-23.2491
-24.3505
-25.1297
-25.4708
-25.3369
-24.8108
-24.0349
-0.0417157
-0.285946
-0.573893
-0.891158
-1.23833
-1.63463
-2.12229
-2.77193
-3.68743
-5.00098
-6.84828
-9.3062
-12.2622
-15.3488
-18.1117
-20.3339
-22.1435
-23.7828
-25.355
-26.7597
-27.766
-28.1463
-27.8524
-27.059
-26.0026
0.459324
0.206735
-0.0570937
-0.309958
-0.544879
-0.776788
-1.05071
-1.45765
-2.15156
-3.35855
-5.36078
-8.39346
-12.3177
-16.4998
-19.9892
-22.4179
-24.2192
-25.9725
-27.8985
-29.7896
-31.1568
-31.5409
-30.9338
-29.7111
-28.2731
0.918205
0.624065
0.366879
0.176656
0.0679932
0.0384183
0.0605836
0.0443274
-0.212216
-1.06652
-3.08706
-6.95011
-12.25
-18.0848
-22.4901
-24.8778
-26.3913
-28.1811
-30.6523
-33.3909
-35.3317
-35.6186
-34.6085
-32.8314
-30.9006
0.820405
0.493849
0.261012
0.162725
0.229106
0.474944
0.88655
1.42496
1.92974
1.93905
0.55744
-3.94527
-10.5478
-18.404
-24.4808
-27.0277
-27.8871
-29.2383
-31.9565
-35.3975
-37.8369
-38.324
-38.0618
-36.0654
-33.8372
-31.6284
-0.305003
-0.511697
-0.503041
-0.23148
0.351319
1.28452
2.5694
4.17031
5.83284
4.06999
1.92219
-7.74169
-23.281
-30.9045
-32.3998
-30.5113
-30.4252
-33.8301
-38.5864
-44.0904
-42.6499
-40.4739
-38.4629
-36.2461
-33.731
-1.56668
-1.43243
-0.982197
-0.123424
1.2512
3.24982
5.9249
7.2234
11.1232
11.7812
1.74134
-31.2024
-53.5787
-52.5362
-42.3602
-41.5664
-40.6517
-39.42
-36.3319
-2.78341
-2.5334
-1.94573
-0.905707
0.710986
3.06091
6.28343
9.56041
15.93
19.4077
7.24524
-42.1397
-42.3893
-40.5233
-39.3967
-37.1228
-3.17834
-2.71803
-1.80455
-0.332013
1.79936
4.65347
8.87487
14.8069
19.2576
18.2369
-45.781
-42.2201
-39.41
-36.325
-46.0009
-48.7997
-45.6274
-39.2562
-35.3007
-45.1678
-47.3988
-41.9335
-37.4545
-42.6492
-40.6355
-38.8019
-35.6366
-38.5911
-37.5786
-35.6002
-33.0205
-3.94182
-6.04705
-9.19754
-13.2622
-17.6012
-21.2278
-23.726
-25.5087
-27.1603
-28.9101
-30.5735
-31.6688
-31.7278
-30.762
-29.2064
-27.5289
-25.9139
-5.53498
-7.46314
-10.0112
-13.0648
-16.2514
-19.0974
-21.36
-23.1509
-24.7098
-26.1444
-27.3693
-28.1641
-28.3048
-27.7563
-26.7266
-25.4848
-24.1983
-22.9259
-6.65474
-8.38058
-10.4841
-12.8756
-15.3485
-17.6522
-19.6272
-21.2729
-22.6732
-23.8747
-24.8366
-25.4523
-25.6119
-25.2922
-24.5935
-23.6756
-22.6666
-21.6334
-7.38755
-8.9232
-10.6971
-12.6416
-14.6327
-16.5238
-18.2076
-19.6532
-20.8799
-21.901
-22.6927
-23.2006
-23.3708
-23.194
-22.7242
-22.0558
-21.2776
-20.4484
-7.86287
-9.22545
-10.7425
-12.3635
-14.0081
-15.5848
-17.0201
-18.2777
-19.3499
-20.2331
-20.9102
-21.351
-21.5302
-21.4465
-21.1325
-20.6458
-20.0472
-19.3836
-8.14152
-9.35543
-10.6704
-12.0483
-13.4346
-14.7688
-15.9989
-17.0911
-18.0286
-18.8006
-19.393
-19.7883
-19.9747
-19.9549
-19.7509
-19.3996
-18.9422
-18.4147
-8.28785
-9.37443
-10.5275
-11.7177
-12.9063
-14.051
-15.1138
-16.0661
-16.8894
-17.571
-18.0991
-18.4626
-18.656
-18.683
-18.5592
-18.3091
-17.9617
-17.5437
-8.33688
-9.31546
-10.3374
-11.3798
-12.4139
-13.409
-14.3364
-15.1729
-15.9013
-16.5092
-16.9865
-17.3258
-17.5241
-17.5854
-17.5207
-17.3474
-17.0858
-16.7564
-8.32117
-9.20832
-10.1231
-11.047
-11.9584
-12.8341
-13.6521
-14.3935
-15.0435
-15.591
-16.0276
-16.3475
-16.5492
-16.6359
-16.6159
-16.5014
-16.3075
-16.0493
-8.26083
-9.07083
-9.89741
-10.7257
-11.5386
-12.3183
-13.0476
-13.7114
-14.2971
-14.7951
-15.1984
-15.5023
-15.7059
-15.8116
-15.8255
-15.7566
-15.6161
-15.4156
-8.17246
-8.91749
-9.67128
-10.4216
-11.1549
-11.8571
-12.5145
-13.1148
-13.6477
-14.1051
-14.4809
-14.7714
-14.9756
-15.0955
-15.1354
-15.1022
-15.0041
-14.8502
-8.06748
-8.75793
-9.45152
-10.1381
-10.8067
-11.4459
-12.0448
-12.5934
-13.0831
-13.507
-13.8601
-14.1391
-14.3432
-14.4736
-14.5337
-14.5285
-14.4642
-14.3481
-7.95479
-8.59953
-9.24334
-9.87768
-10.4935
-11.0815
-11.6328
-12.1392
-12.5934
-12.9898
-13.3241
-13.5933
-13.7966
-13.9349
-14.0106
-14.0274
-13.9903
-13.9048
-7.84092
-8.44756
-9.05026
-9.64179
-10.2146
-10.7609
-11.2735
-11.7454
-12.1707
-12.5445
-12.863
-13.1239
-13.3261
-13.4702
-13.558
-13.5923
-13.5769
-13.5163
-7.73088
-8.30595
-8.87486
-9.43139
-9.96914
-10.4817
-10.9627
-11.4066
-11.8083
-12.1635
-12.4691
-12.7229
-12.9239
-13.0723
-13.1695
-13.2176
-13.2196
-13.1791
-7.6284
-8.17755
-8.71887
-9.24699
-9.75638
-10.2416
-10.6972
-11.1185
-11.501
-11.8411
-12.1361
-12.3839
-12.5836
-12.7352
-12.8396
-12.8986
-12.9145
-12.8902
-7.53637
-8.06451
-8.5836
-9.08888
-9.57556
-10.0389
-10.4742
-10.8774
-11.2445
-11.5725
-11.8588
-12.1016
-12.3001
-12.454
-12.5641
-12.6316
-12.6584
-12.647
-7.45688
-7.96833
-8.46983
-8.95711
-9.42593
-9.87205
-10.2914
-10.6803
-11.0354
-11.3538
-11.6332
-11.8721
-12.0694
-12.225
-12.3393
-12.4134
-12.4488
-12.4475
-7.39161
-7.89024
-8.37825
-8.85178
-9.30696
-9.73999
-10.1472
-10.5253
-10.8711
-11.1821
-11.4563
-11.692
-11.8884
-12.0452
-12.1626
-12.2416
-12.2835
-12.2899
-7.34158
-7.83088
-8.30913
-8.7727
-9.21803
-9.64161
-10.0401
-10.4103
-10.7495
-11.0552
-11.3254
-11.5589
-11.7545
-11.9121
-12.0318
-12.1144
-12.1609
-12.1729
-7.30784
-7.79108
-8.26296
-8.72007
-9.15901
-9.57647
-9.96925
-10.3344
-10.6692
-10.9715
-11.2393
-11.4712
-11.6664
-11.8244
-11.9456
-12.0304
-12.0799
-12.0955
-7.29046
-7.77072
-8.23948
-8.69341
-9.12923
-9.5437
-9.93372
-10.2964
-10.6292
-10.9298
-11.1963
-11.4275
-11.6225
-11.7808
-11.9027
-11.9887
-12.0397
-12.0572
-2.752
-3.22475
-3.70314
-4.18695
-4.67564
-5.16818
-5.66306
-6.15833
-6.65168
-7.14044
-7.62167
-8.09217
-8.54864
-8.98771
-9.4061
-9.80066
-10.1685
-10.5069
-10.8137
-11.087
-11.3256
-11.5283
-11.6949
-11.8252
-2.75745
-3.22985
-3.7083
-4.19256
-4.6821
-5.17589
-5.67242
-6.16973
-6.66545
-7.15688
-7.64102
-8.11463
-8.5743
-9.01658
-9.43807
-9.83552
-10.2059
-10.5465
-10.8551
-11.1297
-11.3691
-11.5721
-11.7385
-11.8681
-2.76706
-3.23866
-3.71715
-4.20231
-4.6936
-5.18998
-5.68992
-6.19141
-6.69202
-7.18893
-7.67903
-8.15893
-8.62509
-9.07384
-9.5016
-9.90489
-10.2805
-10.6257