/*--------------------------------*- C++ -*----------------------------------*\
  =========                 |
  \\      /  F ield         | OpenFOAM: The Open Source CFD Toolbox
   \\    /   O peration     | Website:  https://openfoam.org
    \\  /    A nd           | Version:  13
     \\/     M anipulation  |
\*---------------------------------------------------------------------------*/
FoamFile
{
    format      ascii;
    class       volScalarField;
    location    "600";
    object      k;
}
// * * * * * * * * * * * * * * * * * * * * * * * * * * * * * * * * * * * * * //

dimensions      [0 2 -2 0 0 0 0];

internalField   nonuniform List<scalar> 
171745
(
0.307112
0.305636
0.304178
0.302737
0.301313
0.299905
0.298513
0.297134
0.295768
0.294414
0.29307
0.291736
0.290411
0.289094
0.287784
0.286482
0.285188
0.283901
0.282623
0.281355
0.280097
0.27885
0.277616
0.276396
0.307144
0.305668
0.304209
0.302769
0.301345
0.299937
0.298545
0.297167
0.295803
0.29445
0.293108
0.291775
0.290452
0.289137
0.28783
0.28653
0.285238
0.283954
0.282679
0.281413
0.280157
0.278913
0.277682
0.276464
0.30721
0.305733
0.304275
0.302834
0.301411
0.300004
0.298613
0.297237
0.295875
0.294524
0.293185
0.291856
0.290536
0.289224
0.287921
0.286625
0.285337
0.284057
0.282785
0.281523
0.280272
0.279032
0.277805
0.276591
0.307314
0.305836
0.304377
0.302937
0.301515
0.30011
0.298721
0.297348
0.295989
0.294642
0.293307
0.291983
0.290668
0.289362
0.288065
0.286775
0.285493
0.284219
0.282954
0.281698
0.280453
0.27922
0.277999
0.276792
0.30747
0.305991
0.304532
0.303092
0.301671
0.300268
0.298882
0.297513
0.296158
0.294817
0.293489
0.292171
0.290863
0.289565
0.288276
0.286994
0.285721
0.284455
0.283199
0.281952
0.280716
0.279492
0.27828
0.277082
0.307693
0.306212
0.304752
0.303313
0.301894
0.300494
0.299113
0.297748
0.2964
0.295066
0.293746
0.292437
0.291139
0.289851
0.288572
0.287301
0.286039
0.284786
0.283541
0.282306
0.281082
0.279869
0.278669
0.277483
0.308007
0.306525
0.305065
0.303628
0.302211
0.300815
0.299439
0.298081
0.296741
0.295416
0.294106
0.292809
0.291523
0.290248
0.288983
0.287727
0.286479
0.28524
0.28401
0.28279
0.281581
0.280383
0.279198
0.278026
0.308451
0.306968
0.305509
0.304073
0.30266
0.301269
0.2999
0.298551
0.297221
0.295908
0.294611
0.293329
0.292059
0.2908
0.289552
0.288314
0.287085
0.285864
0.284652
0.283451
0.28226
0.281081
0.279914
0.278759
0.309079
0.307597
0.30614
0.304707
0.3033
0.301917
0.300557
0.299219
0.297902
0.296604
0.295324
0.29406
0.29281
0.291573
0.290347
0.289131
0.287924
0.286727
0.285538
0.284359
0.28319
0.282033
0.280887
0.279754
0.309977
0.308497
0.307044
0.305617
0.304218
0.302844
0.301497
0.300173
0.298873
0.297595
0.296337
0.295096
0.293872
0.292662
0.291463
0.290276
0.289098
0.287928
0.286767
0.285615
0.284474
0.283342
0.282222
0.281112
0.311268
0.309792
0.308346
0.306928
0.30554
0.30418
0.302849
0.301545
0.300267
0.299014
0.297784
0.296575
0.295383
0.294208
0.293045
0.291894
0.290751
0.289617
0.288489
0.28737
0.286259
0.285158
0.284065
0.282981
0.313131
0.311663
0.310226
0.308821
0.307448
0.306107
0.304797
0.303519
0.30227
0.301051
0.299858
0.298689
0.297541
0.296411
0.295295
0.29419
0.293093
0.292001
0.290914
0.289833
0.288758
0.287689
0.286625
0.285566
0.315814
0.314356
0.312932
0.311543
0.310189
0.30887
0.307588
0.306342
0.305131
0.303955
0.302811
0.301696
0.300607
0.299537
0.298483
0.297439
0.296401
0.295365
0.294327
0.293291
0.292255
0.29122
0.290184
0.289148
0.319629
0.318179
0.316766
0.315391
0.314056
0.312763
0.311511
0.310304
0.30914
0.30802
0.306942
0.305901
0.304892
0.303908
0.302941
0.301983
0.301026
0.300065
0.299094
0.298112
0.297123
0.296124
0.295114
0.294091
0.324886
0.323431
0.322018
0.320649
0.319327
0.318056
0.316837
0.315675
0.314572
0.313528
0.312544
0.311613
0.310729
0.309878
0.309048
0.308227
0.307402
0.306561
0.305695
0.304794
0.303869
0.302917
0.301934
0.300917
0.331758
0.330276
0.328844
0.327467
0.326149
0.324896
0.323716
0.322617
0.321606
0.320688
0.319865
0.319135
0.318479
0.317878
0.317306
0.316738
0.316152
0.315529
0.314851
0.314089
0.31327
0.312389
0.311439
0.310419
0.340211
0.338689
0.337232
0.335848
0.334547
0.333342
0.332249
0.331293
0.330484
0.329838
0.329361
0.329045
0.328863
0.328772
0.328722
0.328662
0.32855
0.328353
0.328038
0.327578
0.326929
0.326145
0.325218
0.324147
0.350402
0.348877
0.347446
0.346123
0.344929
0.343892
0.343046
0.342432
0.342093
0.342059
0.342344
0.342913
0.343697
0.344603
0.345525
0.346372
0.347075
0.347581
0.347838
0.347803
0.347393
0.346637
0.345603
0.344302
0.363471
0.362096
0.360871
0.359825
0.358999
0.358449
0.358244
0.358463
0.359179
0.360409
0.362142
0.36421
0.366441
0.368693
0.37082
0.372714
0.374308
0.375519
0.376265
0.376519
0.376247
0.375307
0.373804
0.37187
0.369573
0.382677
0.381906
0.381364
0.381097
0.381172
0.381682
0.382731
0.384405
0.386757
0.389531
0.392642
0.395923
0.399129
0.401996
0.404337
0.406082
0.40725
0.407827
0.40781
0.407255
0.406174
0.404586
0.40241
0.39966
0.396427
0.414879
0.415407
0.41609
0.416968
0.418106
0.419587
0.421455
0.423512
0.425687
0.427835
0.429685
0.430941
0.431364
0.430834
0.429464
0.427398
0.424798
0.421945
0.419008
0.41607
0.413046
0.409852
0.406509
0.403047
0.399526
0.463966
0.464047
0.463507
0.462374
0.460698
0.458525
0.455882
0.452742
0.448886
0.444139
0.438487
0.432178
0.425477
0.418443
0.411884
0.406425
0.402312
0.399505
0.397811
0.396981
0.39716
0.397258
0.39691
0.395834
0.393825
0.492079
0.482638
0.47209
0.460793
0.449073
0.437214
0.425485
0.414094
0.403263
0.393348
0.385076
0.379441
0.376484
0.375652
0.377676
0.383039
0.391117
0.400871
0.411533
0.423047
0.445365
0.466118
0.486508
0.505639
0.522387
0.451286
0.433755
0.417572
0.403172
0.390541
0.379679
0.370794
0.363553
0.358038
0.355142
0.356928
0.365048
0.377975
0.376818
0.386894
0.40678
0.433584
0.466258
0.502577
0.546182
0.703561
0.782818
0.874543
0.963864
1.05361
1.15503
0.434178
0.424878
0.417264
0.410865
0.405108
0.400064
0.395478
0.392566
0.393555
0.404229
0.426329
0.427397
0.450897
0.493919
0.543225
0.606857
0.704662
0.819258
1.02598
1.26642
1.68087
1.78653
1.95876
2.21779
2.63628
0.479085
0.472504
0.467239
0.463198
0.460288
0.458846
0.460838
0.47123
0.499095
0.499596
0.53341
0.605896
0.693995
0.731599
0.9113
1.12838
1.48952
1.97382
1.42779
1.22189
1.17618
1.25399
1.37489
1.51054
0.536754
0.538131
0.540153
0.54333
0.547612
0.553922
0.564534
0.586323
0.629063
0.633779
0.694759
0.760588
0.880106
1.00272
1.2242
0.431705
0.595248
0.959295
0.997746
0.920404
0.919773
0.987148
1.05339
1.11425
0.625455
0.631478
0.639279
0.648732
0.660504
0.676852
0.702743
0.749031
0.754181
0.818844
0.894018
1.08561
0.350176
0.740565
0.885581
0.850548
0.900013
0.990683
1.06626
1.13785
0.701942
0.775292
0.79521
0.920384
1.06401
1.24526
1.18361
1.49806
1.58913
1.67756
1.91768
1.91928
1.11794
1.22078
1.34597
1.48914
0.437341
0.431213
0.424448
0.417367
0.41015
0.403522
0.397986
0.393675
0.390569
0.388544
0.387437
0.387273
0.387033
0.386412
0.385211
0.38324
0.380535
0.426648
0.427886
0.428465
0.428177
0.426945
0.424824
0.421838
0.418386
0.414787
0.411248
0.407886
0.404651
0.40144
0.398241
0.39506
0.391911
0.388732
0.385558
0.390551
0.393475
0.396493
0.399354
0.401797
0.403637
0.404802
0.405206
0.404949
0.404177
0.402998
0.401462
0.399581
0.397233
0.394446
0.391288
0.387889
0.384345
0.361401
0.363156
0.365201
0.367368
0.369502
0.37145
0.373098
0.374311
0.375032
0.375275
0.375053
0.374358
0.373048
0.371345
0.369288
0.366933
0.364343
0.361582
0.342619
0.342961
0.343576
0.344388
0.345292
0.346173
0.346932
0.34749
0.347797
0.347822
0.347542
0.346865
0.345934
0.34475
0.343328
0.341695
0.339886
0.337942
0.330123
0.329685
0.329407
0.329258
0.32919
0.329146
0.329069
0.328915
0.328649
0.328244
0.327659
0.326924
0.326054
0.325044
0.323897
0.322625
0.321244
0.319777
0.320852
0.320051
0.319344
0.31871
0.318127
0.317566
0.317
0.316405
0.31576
0.31505
0.314255
0.313401
0.31248
0.311489
0.310428
0.309301
0.308115
0.306882
0.31365
0.312678
0.311761
0.310889
0.310049
0.309228
0.308409
0.307583
0.306736
0.305858
0.304947
0.304009
0.30304
0.302037
0.300998
0.299926
0.298826
0.297701
0.308132
0.307061
0.306028
0.305026
0.304049
0.303087
0.302131
0.301175
0.300211
0.299233
0.298247
0.297252
0.296246
0.295226
0.294193
0.293147
0.292089
0.291022
0.304066
0.302926
0.301816
0.300731
0.299666
0.298614
0.297572
0.296534
0.295497
0.294457
0.293418
0.29238
0.291341
0.2903
0.289257
0.288212
0.287166
0.28612
0.301164
0.299974
0.298808
0.297663
0.296535
0.29542
0.294315
0.293218
0.292126
0.291037
0.289955
0.288878
0.287807
0.28674
0.285677
0.28462
0.283568
0.282521
0.299131
0.297902
0.296695
0.295504
0.294329
0.293167
0.292015
0.290872
0.289736
0.288607
0.287487
0.286375
0.285271
0.284176
0.28309
0.282013
0.280944
0.279885
0.297713
0.296456
0.295216
0.293992
0.292781
0.291583
0.290394
0.289214
0.288043
0.286881
0.285727
0.284584
0.283451
0.282329
0.281217
0.280117
0.279029
0.277952
0.296722
0.295443
0.294178
0.292928
0.29169
0.290463
0.289245
0.288036
0.286837
0.285646
0.284465
0.283295
0.282136
0.280989
0.279854
0.278732
0.277623
0.276528
0.296025
0.294728
0.293445
0.292174
0.290914
0.289664
0.288424
0.287192
0.285969
0.284755
0.283551
0.282359
0.281177
0.280009
0.278853
0.277712
0.276584
0.275471
0.29553
0.294219
0.292921
0.291634
0.290357
0.28909
0.287831
0.286581
0.285339
0.284107
0.282884
0.281673
0.280473
0.279287
0.278113
0.276955
0.275811
0.274681
0.295177
0.293856
0.292546
0.291246
0.289956
0.288674
0.287401
0.286136
0.284879
0.283632
0.282394
0.281168
0.279954
0.278752
0.277564
0.276391
0.275233
0.274091
0.294925
0.293595
0.292276
0.290967
0.289666
0.288373
0.287089
0.285812
0.284544
0.283285
0.282036
0.280798
0.279572
0.278358
0.277159
0.275974
0.274805
0.273651
0.294747
0.293411
0.292085
0.290768
0.289459
0.288159
0.286866
0.285581
0.284304
0.283036
0.281778
0.280531
0.279295
0.278073
0.276865
0.275672
0.274494
0.273331
0.294627
0.293286
0.291955
0.290633
0.289319
0.288012
0.286713
0.285422
0.284139
0.282865
0.2816
0.280347
0.279105
0.277877
0.276662
0.275462
0.274278
0.273109
0.29455
0.293207
0.291872
0.290547
0.289229
0.287919
0.286616
0.285321
0.284034
0.282756
0.281488
0.280231
0.278985
0.277752
0.276534
0.27533
0.274141
0.272969
0.294512
0.293166
0.29183
0.290503
0.289183
0.287871
0.286566
0.285268
0.283979
0.282699
0.281428
0.280168
0.27892
0.277684
0.276463
0.275256
0.274065
0.27289
0.307115
0.305639
0.304182
0.302741
0.301318
0.29991
0.298517
0.297139
0.295773
0.294419
0.293076
0.291742
0.290416
0.289099
0.28779
0.286487
0.285193
0.283906
0.282628
0.281359
0.280101
0.278854
0.27762
0.276399
0.307147
0.305671
0.304213
0.302773
0.30135
0.299943
0.298551
0.297173
0.295808
0.294455
0.293114
0.291781
0.290458
0.289143
0.287836
0.286536
0.285244
0.28396
0.282684
0.281418
0.280162
0.278918
0.277687
0.276469
0.307214
0.305738
0.30428
0.30284
0.301417
0.300011
0.29862
0.297244
0.295882
0.294532
0.293193
0.291864
0.290544
0.289232
0.287929
0.286633
0.285345
0.284065
0.282793
0.281531
0.28028
0.27904
0.277812
0.276599
0.30732
0.305842
0.304384
0.302944
0.301523
0.300119
0.298731
0.297358
0.295999
0.294652
0.293318
0.291994
0.290679
0.289374
0.288076
0.286786
0.285504
0.284231
0.282966
0.28171
0.280465
0.279232
0.278011
0.276804
0.307478
0.305999
0.304541
0.303102
0.301682
0.30028
0.298895
0.297526
0.296172
0.294832
0.293503
0.292186
0.290879
0.289581
0.288292
0.28701
0.285737
0.284472
0.283216
0.28197
0.280734
0.27951
0.278298
0.2771
0.307702
0.306223
0.304764
0.303326
0.301908
0.300509
0.299129
0.297765
0.296418
0.295085
0.293765
0.292456
0.291159
0.289872
0.288593
0.287323
0.286061
0.284808
0.283564
0.282329
0.281105
0.279893
0.278694
0.277508
0.308018
0.306537
0.305079
0.303642
0.302227
0.300833
0.299458
0.298101
0.296762
0.295438
0.294129
0.292832
0.291547
0.290273
0.289009
0.287753
0.286506
0.285268
0.284039
0.282819
0.281611
0.280414
0.279229
0.278058
0.30846
0.306979
0.305522
0.304088
0.302676
0.301287
0.29992
0.298572
0.297243
0.295932
0.294636
0.293354
0.292085
0.290828
0.289581
0.288344
0.287116
0.285896
0.284686
0.283485
0.282296
0.281118
0.279952
0.278799
0.309085
0.307605
0.30615
0.30472
0.303314
0.301933
0.300575
0.299239
0.297923
0.296627
0.295349
0.294086
0.292837
0.291602
0.290377
0.289163
0.287958
0.286762
0.285574
0.284397
0.283231
0.282076
0.280932
0.279801
0.309977
0.308499
0.307048
0.305624
0.304227
0.302857
0.301511
0.30019
0.298893
0.297616
0.29636
0.295121
0.293899
0.29269
0.291494
0.290309
0.289133
0.287966
0.286807
0.285659
0.28452
0.283392
0.282275
0.28117
0.311258
0.309786
0.308343
0.306929
0.305544
0.304188
0.30286
0.301559
0.300284
0.299034
0.297806
0.296599
0.29541
0.294237
0.293077
0.291929
0.29079
0.289659
0.288535
0.287421
0.286315
0.285219
0.284132
0.283055
0.313111
0.311649
0.310217
0.308817
0.307449
0.306112
0.304807
0.303532
0.302287
0.301071
0.299882
0.298716
0.297571
0.296444
0.295332
0.294231
0.293138
0.292052
0.290971
0.289898
0.288831
0.287771
0.286717
0.285669
0.31579
0.31434
0.312923
0.311541
0.310194
0.308882
0.307606
0.306365
0.30516
0.303988
0.302849
0.301738
0.300652
0.299587
0.298538
0.297499
0.296467
0.295438
0.294409
0.293384
0.292362
0.291342
0.290323
0.289304
0.319617
0.31818
0.316779
0.315416
0.314092
0.312809
0.311567
0.310368
0.309212
0.308098
0.307025
0.305988
0.304983
0.304003
0.30304
0.302087
0.301137
0.300185
0.299225
0.298261
0.297293
0.296319
0.295336
0.294343
0.324936
0.323502
0.32211
0.320761
0.319458
0.318203
0.317
0.31585
0.314757
0.313721
0.312741
0.311812
0.310927
0.310075
0.309244
0.308421
0.307596
0.306759
0.305903
0.305025
0.304131
0.303216
0.302276
0.301307
0.331986
0.330542
0.329146
0.327802
0.326515
0.325289
0.324132
0.323049
0.322048
0.321132
0.320303
0.319556
0.318878
0.31825
0.317652
0.31706
0.316456
0.315824
0.315149
0.314416
0.313645
0.312824
0.311946
0.311007
0.340841
0.33938
0.33798
0.336649
0.335394
0.334226
0.333158
0.332206
0.331384
0.330707
0.330179
0.329794
0.32953
0.329349
0.329208
0.329065
0.328884
0.328638
0.328302
0.32783
0.327271
0.326607
0.325821
0.324908
0.351756
0.350316
0.34896
0.3477
0.346552
0.345539
0.344688
0.344032
0.343606
0.34344
0.343545
0.343911
0.344471
0.345149
0.345855
0.346512
0.347063
0.347467
0.34769
0.347693
0.347418
0.346929
0.346201
0.34523
0.365986
0.364674
0.363488
0.36245
0.361593
0.360961
0.360609
0.360603
0.361009
0.361861
0.363157
0.364844
0.36671
0.368624
0.370461
0.372126
0.373554
0.374704
0.37554
0.376002
0.375919
0.375399
0.374452
0.373164
0.371498
0.385963
0.385074
0.384369
0.383888
0.383686
0.38384
0.384443
0.385574
0.387317
0.3896
0.39229
0.395288
0.398417
0.40144
0.404145
0.406405
0.408175
0.409445
0.41019
0.410383
0.410049
0.409003
0.407399
0.405263
0.402671
0.4165
0.416513
0.416689
0.417084
0.417779
0.41887
0.420454
0.422424
0.424816
0.427627
0.430758
0.433999
0.437042
0.439624
0.441547
0.442744
0.443201
0.442858
0.441864
0.440369
0.438447
0.436033
0.433048
0.429613
0.425836
0.457587
0.457842
0.457994
0.45812
0.458318
0.45863
0.459046
0.459584
0.460251
0.461027
0.46192
0.462767
0.463448
0.463961
0.46378
0.462733
0.46096
0.458533
0.455478
0.452024
0.448405
0.444383
0.439904
0.435267
0.430793
0.482461
0.479881
0.476905
0.473674
0.47035
0.467129
0.464245
0.461249
0.459185
0.458514
0.460169
0.464612
0.470429
0.477199
0.483611
0.487584
0.489152
0.48836
0.485431
0.481404
0.477786
0.475921
0.474712
0.472951
0.470777
0.471498
0.463719
0.456342
0.449626
0.443857
0.439408
0.436849
0.436965
0.441008
0.451495
0.470363
0.495554
0.496129
0.51566
0.541762
0.559109
0.566118
0.565088
0.557711
0.548229
0.548973
0.58781
0.643036
0.697763
0.74153
0.784456
0.513088
0.508411
0.505332
0.503678
0.50371
0.506304
0.511889
0.52347
0.54748
0.582574
0.589347
0.642614
0.711884
0.73992
0.733499
0.707657
0.688827
0.667892
0.684889
0.833411
1.14293
1.96567
2.2234
2.46206
2.69411
0.705095
0.705117
0.703989
0.702495
0.701845
0.704251
0.71624
0.746311
0.735386
0.785698
0.895693
0.955524
0.973961
0.989806
1.03346
0.985772
1.0677
1.18769
1.88965
2.84742
2.96545
2.4057
2.79309
2.87004
0.923457
0.925421
0.927152
0.929508
0.933566
0.940662
0.954428
0.986198
0.983851
1.06462
1.13679
1.09711
0.811198
1.33738
1.32892
1.40847
1.43849
1.5166
0.927979
0.928292
0.930872
0.937264
0.949847
0.973286
1.02012
1.03696
1.14005
1.2434
1.12654
0.496945
0.956756
0.809639
0.986209
1.11821
1.17004
0.267847
0.624436
0.758629
0.771698
1.14551
1.37706
1.31527
1.71867
1.81413
2.02393
2.22376
2.38462
1.06039
1.16115
1.2742
1.39359
0.456048
0.456554
0.457087
0.457669
0.458021
0.457473
0.455866
0.453359
0.450123
0.446309
0.442524
0.438831
0.434861
0.430607
0.426486
0.422483
0.418645
0.427093
0.429874
0.432701
0.435283
0.437352
0.438699
0.439154
0.438625
0.437356
0.435572
0.433492
0.431243
0.428684
0.425814
0.422644
0.419214
0.415606
0.411913
0.390425
0.393044
0.395919
0.398865
0.401634
0.404005
0.405846
0.407109
0.407706
0.407749
0.407343
0.406462
0.40513
0.403376
0.401206
0.398667
0.395828
0.392764
0.362538
0.363885
0.3656
0.36745
0.369308
0.371041
0.372545
0.373755
0.374597
0.375046
0.375112
0.374715
0.373975
0.372876
0.371421
0.369639
0.367581
0.365304
0.343786
0.343948
0.344365
0.344965
0.34566
0.346354
0.34696
0.347419
0.347687
0.347737
0.347509
0.347081
0.346447
0.345591
0.344509
0.343212
0.341728
0.34009
0.330875
0.330382
0.330032
0.329801
0.329645
0.329517
0.329368
0.32916
0.328866
0.328463
0.327928
0.3273
0.326564
0.325708
0.324726
0.323625
0.322417
0.321119
0.321237
0.320427
0.3197
0.319042
0.318432
0.317846
0.317259
0.31665
0.316003
0.315303
0.31455
0.313752
0.3129
0.311989
0.311015
0.309979
0.308888
0.307748
0.313813
0.312844
0.311927
0.311054
0.310212
0.309389
0.308571
0.307746
0.306905
0.306037
0.305152
0.304247
0.303318
0.302362
0.301376
0.30036
0.299317
0.29825
0.308193
0.307127
0.306098
0.3051
0.304126
0.303168
0.302218
0.301269
0.300315
0.299352
0.298385
0.297412
0.296431
0.29544
0.294437
0.293423
0.292398
0.291363
0.304091
0.302956
0.30185
0.300768
0.299707
0.29866
0.297623
0.296592
0.295562
0.294532
0.293506
0.292482
0.291458
0.290434
0.289409
0.288384
0.287357
0.28633
0.30118
0.299994
0.298831
0.297689
0.296564
0.295453
0.294353
0.29326
0.292173
0.291092
0.290017
0.288949
0.287886
0.286829
0.285778
0.284732
0.283691
0.282655
0.299148
0.297922
0.296717
0.295529
0.294357
0.293198
0.292049
0.290909
0.289777
0.288652
0.287537
0.28643
0.285331
0.284242
0.283162
0.282091
0.281029
0.279977
0.297734
0.296478
0.295241
0.294019
0.29281
0.291613
0.290427
0.28925
0.288081
0.286921
0.28577
0.28463
0.2835
0.282381
0.281274
0.280177
0.279093
0.27802
0.296745
0.295467
0.294205
0.292956
0.291719
0.290494
0.289277
0.28807
0.286872
0.285683
0.284504
0.283336
0.282178
0.281033
0.2799
0.27878
0.277674
0.27658
0.296049
0.294753
0.293471
0.292201
0.290943
0.289694
0.288455
0.287224
0.286002
0.284789
0.283586
0.282394
0.281214
0.280047
0.278892
0.277751
0.276625
0.275512
0.295553
0.294243
0.292946
0.29166
0.290384
0.289117
0.287859
0.286609
0.285368
0.284136
0.282914
0.281703
0.280504
0.279318
0.278145
0.276987
0.275843
0.274714
0.295197
0.293876
0.292567
0.291268
0.289978
0.288697
0.287424
0.286159
0.284903
0.283656
0.282419
0.281192
0.279978
0.278776
0.277589
0.276416
0.275258
0.274115
0.294941
0.293612
0.292293
0.290984
0.289684
0.288391
0.287107
0.285831
0.284563
0.283303
0.282054
0.280816
0.279589
0.278376
0.277176
0.275991
0.274822
0.273668
0.294759
0.293424
0.292098
0.290781
0.289473
0.288172
0.286879
0.285594
0.284317
0.283049
0.281791
0.280543
0.279308
0.278085
0.276876
0.275683
0.274504
0.273342
0.294636
0.293296
0.291965
0.290643
0.289329
0.288022
0.286723
0.285432
0.284149
0.282874
0.281609
0.280355
0.279113
0.277884
0.276669
0.275469
0.274284
0.273115
0.294558
0.293215
0.29188
0.290555
0.289237
0.287927
0.286624
0.285329
0.284042
0.282764
0.281495
0.280237
0.278991
0.277758
0.276539
0.275334
0.274145
0.272972
0.294519
0.293174
0.291838
0.29051
0.28919
0.287878
0.286573
0.285275
0.283986
0.282705
0.281434
0.280173
0.278925
0.277689
0.276467
0.27526
0.274068
0.272892
0.307119
0.305644
0.304188
0.302748
0.301326
0.299919
0.298527
0.297149
0.295784
0.29443
0.293087
0.291753
0.290428
0.289111
0.287801
0.286499
0.285204
0.283917
0.282638
0.281369
0.28011
0.278862
0.277627
0.276405
0.307152
0.305678
0.304221
0.302782
0.301359
0.299953
0.298562
0.297185
0.295821
0.294468
0.293127
0.291795
0.290472
0.289157
0.28785
0.28655
0.285257
0.283973
0.282697
0.28143
0.280174
0.278929
0.277697
0.276478
0.307222
0.305747
0.30429
0.302851
0.30143
0.300025
0.298635
0.29726
0.295898
0.294549
0.29321
0.291882
0.290562
0.289251
0.287948
0.286652
0.285364
0.284083
0.282812
0.281549
0.280297
0.279057
0.277829
0.276615
0.307333
0.305857
0.3044
0.302962
0.301542
0.300139
0.298752
0.297381
0.296023
0.294677
0.293343
0.29202
0.290706
0.289401
0.288104
0.286814
0.285533
0.284259
0.282994
0.281738
0.280493
0.279259
0.278038
0.276831
0.307498
0.306022
0.304566
0.303128
0.30171
0.30031
0.298927
0.297559
0.296207
0.294867
0.29354
0.292224
0.290918
0.289621
0.288332
0.287051
0.285779
0.284514
0.283258
0.282012
0.280776
0.279552
0.27834
0.277142
0.307731
0.306254
0.304798
0.303363
0.301947
0.30055
0.299172
0.29781
0.296465
0.295133
0.293815
0.292508
0.291212
0.289926
0.288648
0.287379
0.286118
0.284866
0.283622
0.282388
0.281165
0.279953
0.278754
0.277568
0.308053
0.306576
0.30512
0.303687
0.302274
0.300882
0.29951
0.298156
0.296819
0.295498
0.29419
0.292896
0.291613
0.29034
0.289077
0.287823
0.286578
0.285341
0.284113
0.282894
0.281687
0.280491
0.279308
0.278137
0.308497
0.30702
0.305566
0.304135
0.302728
0.301342
0.299978
0.298633
0.297307
0.295999
0.294705
0.293426
0.29216
0.290905
0.28966
0.288425
0.287199
0.285981
0.284773
0.283574
0.282386
0.28121
0.280046
0.278895
0.309118
0.307642
0.306191
0.304766
0.303365
0.301988
0.300633
0.299301
0.29799
0.296697
0.295422
0.294162
0.292917
0.291684
0.290462
0.289251
0.288049
0.286855
0.285671
0.284497
0.283334
0.282181
0.281041
0.279914
0.31
0.308527
0.307082
0.305664
0.304272
0.302907
0.301566
0.30025
0.298957
0.297685
0.296433
0.295198
0.29398
0.292775
0.291583
0.290401
0.289229
0.288066
0.286912
0.285768
0.284634
0.283511
0.2824
0.281299
0.311266
0.309801
0.308365
0.306958
0.30558
0.30423
0.302908
0.301613
0.300344
0.2991
0.297877
0.296675
0.295491
0.294323
0.293168
0.292025
0.290891
0.289766
0.288649
0.287541
0.286444
0.285356
0.284278
0.283209
0.3131
0.311647
0.310225
0.308834
0.307475
0.306147
0.30485
0.303584
0.302347
0.301138
0.299955
0.298796
0.297657
0.296537
0.295431
0.294337
0.293252
0.292174
0.291102
0.29004
0.288985
0.287939
0.286899
0.285866
0.315762
0.314327
0.312924
0.311556
0.310222
0.308922
0.307658
0.306429
0.305234
0.304072
0.302941
0.301839
0.300761
0.299704
0.298662
0.297632
0.29661
0.295593
0.294578
0.293571
0.292568
0.29157
0.290575
0.289581
0.319597
0.318181
0.316802
0.315461
0.314157
0.312893
0.311669
0.310486
0.309345
0.308245
0.307183
0.306157
0.305161
0.30419
0.303236
0.302293
0.301355
0.300418
0.299477
0.29854
0.297603
0.296664
0.29572
0.294769
0.324993
0.323597
0.322241
0.320927
0.319657
0.318433
0.317258
0.316133
0.315061
0.314043
0.313077
0.312158
0.311281
0.310434
0.309608
0.308791
0.307975
0.307153
0.306316
0.305477
0.304631
0.303772
0.302894
0.301993
0.3323
0.33092
0.329585
0.3283
0.327067
0.325891
0.324777
0.323731
0.322757
0.321859
0.321038
0.320289
0.3196
0.318955
0.318336
0.317725
0.317106
0.316469
0.315804
0.315122
0.314418
0.313682
0.312902
0.312072
0.34177
0.340416
0.339117
0.33788
0.33671
0.335615
0.334606
0.333693
0.33289
0.332204
0.33164
0.331193
0.330843
0.330561
0.330311
0.33006
0.329784
0.329465
0.32909
0.328667
0.328198
0.327661
0.327034
0.326303
0.353952
0.352667
0.351451
0.350313
0.349266
0.348324
0.347508
0.34684
0.346345
0.346046
0.345954
0.346058
0.346323
0.346686
0.347075
0.347431
0.347716
0.347909
0.347993
0.347967
0.347845
0.34759
0.347161
0.346536
0.370019
0.368858
0.367792
0.366837
0.366016
0.365357
0.364896
0.364674
0.364737
0.365126
0.365852
0.366884
0.368143
0.36949
0.370773
0.371924
0.372903
0.373689
0.374263
0.374602
0.374752
0.37468
0.374349
0.373744
0.372856
0.391352
0.390481
0.389732
0.389135
0.388729
0.388565
0.388703
0.389205
0.39014
0.391555
0.393384
0.395486
0.397736
0.399967
0.402021
0.403791
0.40524
0.40637
0.407188
0.407673
0.407894
0.407796
0.407318
0.406421
0.40511
0.420253
0.419937
0.419694
0.419634
0.419808
0.420292
0.421165
0.422393
0.424027
0.426089
0.428549
0.431287
0.434102
0.43675
0.438999
0.440708
0.441859
0.442512
0.442719
0.442612
0.442219
0.441487
0.440303
0.43858
0.43623
0.455207
0.455453
0.455727
0.456
0.456329
0.456807
0.457483
0.458429
0.459688
0.461266
0.463132
0.465219
0.467293
0.469148
0.470507
0.471037
0.470632
0.469432
0.467616
0.465625
0.46396
0.462355
0.460247
0.457533
0.454383
0.476832
0.475629
0.474488
0.473503
0.472791
0.472476
0.472726
0.473166
0.473975
0.475501
0.478331
0.482447
0.486635
0.49082
0.493791
0.495448
0.496033
0.495067
0.492707
0.489918
0.488393
0.487728
0.486354
0.483937
0.481073
0.479123
0.474281
0.46985
0.465992
0.462901
0.460584
0.459439
0.460874
0.465758
0.476584
0.493767
0.494444
0.506611
0.526827
0.547077
0.560454
0.5651
0.563203
0.555497
0.545408
0.537827
0.536985
0.544283
0.554086
0.5669
0.583468
0.51047
0.502528
0.496321
0.491893
0.489477
0.489624
0.493454
0.504147
0.532458
0.536169
0.565903
0.625437
0.686136
0.703622
0.699857
0.664565
0.621185
0.579164
0.546888
0.544411
0.562736
0.720946
1.0427
1.22575
1.41948
0.647527
0.640739
0.635261
0.631673
0.631194
0.63606
0.650743
0.640755
0.667469
0.73655
0.819415
0.915372
1.02651
0.990261
1.80901
3.07778
4.06747
3.57679
3.60531
0.827004
0.802575
0.777206
0.751205
0.725846
0.708827
0.69439
0.707442
0.749848
0.81926
0.881106
0.496459
0.899126
1.30063
1.43001
2.07255
1.02796
1.00934
0.994565
0.984955
0.980967
0.977451
0.968851
0.985474
1.0041
0.879628
0.342409
0.792753
1.03643
1.11441
0.323205
0.481349
0.852576
1.27596
1.24022
1.5541
1.83439
1.63432
1.74434
0.924583
0.894204
0.947866
1.01421
0.748355
0.748125
0.751251
0.758279
0.458779
0.46032
0.462114
0.463904
0.465421
0.466225
0.465859
0.464488
0.462345
0.459716
0.457182
0.455375
0.454005
0.452408
0.450368
0.447911
0.445163
0.426145
0.428461
0.431008
0.433581
0.435923
0.437785
0.43901
0.439585
0.439465
0.438937
0.438229
0.437535
0.43664
0.435434
0.433838
0.431778
0.429141
0.426254
0.391952
0.393795
0.395886
0.39809
0.40023
0.402132
0.403682
0.404846
0.405631
0.406088
0.406256
0.406193
0.405861
0.405207
0.404193
0.402821
0.401091
0.398994
0.365344
0.366127
0.367212
0.368507
0.369846
0.371089
0.372162
0.373025
0.373658
0.374055
0.374239
0.374232
0.37401
0.373547
0.372826
0.371819
0.370496
0.368901
0.346088
0.346039
0.346189
0.346496
0.346888
0.347287
0.347627
0.347869
0.347989
0.347966
0.347859
0.347652
0.34731
0.3468
0.346099
0.345203
0.344117
0.342867
0.332208
0.331669
0.331248
0.330925
0.330667
0.330433
0.330186
0.329899
0.329554
0.329139
0.328686
0.32818
0.327603
0.326933
0.326159
0.325277
0.324291
0.323214
0.321876
0.321068
0.320334
0.319661
0.319031
0.318423
0.317819
0.3172
0.316556
0.315879
0.315186
0.314468
0.313713
0.312913
0.312059
0.31115
0.310188
0.309176
0.314084
0.313127
0.312217
0.311349
0.310512
0.309693
0.308882
0.308068
0.307243
0.306406
0.305564
0.304712
0.303844
0.302954
0.302041
0.3011
0.300134
0.299143
0.30831
0.307254
0.306233
0.305244
0.304278
0.303329
0.30239
0.301454
0.300516
0.299576
0.298638
0.297699
0.296755
0.295805
0.294847
0.293878
0.292899
0.291911
0.304155
0.303028
0.30193
0.300856
0.299802
0.298764
0.297736
0.296714
0.295697
0.294683
0.293675
0.292672
0.291671
0.290672
0.289673
0.288675
0.287676
0.286676
0.301235
0.300055
0.298898
0.297762
0.296644
0.295539
0.294446
0.293361
0.292282
0.291211
0.290148
0.289092
0.288043
0.287001
0.285966
0.284936
0.283911
0.282892
0.299206
0.297986
0.296785
0.295603
0.294435
0.293281
0.292137
0.291003
0.289876
0.288758
0.28765
0.286551
0.285461
0.284381
0.28331
0.282248
0.281196
0.280153
0.297798
0.296546
0.295313
0.294094
0.29289
0.291697
0.290514
0.28934
0.288176
0.28702
0.285874
0.284739
0.283614
0.282501
0.281398
0.280308
0.279229
0.278161
0.296812
0.295537
0.294278
0.293032
0.291798
0.290575
0.289362
0.288158
0.286962
0.285776
0.2846
0.283435
0.282281
0.281138
0.280009
0.278892
0.277788
0.276698
0.296114
0.294821
0.293541
0.292274
0.291018
0.289771
0.288533
0.287305
0.286085
0.284874
0.283673
0.282483
0.281304
0.280138
0.278986
0.277847
0.276721
0.27561
0.295612
0.294304
0.293009
0.291724
0.29045
0.289185
0.287928
0.286679
0.28544
0.284209
0.282988
0.281778
0.28058
0.279394
0.278222
0.277064
0.275921
0.274793
0.295245
0.293926
0.292618
0.29132
0.290032
0.288751
0.287479
0.286216
0.28496
0.283713
0.282477
0.281251
0.280037
0.278835
0.277648
0.276474
0.275316
0.274173
0.294977
0.293649
0.292331
0.291023
0.289723
0.288432
0.287148
0.285872
0.284604
0.283345
0.282096
0.280857
0.279631
0.278417
0.277217
0.276032
0.274861
0.273707
0.294784
0.293449
0.292124
0.290808
0.2895
0.2882
0.286907
0.285622
0.284345
0.283077
0.281819
0.280571
0.279335
0.278112
0.276902
0.275708
0.274528
0.273364
0.294654
0.293314
0.291984
0.290662
0.289348
0.288042
0.286742
0.285451
0.284168
0.282893
0.281628
0.280373
0.27913
0.277901
0.276685
0.275483
0.274297
0.273127
0.294571
0.293228
0.291895
0.290569
0.289252
0.287941
0.286638
0.285343
0.284056
0.282777
0.281507
0.280249
0.279002
0.277768
0.276548
0.275342
0.274152
0.272977
0.29453
0.293185
0.29185
0.290522
0.289202
0.28789
0.286585
0.285287
0.283997
0.282715
0.281444
0.280182
0.278933
0.277696
0.276473
0.275265
0.274072
0.272894
0.307126
0.305653
0.304198
0.30276
0.301339
0.299933
0.298542
0.297165
0.295801
0.294448
0.293105
0.291772
0.290447
0.28913
0.28782
0.286518
0.285222
0.283935
0.282655
0.281385
0.280126
0.278877
0.277641
0.276417
0.307162
0.305689
0.304234
0.302796
0.301375
0.299971
0.298581
0.297205
0.295842
0.29449
0.293149
0.291818
0.290495
0.28918
0.287873
0.286573
0.28528
0.283996
0.282719
0.281452
0.280195
0.278949
0.277716
0.276496
0.307238
0.305765
0.30431
0.302873
0.301454
0.30005
0.298662
0.297289
0.295928
0.29458
0.293242
0.291914
0.290595
0.289285
0.287982
0.286686
0.285398
0.284117
0.282845
0.281582
0.28033
0.279089
0.27786
0.276644
0.307361
0.305888
0.304434
0.302998