/*--------------------------------*- C++ -*----------------------------------*\
  =========                 |
  \\      /  F ield         | OpenFOAM: The Open Source CFD Toolbox
   \\    /   O peration     | Website:  https://openfoam.org
    \\  /    A nd           | Version:  13
     \\/     M anipulation  |
\*---------------------------------------------------------------------------*/
FoamFile
{
    format      ascii;
    class       volScalarField;
    location    "600";
    object      nut;
}
// * * * * * * * * * * * * * * * * * * * * * * * * * * * * * * * * * * * * * //

dimensions      [0 2 -1 0 0 0 0];

internalField   nonuniform List<scalar> 
171745
(
0.0187242
0.0187108
0.0186976
0.0186844
0.0186714
0.0186585
0.0186456
0.0186328
0.0186201
0.0186074
0.0185946
0.0185818
0.018569
0.018556
0.018543
0.0185299
0.0185167
0.0185035
0.0184902
0.018477
0.0184638
0.0184506
0.0184376
0.0184247
0.0187253
0.0187119
0.0186986
0.0186855
0.0186725
0.0186596
0.0186467
0.018634
0.0186213
0.0186086
0.0185959
0.0185831
0.0185703
0.0185575
0.0185445
0.0185315
0.0185184
0.0185052
0.0184921
0.0184789
0.0184657
0.0184527
0.0184397
0.0184269
0.0187274
0.018714
0.0187007
0.0186876
0.0186746
0.0186618
0.018649
0.0186363
0.0186237
0.0186111
0.0185985
0.0185858
0.0185731
0.0185604
0.0185475
0.0185346
0.0185216
0.0185086
0.0184956
0.0184825
0.0184695
0.0184566
0.0184438
0.0184311
0.0187308
0.0187174
0.0187041
0.018691
0.0186781
0.0186653
0.0186526
0.01864
0.0186275
0.018615
0.0186026
0.0185901
0.0185776
0.018565
0.0185523
0.0185396
0.0185268
0.018514
0.0185012
0.0184883
0.0184755
0.0184628
0.0184502
0.0184378
0.0187358
0.0187224
0.0187091
0.0186961
0.0186832
0.0186705
0.018658
0.0186455
0.0186332
0.0186209
0.0186086
0.0185963
0.018584
0.0185717
0.0185593
0.0185469
0.0185344
0.0185218
0.0185093
0.0184967
0.0184842
0.0184718
0.0184595
0.0184473
0.0187428
0.0187294
0.0187162
0.0187032
0.0186905
0.0186779
0.0186655
0.0186532
0.0186411
0.018629
0.0186171
0.0186051
0.0185931
0.0185811
0.0185691
0.018557
0.0185449
0.0185327
0.0185205
0.0185083
0.0184962
0.0184842
0.0184723
0.0184605
0.0187526
0.0187392
0.0187261
0.0187132
0.0187006
0.0186882
0.018676
0.018664
0.0186521
0.0186404
0.0186288
0.0186172
0.0186056
0.0185941
0.0185825
0.0185709
0.0185592
0.0185475
0.0185358
0.0185242
0.0185125
0.018501
0.0184896
0.0184784
0.0187661
0.0187528
0.0187398
0.0187271
0.0187146
0.0187025
0.0186906
0.0186789
0.0186675
0.0186562
0.018645
0.0186339
0.0186229
0.0186119
0.0186009
0.0185899
0.0185788
0.0185678
0.0185567
0.0185457
0.0185347
0.0185238
0.018513
0.0185024
0.0187851
0.0187719
0.0187591
0.0187466
0.0187345
0.0187227
0.0187112
0.0186999
0.018689
0.0186782
0.0186677
0.0186573
0.0186469
0.0186367
0.0186264
0.0186162
0.0186059
0.0185957
0.0185854
0.0185751
0.0185649
0.0185548
0.0185448
0.0185349
0.0188119
0.018799
0.0187865
0.0187744
0.0187626
0.0187513
0.0187403
0.0187297
0.0187194
0.0187094
0.0186997
0.0186901
0.0186807
0.0186714
0.0186622
0.0186529
0.0186437
0.0186344
0.0186251
0.0186158
0.0186066
0.0185974
0.0185883
0.0185793
0.0188501
0.0188376
0.0188255
0.0188139
0.0188028
0.0187921
0.0187819
0.0187721
0.0187627
0.0187537
0.018745
0.0187366
0.0187284
0.0187204
0.0187124
0.0187045
0.0186965
0.0186885
0.0186804
0.0186724
0.0186643
0.0186562
0.0186482
0.0186403
0.0189046
0.0188927
0.0188813
0.0188704
0.0188601
0.0188503
0.018841
0.0188323
0.0188241
0.0188164
0.0188091
0.0188022
0.0187956
0.0187892
0.0187829
0.0187766
0.0187703
0.0187639
0.0187573
0.0187507
0.018744
0.0187372
0.0187304
0.0187235
0.0189816
0.0189704
0.0189598
0.0189498
0.0189404
0.0189316
0.0189235
0.0189161
0.0189093
0.0189032
0.0188977
0.0188926
0.018888
0.0188836
0.0188794
0.0188753
0.018871
0.0188665
0.0188618
0.0188569
0.0188518
0.0188464
0.0188409
0.0188351
0.0190864
0.0190758
0.0190658
0.0190565
0.0190479
0.01904
0.019033
0.0190268
0.0190214
0.0190169
0.0190132
0.0190102
0.0190078
0.0190059
0.0190041
0.0190025
0.0190007
0.0189986
0.0189962
0.0189933
0.01899
0.0189862
0.018982
0.0189772
0.0192162
0.0192053
0.0191952
0.0191858
0.0191772
0.0191694
0.0191627
0.0191569
0.0191523
0.0191488
0.0191465
0.0191453
0.019145
0.0191454
0.0191462
0.0191473
0.0191483
0.0191491
0.0191495
0.0191492
0.0191482
0.0191463
0.0191436
0.0191399
0.0193454
0.0193327
0.0193207
0.0193095
0.019299
0.0192895
0.0192811
0.0192739
0.0192682
0.0192641
0.0192617
0.0192609
0.0192614
0.0192629
0.0192651
0.0192676
0.0192702
0.0192729
0.0192757
0.0192783
0.0192798
0.01928
0.0192788
0.019276
0.0194078
0.0193912
0.0193752
0.0193596
0.0193446
0.0193304
0.0193172
0.0193054
0.0192948
0.0192857
0.0192779
0.019271
0.0192645
0.0192578
0.0192504
0.0192425
0.0192347
0.0192281
0.0192238
0.0192228
0.019224
0.0192236
0.0192215
0.0192177
0.0192955
0.0192727
0.0192495
0.0192257
0.0192013
0.0191761
0.0191499
0.0191221
0.0190921
0.0190584
0.0190193
0.0189723
0.0189154
0.018848
0.0187717
0.0186902
0.0186087
0.0185334
0.0184705
0.0184255
0.0184045
0.0183948
0.0183863
0.0183788
0.0188606
0.0188234
0.0187819
0.018735
0.0186811
0.0186178
0.0185421
0.0184497
0.0183349
0.018191
0.0180102
0.0171059
0.0162012
0.0157367
0.015622
0.0157274
0.0159448
0.0160117
0.0157893
0.0156187
0.0155079
0.0154722
0.0154726
0.0154841
0.0155057
0.0178269
0.0177322
0.0176163
0.0174746
0.0173017
0.0170906
0.016833
0.01652
0.0160448
0.0143701
0.0130712
0.0121472
0.0115758
0.0113104
0.0112748
0.0113433
0.0114282
0.0113217
0.0110047
0.0107553
0.010575
0.0104657
0.0104444
0.0104902
0.0105554
0.0154176
0.015093
0.0147229
0.0143089
0.0138519
0.0133522
0.0126822
0.0114381
0.0103245
0.00939268
0.00867067
0.00816326
0.00785915
0.00772922
0.00770744
0.00757259
0.00725878
0.00699842
0.0067832
0.00660784
0.00646935
0.00636913
0.00630748
0.00629201
0.00633525
0.0101977
0.00968412
0.00919128
0.00872153
0.00827431
0.00784712
0.00743665
0.00703956
0.00657471
0.00613953
0.00579267
0.00554702
0.00533191
0.00510214
0.00492179
0.00478407
0.00467716
0.00458796
0.00450585
0.00442583
0.00434338
0.00427519
0.00422853
0.00420334
0.00419719
0.00491848
0.00470543
0.00451787
0.00435267
0.00420687
0.00407789
0.00396379
0.00386333
0.00377643
0.00370518
0.00365533
0.00363497
0.00364439
0.00366805
0.00371385
0.00377079
0.00381363
0.00381292
0.00375617
0.00365894
0.00351805
0.00346209
0.00346495
0.00350424
0.00356475
0.00275408
0.00274303
0.00274299
0.00275417
0.00277601
0.00280846
0.00285269
0.00290873
0.00297892
0.0030701
0.00319598
0.00336549
0.00355235
0.00358447
0.00373407
0.00391618
0.00403776
0.00394496
0.00364454
0.00332638
0.00291322
0.00311575
0.00306879
0.00305388
0.00309992
0.00311124
0.00265655
0.00275829
0.00286419
0.00297346
0.00308496
0.00319995
0.00331913
0.00344988
0.00360624
0.00381966
0.00407356
0.00412231
0.00433991
0.00454253
0.00440416
0.00391007
0.00287664
0.0024495
0.00242709
0.00268372
0.0029066
0.00360537
0.0041298
0.00485015
0.00589677
0.00350485
0.00365078
0.00379737
0.00394475
0.00409311
0.00424461
0.00440878
0.00460911
0.00487573
0.00491496
0.00394214
0.00428337
0.00460417
0.00406394
0.00188796
0.00167993
0.00135589
0.00240565
0.00489937
0.007542
0.0098055
0.0100036
0.0102949
0.0109899
0.00457566
0.00476639
0.00495153
0.00513276
0.00530871
0.00548075
0.00565407
0.00584618
0.00475253
0.00531671
0.00284433
0.0031714
0.00186044
0.00174992
0.000646747
0.00096281
0.0018184
0.00626021
0.0078054
0.00928586
0.00902824
0.00903937
0.00929102
0.0096178
0.00622435
0.0063987
0.00656679
0.00661481
0.00630337
0.00577817
0.00499449
0.00404078
0.00593236
0.00294167
0.00352516
0.00134414
0.000318837
0.00255125
0.00801128
0.00743036
0.00716949
0.00717682
0.00758121
0.00798415
0.00578621
0.00705102
0.00670337
0.00663632
0.00683095
0.00711866
0.00711084
0.00209268
0.00281119
0.00346642
0.00421958
0.00604446
0.003343
0.00326441
0.00334541
0.0032723
0.00603067
0.00570465
0.00540911
0.00515475
0.0049453
0.00478364
0.00466298
0.00457223
0.00450017
0.00443788
0.00438043
0.00432041
0.00426961
0.00423468
0.00421637
0.00421523
0.0042423
0.00922249
0.00853878
0.00806654
0.00780343
0.00773098
0.00769595
0.00734788
0.00706332
0.00683165
0.00664461
0.00649671
0.0063842
0.00630715
0.00626495
0.00627471
0.00633389
0.00641213
0.00650749
0.014126
0.0128907
0.0120238
0.0115146
0.0113319
0.011415
0.0116375
0.0114411
0.0110946
0.0108163
0.0106056
0.0104626
0.0103905
0.0104111
0.0104654
0.0105385
0.0106286
0.0107339
0.0180347
0.017832
0.0168993
0.0160705
0.015703
0.0157255
0.0160196
0.0160603
0.0158151
0.0156175
0.0154755
0.0153959
0.0153893
0.0153948
0.0154117
0.015439
0.0154757
0.0155206
0.0190058
0.0189597
0.0189048
0.0188396
0.0187643
0.0186816
0.0185959
0.0185134
0.0184404
0.0183829
0.0183459
0.0183343
0.0183246
0.0183167
0.0183104
0.0183059
0.018303
0.0183019
0.0192681
0.0192589
0.0192506
0.0192424
0.0192339
0.0192248
0.0192155
0.0192066
0.0191994
0.0191952
0.0191949
0.0191947
0.0191931
0.0191899
0.0191851
0.0191789
0.0191715
0.0191631
0.0192589
0.0192563
0.0192555
0.0192559
0.0192574
0.0192594
0.0192617
0.0192641
0.0192665
0.0192689
0.0192708
0.0192716
0.0192709
0.0192688
0.0192652
0.0192601
0.0192538
0.0192464
0.0191484
0.0191463
0.0191452
0.019145
0.0191456
0.0191465
0.0191476
0.0191486
0.0191493
0.0191495
0.0191489
0.0191475
0.0191452
0.019142
0.0191377
0.0191325
0.0191264
0.0191195
0.0190185
0.0190149
0.019012
0.0190098
0.0190079
0.0190063
0.0190046
0.0190028
0.0190007
0.0189981
0.0189951
0.0189916
0.0189877
0.0189832
0.0189781
0.0189726
0.0189665
0.01896
0.0189054
0.0189
0.018895
0.0188905
0.0188862
0.0188821
0.0188779
0.0188736
0.0188691
0.0188644
0.0188594
0.0188542
0.0188487
0.018843
0.0188371
0.0188309
0.0188245
0.0188178
0.0188189
0.0188117
0.0188048
0.0187983
0.0187919
0.0187856
0.0187794
0.018773
0.0187666
0.01876
0.0187533
0.0187466
0.0187397
0.0187328
0.0187259
0.0187188
0.0187118
0.0187046
0.0187563
0.0187477
0.0187393
0.0187312
0.0187231
0.0187152
0.0187072
0.0186992
0.0186912
0.0186831
0.018675
0.0186668
0.0186588
0.0186507
0.0186427
0.0186347
0.0186268
0.018619
0.0187121
0.0187024
0.0186928
0.0186834
0.0186741
0.0186648
0.0186556
0.0186463
0.018637
0.0186276
0.0186183
0.018609
0.0185998
0.0185907
0.0185817
0.0185728
0.0185641
0.0185555
0.0186809
0.0186704
0.0186599
0.0186496
0.0186393
0.018629
0.0186188
0.0186085
0.0185981
0.0185878
0.0185775
0.0185673
0.0185571
0.0185471
0.0185372
0.0185274
0.0185179
0.0185085
0.0186588
0.0186476
0.0186365
0.0186255
0.0186145
0.0186034
0.0185923
0.0185812
0.0185701
0.018559
0.0185479
0.0185369
0.0185259
0.0185151
0.0185045
0.018494
0.0184838
0.0184738
0.018643
0.0186313
0.0186197
0.0186081
0.0185965
0.0185849
0.0185732
0.0185615
0.0185497
0.0185379
0.0185262
0.0185146
0.018503
0.0184916
0.0184803
0.0184692
0.0184584
0.0184478
0.0186315
0.0186195
0.0186075
0.0185955
0.0185834
0.0185713
0.0185592
0.018547
0.0185347
0.0185225
0.0185102
0.0184981
0.018486
0.0184741
0.0184623
0.0184508
0.0184394
0.0184283
0.0186233
0.018611
0.0185987
0.0185863
0.0185739
0.0185615
0.0185489
0.0185364
0.0185237
0.0185111
0.0184985
0.0184859
0.0184735
0.0184611
0.018449
0.018437
0.0184253
0.0184138
0.0186174
0.0186049
0.0185923
0.0185797
0.0185671
0.0185544
0.0185416
0.0185287
0.0185158
0.0185029
0.01849
0.0184771
0.0184644
0.0184517
0.0184393
0.018427
0.018415
0.0184032
0.0186133
0.0186007
0.018588
0.0185752
0.0185624
0.0185495
0.0185365
0.0185234
0.0185103
0.0184972
0.0184841
0.018471
0.0184581
0.0184452
0.0184326
0.0184201
0.0184078
0.0183958
0.0186108
0.0185981
0.0185853
0.0185724
0.0185594
0.0185464
0.0185333
0.0185201
0.0185069
0.0184937
0.0184804
0.0184672
0.0184541
0.0184412
0.0184283
0.0184157
0.0184033
0.0183912
0.0186095
0.0185967
0.0185839
0.018571
0.0185579
0.0185449
0.0185317
0.0185184
0.0185051
0.0184918
0.0184785
0.0184652
0.018452
0.018439
0.0184261
0.0184134
0.0184009
0.0183887
0.0187243
0.0187109
0.0186977
0.0186845
0.0186715
0.0186586
0.0186458
0.018633
0.0186203
0.0186076
0.0185948
0.018582
0.0185692
0.0185562
0.0185432
0.0185301
0.0185169
0.0185037
0.0184904
0.0184772
0.018464
0.0184508
0.0184378
0.0184249
0.0187254
0.018712
0.0186988
0.0186856
0.0186726
0.0186598
0.018647
0.0186342
0.0186215
0.0186088
0.0185961
0.0185834
0.0185706
0.0185577
0.0185448
0.0185318
0.0185187
0.0185055
0.0184923
0.0184791
0.018466
0.0184529
0.01844
0.0184272
0.0187276
0.0187142
0.018701
0.0186879
0.0186749
0.0186621
0.0186493
0.0186367
0.018624
0.0186114
0.0185988
0.0185862
0.0185735
0.0185608
0.018548
0.0185351
0.0185221
0.0185091
0.018496
0.018483
0.01847
0.018457
0.0184442
0.0184316
0.0187312
0.0187178
0.0187046
0.0186915
0.0186786
0.0186658
0.0186532
0.0186406
0.0186281
0.0186157
0.0186032
0.0185907
0.0185782
0.0185657
0.018553
0.0185404
0.0185276
0.0185148
0.0185019
0.0184891
0.0184763
0.0184636
0.018451
0.0184386
0.0187364
0.0187231
0.0187099
0.0186969
0.018684
0.0186714
0.0186588
0.0186464
0.0186341
0.0186219
0.0186096
0.0185974
0.0185851
0.0185728
0.0185605
0.0185481
0.0185356
0.0185231
0.0185105
0.018498
0.0184855
0.0184731
0.0184608
0.0184487
0.0187438
0.0187304
0.0187173
0.0187043
0.0186916
0.0186791
0.0186667
0.0186545
0.0186425
0.0186305
0.0186185
0.0186066
0.0185946
0.0185827
0.0185707
0.0185587
0.0185466
0.0185344
0.0185223
0.0185102
0.0184981
0.0184861
0.0184743
0.0184625
0.0187537
0.0187404
0.0187274
0.0187146
0.018702
0.0186897
0.0186775
0.0186656
0.0186538
0.0186422
0.0186306
0.0186191
0.0186076
0.0185961
0.0185845
0.018573
0.0185614
0.0185498
0.0185381
0.0185265
0.018515
0.0185035
0.0184922
0.018481
0.0187674
0.0187542
0.0187412
0.0187286
0.0187162
0.0187042
0.0186924
0.0186808
0.0186694
0.0186581
0.0186471
0.018636
0.0186251
0.0186142
0.0186033
0.0185923
0.0185814
0.0185704
0.0185594
0.0185484
0.0185375
0.0185267
0.018516
0.0185055
0.0187863
0.0187733
0.0187605
0.0187482
0.0187361
0.0187244
0.018713
0.0187019
0.018691
0.0186803
0.0186699
0.0186595
0.0186493
0.0186391
0.018629
0.0186188
0.0186087
0.0185985
0.0185883
0.0185782
0.0185681
0.0185581
0.0185482
0.0185385
0.018813
0.0188002
0.0187878
0.0187758
0.0187642
0.018753
0.0187421
0.0187316
0.0187214
0.0187115
0.0187019
0.0186925
0.0186832
0.018674
0.0186648
0.0186557
0.0186466
0.0186374
0.0186283
0.0186191
0.0186101
0.0186011
0.0185921
0.0185833
0.018851
0.0188386
0.0188267
0.0188153
0.0188043
0.0187937
0.0187836
0.018774
0.0187647
0.0187558
0.0187473
0.018739
0.018731
0.018723
0.0187152
0.0187074
0.0186996
0.0186918
0.0186839
0.018676
0.0186682
0.0186603
0.0186526
0.0186449
0.0189053
0.0188936
0.0188823
0.0188716
0.0188615
0.0188518
0.0188428
0.0188342
0.0188262
0.0188186
0.0188115
0.0188048
0.0187983
0.0187921
0.0187859
0.0187799
0.0187737
0.0187675
0.0187612
0.0187549
0.0187485
0.0187421
0.0187356
0.0187292
0.0189822
0.0189713
0.0189609
0.0189512
0.018942
0.0189335
0.0189256
0.0189184
0.0189119
0.018906
0.0189006
0.0188958
0.0188914
0.0188872
0.0188832
0.0188793
0.0188753
0.0188711
0.0188668
0.0188623
0.0188576
0.0188528
0.0188478
0.0188426
0.0190875
0.0190773
0.0190677
0.0190588
0.0190506
0.0190432
0.0190365
0.0190306
0.0190256
0.0190214
0.019018
0.0190153
0.0190131
0.0190114
0.01901
0.0190086
0.0190072
0.0190055
0.0190036
0.0190013
0.0189987
0.0189958
0.0189925
0.0189887
0.0192196
0.0192095
0.0192001
0.0191914
0.0191835
0.0191764
0.0191702
0.0191651
0.019161
0.019158
0.0191562
0.0191554
0.0191555
0.0191563
0.0191576
0.0191591
0.0191606
0.019162
0.0191631
0.0191637
0.0191638
0.0191632
0.0191619
0.0191598
0.0193555
0.0193442
0.0193335
0.0193236
0.0193144
0.0193061
0.0192989
0.0192928
0.0192881
0.019285
0.0192834
0.0192834
0.0192848
0.0192873
0.0192907
0.0192947
0.019299
0.0193036
0.0193083
0.0193128
0.0193165
0.0193192
0.0193207
0.0193209
0.0194332
0.0194191
0.0194054
0.0193922
0.0193796
0.0193678
0.0193569
0.0193472
0.0193389
0.0193323
0.0193274
0.0193243
0.0193226
0.0193219
0.0193221
0.0193229
0.0193247
0.019328
0.0193332
0.0193408
0.0193476
0.0193531
0.0193571
0.0193591
0.0193463
0.019328
0.0193093
0.0192903
0.0192709
0.0192513
0.0192314
0.0192112
0.0191907
0.0191696
0.0191472
0.0191228
0.0190953
0.0190643
0.0190304
0.0189954
0.018962
0.0189338
0.0189143
0.0189065
0.0189069
0.0189075
0.0189078
0.0189075
0.0189376
0.0189114
0.0188825
0.0188505
0.0188148
0.0187744
0.018728
0.0186736
0.0186086
0.0185293
0.0184312
0.0183106
0.0174235
0.016844
0.0166149
0.0166189
0.0167325
0.0168758
0.0170354
0.0171084
0.0170775
0.0170573
0.0170449
0.0170417
0.0170454
0.0179417
0.0178937
0.017835
0.0177633
0.0176756
0.0175674
0.0174329
0.0172648
0.017053
0.016126
0.0147962
0.0137833
0.0131186
0.0127951
0.0127575
0.0128961
0.0130911
0.013271
0.0133032
0.0131186
0.0130075
0.0129729
0.0129603
0.0129701
0.0130007
0.0158691
0.0157326
0.0155653
0.0153643
0.0151246
0.0148404
0.0144512
0.0133209
0.0122133
0.0112093
0.0103752
0.00975136
0.00938292
0.00921027
0.00918871
0.00925117
0.00924072
0.00894346
0.00870321
0.00851992
0.00839405
0.00833342
0.00832822
0.00834859
0.00839406
0.0116372
0.0113342
0.0110118
0.010673
0.0103182
0.00981151
0.00913781
0.0084422
0.00777271
0.0071779
0.00669944
0.00648873
0.00646826
0.00650734
0.00627947
0.0060636
0.00588299
0.00572817
0.00559555
0.00548626
0.00540221
0.00534459
0.00532683
0.00534507
0.00538344
0.00591087
0.00575609
0.00560913
0.00547039
0.0053393
0.00521474
0.0050956
0.00497761
0.00479042
0.00448465
0.004278
0.00427847
0.00406422
0.00437631
0.0045298
0.00448772
0.00442111
0.00433373
0.00423341
0.00413333
0.00404177
0.00395724
0.00392634
0.00393974
0.00398388
0.00312071
0.00313151
0.00314989
0.00317622
0.00321111
0.00325591
0.00331335
0.00338794
0.00348746
0.00362684
0.00370938
0.0035342
0.0040618
0.0040705
0.0042819
0.0041643
0.00394958
0.00370249
0.00344392
0.00320328
0.00302281
0.00278209
0.00300993
0.00325246
0.00347157
0.0033467
0.00285834
0.00298734
0.00312105
0.00325917
0.00340332
0.00355817
0.00372777
0.0039278
0.00418828
0.00431056
0.00456318
0.00347812
0.00464358
0.00390199
0.00289516
0.00270902
0.00235789
0.0019107
0.00192821
0.00222197
0.00292897
0.00454215
0.00522686
0.00564063
0.00596286
0.00403429
0.00423512
0.00442466
0.00460502
0.00478031
0.00495877
0.00516446
0.00541739
0.0054283
0.00387617
0.00338973
0.00396587
0.00163789
0.00139877
0.000635041
0.000463341
0.000918039
0.000999465
0.00215358
0.00512704
0.00600148
0.0106469
0.00757987
0.00844124
0.00502525
0.00516776
0.00528186
0.00534868
0.00534241
0.00523548
0.00487229
0.00403064
0.0059113
0.00292185
0.00360347
0.00118283
0.00161436
0.00800486
0.00902345
0.00969033
0.0096059
0.0103385
0.00576137
0.00585666
0.00587226
0.00577607
0.00553754
0.00506147
0.00422193
0.00486117
0.00298109
0.00288587
0.000405775
0.000253813
0.00568678
0.00490346
0.00572197
0.00623907
0.00681014
0.000169754
0.00228593
0.00518266
0.0048798
0.00556818
0.00607468
0.00625736
0.0026098
0.00331478
0.00467229
0.00554521
0.00617297
0.00447477
0.0043532
0.00422092
0.00419905
0.00693223
0.00648412
0.00633278
0.00631125
0.00627785
0.00604846
0.00586455
0.00571368
0.00558777
0.00548352
0.00540303
0.00534556
0.00531066
0.00531962
0.00534739
0.00539241
0.00545419
0.0109381
0.0101328
0.00954566
0.0092316
0.00913786
0.00921977
0.00924724
0.00893061
0.00867484
0.00847573
0.00833208
0.00824339
0.00822817
0.00823793
0.00827218
0.0083297
0.00840816
0.00850538
0.0158198
0.0145356
0.0135726
0.0129708
0.0127357
0.0128207
0.0131177
0.0134823
0.0132547
0.0130402
0.0128961
0.0128348
0.0128142
0.0128164
0.0128399
0.0128828
0.0129429
0.0130178
0.0184041
0.0182888
0.0181326
0.0171962
0.0167012
0.0165886
0.0167464
0.0170435
0.0171153
0.0170114
0.0169498
0.0169264
0.0169122
0.0169069
0.0169097
0.0169198
0.0169363
0.0169586
0.0191227
0.0190958
0.0190661
0.0190331
0.0189965
0.0189578
0.0189191
0.0188839
0.0188557
0.0188383
0.0188354
0.0188347
0.0188347
0.0188348
0.0188348
0.0188345
0.0188341
0.0188337
0.0193141
0.0193084
0.0193044
0.0193017
0.0193002
0.0192994
0.0192994
0.0193005
0.0193033
0.0193084
0.0193149
0.0193205
0.0193249
0.0193278
0.0193289
0.0193282
0.0193259
0.0193223
0.0192787
0.019277
0.019277
0.0192785
0.019281
0.0192845
0.0192884
0.0192926
0.0192971
0.0193017
0.0193056
0.0193087
0.0193108
0.0193115
0.019311
0.019309
0.0193057
0.0193013
0.0191569
0.0191552
0.0191545
0.0191548
0.0191557
0.0191571
0.0191587
0.0191602
0.0191615
0.0191624
0.0191629
0.0191627
0.0191618
0.0191601
0.0191576
0.0191541
0.0191499
0.0191449
0.0190225
0.0190192
0.0190166
0.0190146
0.019013
0.0190116
0.0190103
0.0190089
0.0190072
0.0190051
0.0190028
0.0190001
0.018997
0.0189934
0.0189894
0.0189848
0.0189798
0.0189744
0.0189079
0.0189027
0.0188979
0.0188936
0.0188895
0.0188855
0.0188816
0.0188776
0.0188734
0.018869
0.0188645
0.0188598
0.0188549
0.0188498
0.0188444
0.0188389
0.0188331
0.0188272
0.018821
0.0188139
0.0188072
0.0188008
0.0187946
0.0187885
0.0187824
0.0187763
0.0187701
0.0187637
0.0187574
0.0187509
0.0187444
0.0187379
0.0187313
0.0187247
0.0187181
0.0187114
0.0187584
0.0187499
0.0187416
0.0187336
0.0187257
0.0187178
0.01871
0.0187022
0.0186943
0.0186864
0.0186785
0.0186706
0.0186627
0.0186549
0.0186471
0.0186394
0.0186318
0.0186243
0.0187142
0.0187045
0.0186951
0.0186858
0.0186766
0.0186675
0.0186583
0.0186491
0.0186399
0.0186307
0.0186216
0.0186124
0.0186034
0.0185944
0.0185856
0.0185769
0.0185683
0.0185599
0.018683
0.0186725
0.0186622
0.0186519
0.0186417
0.0186316
0.0186214
0.0186112
0.0186009
0.0185907
0.0185805
0.0185704
0.0185603
0.0185504
0.0185406
0.018531
0.0185216
0.0185124
0.0186608
0.0186497
0.0186387
0.0186277
0.0186167
0.0186058
0.0185948
0.0185837
0.0185727
0.0185616
0.0185506
0.0185397
0.0185288
0.0185181
0.0185075
0.0184972
0.018487
0.018477
0.0186447
0.0186331
0.0186216
0.0186101
0.0185985
0.0185869
0.0185753
0.0185636
0.0185519
0.0185402
0.0185286
0.0185169
0.0185054
0.0184941
0.0184828
0.0184718
0.018461
0.0184505
0.018633
0.018621
0.018609
0.018597
0.018585
0.018573
0.0185609
0.0185487
0.0185365
0.0185243
0.0185121
0.0184999
0.0184879
0.018476
0.0184643
0.0184527
0.0184414
0.0184304
0.0186243
0.018612
0.0185997
0.0185874
0.0185751
0.0185626
0.0185501
0.0185376
0.018525
0.0185123
0.0184998
0.0184872
0.0184748
0.0184624
0.0184503
0.0184384
0.0184266
0.0184152
0.018618
0.0186055
0.018593
0.0185805
0.0185678
0.0185551
0.0185423
0.0185295
0.0185166
0.0185037
0.0184908
0.0184779
0.0184652
0.0184525
0.0184401
0.0184278
0.0184158
0.018404
0.0186137
0.0186011
0.0185884
0.0185757
0.0185628
0.0185499
0.018537
0.0185239
0.0185108
0.0184977
0.0184846
0.0184715
0.0184585
0.0184457
0.018433
0.0184205
0.0184083
0.0183963
0.0186111
0.0185983
0.0185855
0.0185727
0.0185597
0.0185467
0.0185336
0.0185204
0.0185072
0.0184939
0.0184807
0.0184675
0.0184544
0.0184414
0.0184286
0.018416
0.0184036
0.0183914
0.0186098
0.018597
0.0185841
0.0185712
0.0185582
0.0185451
0.0185319
0.0185187
0.0185054
0.018492
0.0184787
0.0184654
0.0184522
0.0184392
0.0184263
0.0184135
0.0184011
0.0183888
0.0187245
0.0187111
0.0186979
0.0186848
0.0186718
0.018659
0.0186462
0.0186334
0.0186207
0.018608
0.0185952
0.0185825
0.0185696
0.0185567
0.0185437
0.0185306
0.0185174
0.0185042
0.0184909
0.0184776
0.0184644
0.0184512
0.0184382
0.0184253
0.0187257
0.0187123
0.0186991
0.018686
0.0186731
0.0186602
0.0186474
0.0186347
0.0186221
0.0186094
0.0185967
0.018584
0.0185712
0.0185584
0.0185454
0.0185324
0.0185193
0.0185062
0.018493
0.0184798
0.0184666
0.0184536
0.0184406
0.0184278
0.0187282
0.0187148
0.0187016
0.0186886
0.0186757
0.0186629
0.0186502
0.0186376
0.018625
0.0186124
0.0185998
0.0185872
0.0185746
0.0185618
0.0185491
0.0185362
0.0185232
0.0185102
0.0184972
0.0184841
0.0184712
0.0184582
0.0184454
0.0184328
0.0187323
0.018719
0.0187059
0.0186929
0.01868
0.0186673
0.0186547
0.0186422
0.0186298
0.0186174
0.018605
0.0185926
0.0185801
0.0185676
0.018555
0.0185424
0.0185296
0.0185169
0.0185041
0.0184913
0.0184785
0.0184658
0.0184533
0.0184408
0.0187385
0.0187252
0.0187121
0.0186992
0.0186865
0.0186739
0.0186615
0.0186492
0.0186369
0.0186248
0.0186126
0.0186004
0.0185883
0.018576
0.0185638
0.0185514
0.018539
0.0185266
0.0185141
0.0185016
0.0184892
0.0184768
0.0184646
0.0184525
0.0187469
0.0187337
0.0187207
0.0187079
0.0186953
0.0186829
0.0186707
0.0186586
0.0186466
0.0186347
0.0186229
0.0186111
0.0185993
0.0185874
0.0185756
0.0185636
0.0185516
0.0185396
0.0185276
0.0185155
0.0185036
0.0184917
0.0184799
0.0184683
0.0187578
0.0187446
0.0187318
0.0187191
0.0187067
0.0186946
0.0186826
0.0186708
0.0186592
0.0186477
0.0186363
0.0186249
0.0186136
0.0186022
0.0185908
0.0185794
0.018568
0.0185565
0.018545
0.0185335
0.0185221
0.0185108
0.0184996
0.0184885
0.018772
0.018759
0.0187462
0.0187338
0.0187216
0.0187098
0.0186982
0.0186868
0.0186756
0.0186646
0.0186536
0.0186428
0.0186321
0.0186213
0.0186106
0.0185999
0.0185891
0.0185783
0.0185675
0.0185567
0.018546
0.0185354
0.0185249
0.0185146
0.0187911
0.0187783
0.0187658
0.0187536
0.0187418
0.0187303
0.0187192
0.0187083
0.0186976
0.0186872
0.018677
0.0186669
0.0186569
0.0186469
0.018637
0.0186271
0.0186172
0.0186072
0.0185973
0.0185874
0.0185776
0.0185678
0.0185582
0.0185487
0.0188177
0.0188052
0.018793
0.0187813
0.0187699
0.018759
0.0187484
0.0187382
0.0187283
0.0187187
0.0187093
0.0187001
0.0186911
0.0186822
0.0186733
0.0186645
0.0186556
0.0186468
0.0186379
0.0186291
0.0186203
0.0186116
0.0186031
0.0185946
0.0188553
0.0188433
0.0188317
0.0188206
0.0188099
0.0187997
0.0187899
0.0187806
0.0187717
0.0187631
0.0187549
0.0187469
0.0187392
0.0187316
0.0187241
0.0187166
0.0187092
0.0187017
0.0186942
0.0186867
0.0186792
0.0186719
0.0186646
0.0186573
0.0189092
0.0188979
0.0188871
0.0188768
0.0188671
0.0188578
0.0188492
0.018841
0.0188334
0.0188262
0.0188195
0.0188131
0.018807
0.0188012
0.0187954
0.0187897
0.0187841
0.0187783
0.0187725
0.0187667
0.0187609
0.0187551
0.0187493
0.0187435
0.0189859
0.0189755
0.0189657
0.0189565
0.0189479
0.01894
0.0189327
0.018926
0.01892
0.0189145
0.0189097
0.0189053
0.0189013
0.0188977
0.0188942
0.0188907
0.0188873
0.0188837
0.01888
0.0188762
0.0188724
0.0188685
0.0188645
0.0188604
0.0190918
0.0190824
0.0190737
0.0190656
0.0190583
0.0190516
0.0190457
0.0190406
0.0190363
0.0190328
0.0190301
0.019028
0.0190266
0.0190255
0.0190247
0.019024
0.0190232
0.0190224
0.0190213
0.0190201
0.0190188
0.0190172
0.0190153
0.0190131
0.0192274
0.0192187
0.0192107
0.0192033
0.0191967
0.019191
0.0191861
0.0191822
0.0191792
0.0191774
0.0191766
0.0191767
0.0191778
0.0191795
0.0191816
0.019184
0.0191866
0.019189
0.0191913
0.0191935
0.0191954
0.0191969
0.0191978
0.0191981
0.0193745
0.0193655
0.0193571
0.0193495
0.0193426
0.0193366
0.0193315
0.0193275
0.0193248
0.0193234
0.0193235
0.0193251
0.019328
0.0193321
0.019337
0.0193426
0.0193488
0.0193553
0.0193622
0.0193691
0.0193756
0.0193816
0.0193867
0.0193907
0.0194784
0.0194683
0.0194587
0.0194495
0.0194409
0.0194329
0.0194257
0.0194195
0.0194145
0.0194112
0.0194095
0.0194098
0.019412
0.0194159
0.0194213
0.0194281
0.0194364
0.0194464
0.0194583
0.0194709
0.0194835
0.0194955
0.0195065
0.0195158
0.0194384
0.0194269
0.019415
0.0194027
0.0193902
0.0193773
0.0193643
0.0193513
0.0193385
0.0193263
0.0193149
0.0193044
0.019295
0.0192868
0.0192803
0.019276
0.0192752
0.0192793
0.01929
0.0193047
0.0193204
0.0193363
0.0193515
0.0193651
0.0190796
0.0190668
0.0190519
0.0190346
0.0190148
0.0189922
0.0189662
0.0189361
0.0189013
0.0188608
0.0188137
0.0187599
0.0186998
0.0184776
0.0180413
0.0178336
0.0177036
0.017524
0.0172659
0.0169871
0.0167922
0.0167933
0.0170816
0.0176545
0.0183878
0.0181128
0.0181018
0.0180841
0.0180591
0.0180257
0.0179819
0.0179251
0.0178518
0.0177568
0.0176345
0.0170184
0.0159848
0.0151424
0.0145962
0.0143822
0.0144228
0.0145399
0.0145694
0.0144462
0.0141949
0.0139314
0.0138396
0.0140435
0.014539
0.0152238
0.0160635
0.0160561
0.016041
0.0160057
0.0159475
0.0158614
0.0157086
0.0150238
0.0142726
0.0135069
0.0127797
0.0121409
0.0115945
0.0112252
0.011141
0.0113217
0.0115873
0.0117718
0.0117245
0.0115547
0.011185
0.0109722
0.0110793
0.0113897
0.0114169
0.011662
0.0117383
0.0117407
0.0116634
0.0115009
0.0112573
0.0109319
0.0104962
0.0099948
0.00949862
0.00908021
0.00873391
0.00851176
0.00833711
0.00829681
0.00825005
0.00802112
0.00782823
0.00767416
0.0075716
0.00750707
0.00747363
0.00746896
0.00749244
0.00754244
0.00705849
0.00704995
0.00702786
0.00699333
0.00694828
0.00690294
0.00682072
0.00650835
0.00616072
0.00584267
0.00561908
0.0051578
0.00541973
0.00568488
0.00563487
0.00554629
0.00546399
0.00538147
0.00530541
0.00525027
0.00523521
0.00524099
0.00525837
0.00529109
0.00534326
0.00385366
0.00388991
0.00392547
0.00396124
0.00399756
0.00403315
0.00406807
0.00412083
0.00418725
0.00427584
0.0038852
0.00440015
0.00380675
0.00372083
0.00407689
0.00437781
0.00425812
0.00411069
0.00395535
0.00382781
0.00374751
0.00366379
0.00358187
0.00367782
0.00380786
0.00397256
0.00296374
0.00305434
0.00314846
0.00324655
0.00334951
0.00345929
0.00358019
0.00373326
0.00397242
0.00405082
0.0028603
0.00285379
0.00317959
0.00313225
0.00275599
0.00245592
0.0022378
0.00208091
0.00199481
0.0019416
0.00203405
0.00254609
0.00336828
0.0040891
0.00490074
0.00360959
0.00374417
0.0038801
0.00402048
0.0041714
0.00434417
0.00455914
0.00459856
0.00347874
0.00255275
0.00249098
0.0011445
0.000113134
0.000755694
0.00180979
0.00427401
0.00805329
0.0104669
0.0102751
0.00569184
0.00577597
0.00583122
0.00586287
0.00588052
0.00592868
0.00599626
0.00505012
0.00339821
0.00272343
0.00108506
0.00074236
0.00429505
0.00601441
0.00751728
0.010418
0.00669052
0.00682282
0.00696482
0.00712487
0.0073042
0.00672988
0.00573776
0.0032294
0.00229851
0.00034049
0.00140878
0.00348658
0.00480517
0.00566737
0.00121308
0.00265016
0.00325189
0.00475229
0.00514289
0.00288158
0.00424049
0.00470063
0.00542427
0.00373789
0.00413094
0.00437014
0.00467781
0.00632483
0.00612446
0.00602301
0.00599756
0.00924673
0.00880219
0.00846424
0.00830414
0.00823156
0.00818747
0.00794661
0.00775124
0.00759371
0.00747601
0.00740374
0.00736502
0.00735723
0.00737684
0.00742069
0.0074866
0.00757284
0.0132617
0.0125242
0.0118952
0.0113976
0.0111142
0.0111408
0.0114555
0.0118328
0.0116166
0.0114618
0.0113545
0.0112196
0.0108328
0.0107789
0.0110237
0.011282
0.0113482
0.0114356
0.0174404
0.0167454
0.0157184
0.0149139
0.0144395
0.0143288
0.014503
0.0147669
0.0149102
0.0148241
0.0145266
0.0141629
0.0139463
0.0140377
0.0144432
0.0150589
0.0155878
0.0156397
0.0187748
0.0187197
0.0186572
0.0185884
0.0182108
0.0178579
0.0177637