/*--------------------------------*- C++ -*----------------------------------*\
  =========                 |
  \\      /  F ield         | OpenFOAM: The Open Source CFD Toolbox
   \\    /   O peration     | Website:  https://openfoam.org
    \\  /    A nd           | Version:  13
     \\/     M anipulation  |
\*---------------------------------------------------------------------------*/
FoamFile
{
    format      ascii;
    class       volScalarField;
    location    "600";
    object      p;
}
// * * * * * * * * * * * * * * * * * * * * * * * * * * * * * * * * * * * * * //

dimensions      [0 2 -2 0 0 0 0];

internalField   nonuniform List<scalar> 
171745
(
-2.53029
-3.00051
-3.47635
-3.95755
-4.44357
-4.93343
-5.42567
-5.91836
-6.4092
-6.89556
-7.37452
-7.84293
-8.29745
-8.73464
-9.15115
-9.54375
-9.90946
-10.2456
-10.5497
-10.8201
-11.0551
-11.2539
-11.416
-11.5414
-2.53593
-3.00569
-3.48148
-3.96304
-4.44984
-4.9409
-5.43475
-5.92944
-6.42264
-6.91166
-7.39352
-7.86501
-8.32271
-8.7631
-9.18273
-9.57825
-9.94659
-10.285
-10.591
-10.8627
-11.0986
-11.2978
-11.4597
-11.5845
-2.54614
-3.01488
-3.49049
-3.97275
-4.46112
-4.95463
-5.45178
-5.95057
-6.4486
-6.94305
-7.43084
-7.9086
-8.37277
-8.81966
-9.24561
-9.64708
-10.0208
-10.3638
-10.6736
-10.9482
-11.186
-11.386
-11.5477
-11.6714
-2.56051
-3.02756
-3.50282
-3.98608
-4.47683
-4.97407
-5.47626
-5.98134
-6.48676
-6.98957
-7.48647
-7.97388
-8.448
-8.90486
-9.3405
-9.75111
-10.1331
-10.4833
-10.799
-11.0779
-11.3186
-11.5199
-11.6814
-11.8034
-2.57752
-3.04215
-3.5168
-4.00133
-4.49524
-4.99751
-5.50655
-6.02019
-6.53573
-7.05
-7.55944
-8.06016
-8.548
-9.01861
-9.46765
-9.89086
-10.2843
-10.6444
-10.9682
-11.2533
-11.4979
-11.7009
-11.8621
-11.9817
-2.59568
-3.05695
-3.53061
-4.01659
-4.5144
-5.02303
-5.54079
-6.06541
-6.59399
-7.1231
-7.64884
-8.16691
-8.67268
-9.16129
-9.62786
-10.0676
-10.476
-10.8491
-11.1835
-11.4766
-11.7264
-11.9317
-12.0923
-12.2087
-2.61261
-3.06939
-3.54154
-4.02905
-4.53148
-5.04779
-5.57624
-6.11441
-6.6592
-7.20688
-7.75312
-8.29309
-8.82157
-9.33303
-9.82186
-10.2826
-10.71
-11.0996
-11.4476
-11.7508
-12.0071
-12.2152
-12.3751
-12.4872
-2.62554
-3.07644
-3.54636
-4.03536
-4.54305
-5.06837
-5.60954
-6.16403
-6.7285
-7.29887
-7.87033
-8.43741
-8.99411
-9.53404
-10.0507
-10.5376
-10.9889
-11.3991
-11.7639
-12.0797
-12.344
-12.5556
-12.7143
-12.821
-2.63086
-3.07423
-3.54099
-4.03127
-4.54473
-5.08036
-5.63636
-6.21009
-6.79803
-7.39572
-7.99778
-8.59797
-9.18933
-9.76437
-10.3154
-10.8348
-11.3155
-11.7512
-12.1368
-12.4681
-12.7422
-12.9578
-13.1148
-13.2146
-2.62429
-3.05815
-3.52055
-4.01168
-4.53127
-5.07839
-5.6513
-6.24736
-6.86289
-7.49307
-8.1319
-8.77221
-9.40585
-10.0239
-10.6172
-11.1765
-11.6935
-12.1606
-12.5716
-12.9219
-13.2079
-13.4281
-13.5828
-13.6737
-2.60065
-3.02271
-3.47926
-3.97051
-4.49631
-5.05588
-5.64767
-6.26919
-6.91672
-7.58515
-8.26782
-8.9565
-9.64152
-10.3122
-10.9572
-11.5656
-12.1271
-12.6326
-13.0749
-13.4482
-13.7487
-13.9744
-14.1258
-14.2054
-2.55386
-2.96152
-3.41039
-3.90067
-4.43233
-5.00491
-5.61726
-6.26725
-6.95139
-7.66445
-8.39912
-9.14593
-9.89332
-10.6282
-11.3368
-12.0054
-12.6214
-13.1741
-13.6546
-14.0562
-14.3742
-14.6063
-14.7533
-14.8184
-2.47693
-2.86733
-3.30632
-3.79398
-4.33052
-4.91595
-5.54988
-6.23094
-6.95627
-7.72085
-8.51686
-9.33341
-10.1566
-10.9702
-11.7568
-12.4994
-13.1825
-13.7929
-14.3202
-14.7565
-15.0959
-15.3357
-15.4767
-15.5234
-2.36199
-2.73216
-3.15871
-3.64151
-4.18102
-4.7781
-5.43352
-6.14737
-6.91808
-7.74141
-8.60939
-9.5096
-10.4251
-11.3354
-12.2183
-13.052
-13.8173
-14.4986
-15.0834
-15.5624
-15.9284
-16.1775
-16.3106
-16.3337
-2.20033
-2.54725
-2.9583
-3.43294
-3.97208
-4.57775
-5.25268
-5.99932
-6.81851
-7.70781
-8.6597
-9.6602
-10.6886
-11.7186
-12.7209
-13.6672
-14.5337
-15.3018
-15.9573
-16.4892
-16.8886
-17.1495
-17.2725
-17.2654
-1.98401
-2.30525
-2.69757
-3.15979
-3.69335
-4.30202
-4.9914
-5.76774
-6.63608
-7.59759
-8.64641
-9.76731
-10.9348
-12.1139
-13.2653
-14.3514
-15.3424
-16.2169
-16.9595
-17.5575
-17.9996
-18.2764
-18.3867
-18.3408
-1.70166
-1.99516
-2.36494
-2.80883
-3.32884
-3.93117
-4.62552
-5.42384
-6.33811
-7.37591
-8.53563
-9.80209
-11.1431
-12.5111
-13.8509
-15.1112
-16.2547
-17.2588
-18.1088
-18.79
-19.287
-19.5859
-19.6811
-19.5849
-1.35262
-1.61826
-1.96185
-2.37973
-2.87454
-3.45555
-4.13832
-4.94339
-5.89311
-7.00628
-8.28996
-9.73119
-11.2897
-12.8994
-14.4798
-15.958
-17.2872
-18.4477
-19.43
-20.2181
-20.7881
-21.1183
-21.1972
-21.0379
-0.91809
-1.15845
-1.47329
-1.85658
-2.31129
-2.85016
-3.49618
-4.28167
-5.24511
-6.42285
-7.83827
-9.4879
-11.3244
-13.2521
-15.1471
-16.9003
-18.4539
-19.8
-20.9435
-21.8694
-22.5396
-22.913
-22.9694
-22.7269
-22.241
-0.4298
-0.649565
-0.93254
-1.26929
-1.6622
-2.1273
-2.69612
-3.41526
-4.34592
-5.55632
-7.10319
-9.00492
-11.2082
-13.5688
-15.8827
-17.9795
-19.7943
-21.3531
-22.6934
-23.8027
-24.6216
-25.0712
-25.1012
-24.7376
-24.0779
0.150706
-0.0619957
-0.316423
-0.59828
-0.907611
-1.26197
-1.70083
-2.29017
-3.12371
-4.31791
-5.98709
-8.19702
-10.8999
-13.8785
-16.7732
-19.2886
-21.3715
-23.1385
-24.6963
-26.0349
-27.0615
-27.633
-27.6352
-27.1164
-26.231
0.710902
0.49346
0.266183
0.0500601
-0.150147
-0.350919
-0.597644
-0.975992
-1.6205
-2.71359
-4.46074
-7.02368
-10.3946
-14.25
-18.0119
-21.0956
-23.4597
-25.4062
-27.1865
-28.8071
-30.154
-30.8821
-30.7906
-30.006
-28.808
1.19995
0.940307
0.712783
0.545439
0.450566
0.417271
0.400435
0.305542
-0.0356759
-0.885626
-2.59089
-5.49913
-9.69459
-14.5958
-19.3915
-23.1458
-25.7705
-27.83
-29.8005
-31.6954
-33.8486
-34.9795
-34.6836
-33.49
-31.8497
1.11742
0.798301
0.565147
0.453105
0.484236
0.661217
0.954502
1.2797
1.45915
1.16834
-0.126848
-3.10381
-8.22632
-13.4456
-19.6243
-24.3074
-27.3697
-29.4619
-31.4773
-33.5327
-37.6786
-39.8651
-39.0989
-37.3716
-35.1945
-32.8057
0.14434
-0.0361337
-0.0435496
0.160143
0.601789
1.28792
2.18002
3.14621
3.88537
3.74153
1.6555
-3.76196
-11.6536
-21.1666
-28.4812
-31.8675
-33.884
-35.3285
-37.399
-39.3176
-43.5641
-41.6385
-39.3179
-36.2541
-33.0206
-0.907036
-0.809588
-0.440861
0.254533
1.32696
2.81165
4.68359
6.78853
8.72514
6.95543
3.59246
-5.47177
-17.9299
-29.8544
-40.6126
-39.6755
-37.3917
-38.683
-40.8011
-42.5877
-41.9454
-40.6477
-38.1987
-34.8239
-1.59084
-1.44995
-1.01372
-0.203444
1.06194
2.86122
5.25944
8.24096
11.5242
12.5752
12.9172
7.97338
0.252357
-18.339
-89.7194
-50.1327
-38.5087
-38.5856
-40.0444
-41.5947
-41.5061
-40.1359
-37.7936
-34.9467
-1.82792
-1.48921
-0.793066
0.327372
1.92049
3.99857
6.46206
8.99112
11.2754
12.0646
11.4755
11.0623
-38.5294
-39.3903
-40.4666
-42.7129
-42.9389
-40.8024
-37.9628
-34.6776
-40.7153
-42.4539
-44.1961
-45.2911
-43.0108
-39.1202
-35.1651
-42.0965
-46.3186
-44.9885
-41.8946
-38.3798
-43.2599
-42.6852
-40.5615
-38.1296
-3.32769
-5.17149
-7.84945
-11.3628
-15.3824
-19.2967
-22.4632
-24.7885
-26.5518
-28.0384
-29.3091
-30.2791
-30.6724
-30.2972
-29.2907
-27.959
-26.4856
-4.87644
-6.62502
-8.92579
-11.731
-14.816
-17.8005
-20.3576
-22.407
-24.0537
-25.4162
-26.5114
-27.2709
-27.5808
-27.3548
-26.6514
-25.6327
-24.452
-23.2017
-6.06153
-7.67026
-9.63961
-11.9137
-14.342
-16.7078
-18.823
-20.6074
-22.0803
-23.2842
-24.2207
-24.8463
-25.1025
-24.954
-24.441
-23.6678
-22.7392
-21.7313
-6.87913
-8.34111
-10.0392
-11.9231
-13.8924
-15.8152
-17.5725
-19.0976
-20.378
-21.4219
-22.2223
-22.752
-22.9819
-22.9029
-22.5404
-21.9584
-21.2311
-20.4187
-7.41727
-8.73573
-10.2111
-11.8007
-13.4349
-15.0281
-16.5016
-17.8039
-18.9128
-19.8201
-20.5149
-20.9812
-21.2036
-21.1771
-20.923
-20.4858
-19.9176
-19.2642
-7.7464
-8.93177
-10.2221
-11.5831
-12.9646
-14.3082
-15.5592
-16.6777
-17.6398
-18.4318
-19.0423
-19.4604
-19.6757
-19.6893
-19.5188
-19.195
-18.7546
-18.2317
-7.9321
-8.99958
-10.1368
-11.3167
-12.5023
-13.6523
-14.7271
-15.6953
-16.535
-17.2315
-17.7744
-18.1548
-18.3667
-18.4134
-18.3083
-18.0733
-17.7341
-17.3168
-8.01114
-8.97641
-9.98777
-11.0233
-12.0552
-13.0531
-13.9873
-14.8332
-15.5721
-16.1902
-16.6782
-17.0288
-17.2386
-17.3112
-17.2566
-17.0905
-16.8318
-16.5001
-8.01769
-8.89509
-9.80222
-10.7212
-11.6306
-12.5073
-13.329
-14.0758
-14.7322
-15.2863
-15.7297
-16.0565
-16.2648
-16.3573
-16.3418
-16.2296
-16.0349
-15.7725
-7.97395
-8.77641
-9.59704
-10.4212
-11.232
-12.0117
-12.7426
-13.4091
-13.9982
-14.4999
-14.9069
-15.2144
-15.421
-15.5289
-15.5437
-15.474
-15.3304
-15.1244
-7.89773
-8.63663
-9.38549
-10.1322
-10.8632
-11.5644
-12.2219
-12.8231
-13.3573
-13.8161
-14.1933
-14.4849
-14.6896
-14.8092
-14.8478
-14.8117
-14.7092
-14.549
-7.80159
-8.48684
-9.17611
-9.85929
-10.5254
-11.163
-11.7609
-12.309
-12.7984
-13.2221
-13.5748
-13.8532
-14.056
-14.1844
-14.2415
-14.2322
-14.1627
-14.0398
-7.69526
-8.33542
-8.97528
-9.60631
-10.2194
-10.8053
-11.3548
-11.8597
-12.3126
-12.7076
-13.0401
-13.3073
-13.5082
-13.6433
-13.715
-13.7269
-13.6839
-13.5915
-7.58591
-8.18839
-8.78738
-9.37561
-9.9455
-10.4893
-10.9995
-11.4692
-11.8923
-12.2638
-12.5797
-12.8376
-13.0365
-13.1766
-13.2597
-13.2886
-13.2671
-13.1994
-7.47904
-8.05023
-8.61557
-9.1688
-9.7035
-10.2132
-10.6915
-11.1327
-11.5315
-11.8837
-12.1861
-12.4362
-12.6332
-12.7771
-12.8692
-12.9115
-12.9072
-12.8596
-7.37873
-7.9242
-8.46205
-8.98685
-9.49307
-9.97515
-10.4277
-10.8459
-11.2251
-11.5618
-11.853
-12.0967
-12.2919
-12.4386
-12.5377
-12.5908
-12.6002
-12.5689
-7.28817
-7.81277
-8.32844
-8.83039
-9.31379
-9.77383
-10.2059
-10.6056
-10.9692
-11.2933
-11.5756
-11.814
-12.0077
-12.1565
-12.2609
-12.3224
-12.3428
-12.3244
-7.20964
-7.71765
-8.21578
-8.69971
-9.16516
-9.60789
-10.0238
-10.4091
-10.7603
-11.0747
-11.3498
-11.584
-11.7764
-11.9267
-12.0353
-12.1032
-12.1321
-12.1239
-7.14499
-7.64025
-8.12492
-8.59508
-9.04685
-9.4764
-9.88003
-10.2543
-10.5962
-10.903
-11.1726
-11.4036
-11.5949
-11.7462
-11.8579
-11.9308
-11.9661
-11.9657
-7.09536
-7.58135
-8.05626
-8.51646
-8.95834
-9.37837
-9.77315
-10.1395
-10.4746
-10.776
-11.0417
-11.2702
-11.4607
-11.6128
-11.7267
-11.8031
-11.8431
-11.8483
-7.06186
-7.54181
-8.01038
-8.46411
-8.89958
-9.31345
-9.70249
-10.0637
-10.3944
-10.6923
-10.9554
-11.1824
-11.3723
-11.5249
-11.6402
-11.7188
-11.7619
-11.7707
-7.04466
-7.52164
-7.98708
-8.43764
-8.86998
-9.28085
-9.66711
-10.0258
-10.3544
-10.6505
-10.9124
-11.1387
-11.3284
-11.4812
-11.5973
-11.6771
-11.7217
-11.7324
-2.52128
-2.99197
-3.46824
-3.94982
-4.43617
-4.9263
-5.41876
-5.91163
-6.4026
-6.88905
-7.36808
-7.83652
-8.29104
-8.72823
-9.14472
-9.53729
-9.90295
-10.239
-10.5431
-10.8135
-11.0485
-11.2473
-11.4095
-11.5351
-2.52691
-2.99715
-3.4734
-3.95538
-4.44254
-4.93389
-5.42797
-5.92285
-6.41618
-6.90528
-7.38718
-7.85867
-8.31636
-8.75673
-9.17632
-9.57181
-9.94012
-10.2785
-10.5844
-10.8561
-11.092
-11.2912
-11.4533
-11.5782
-2.53709
-3.00636
-3.48247
-3.96519
-4.45396
-4.94778
-5.44519
-5.94417
-6.44233
-6.93686
-7.42467
-7.90243
-8.36656
-8.8134
-9.23929
-9.64071
-10.0144
-10.3574
-10.6671
-10.9417
-11.1794
-11.3794
-11.5413
-11.6651
-2.55143
-3.01908
-3.4949
-3.97867
-4.46986
-4.96746
-5.46994
-5.97523
-6.48079
-6.98368
-7.48061
-7.968
-8.44205
-8.89883
-9.33439
-9.7449
-10.1268
-10.4769
-10.7925
-11.0715
-11.3121
-11.5133
-11.6749
-11.7969
-2.56841
-3.03372
-3.50901
-3.99413
-4.48855
-4.99123
-5.50061
-6.01449
-6.5302
-7.04457
-7.55403
-8.05472
-8.54246
-9.01296
-9.46186
-9.88493
-10.2782
-10.6382
-10.9619
-11.2468
-11.4913
-11.6943
-11.8555
-11.9751
-2.58655
-3.04862
-3.52303
-4.00969
-4.5081
-5.01722
-5.53537
-6.06028
-6.58906
-7.1183
-7.64407
-8.16209
-8.66774
-9.15618
-9.62255
-10.062
-10.4702
-10.8431
-11.1773
-11.4702
-11.7198
-11.925
-12.0856
-12.2019
-2.6035
-3.06122
-3.53426
-4.02258
-4.52572
-5.04261
-5.57154
-6.11006
-6.65512
-7.20294
-7.74921
-8.28913
-8.81745
-9.32868
-9.81723
-10.2776
-10.7047
-11.094
-11.4416
-11.7445
-12.0005
-12.2084
-12.3681
-12.4802
-2.61648
-3.06851
-3.53949
-4.02947
-4.538
-5.06404
-5.6058
-6.16074
-6.72553
-7.2961
-7.86761
-8.43462
-8.99112
-9.53074
-10.047
-10.5335
-10.9843
-11.394
-11.7583
-12.0736
-12.3375
-12.5487
-12.707
-12.8136
-2.62192
-3.06665
-3.53469
-4.02614
-4.54064
-5.07715
-5.63389
-6.20819
-6.79656
-7.39451
-7.99666
-8.59677
-9.18788
-9.76252
-10.313
-10.8318
-11.3118
-11.7469
-12.1317
-12.4622
-12.7357
-12.9507
-13.1072
-13.2067
-2.61556
-3.05106
-3.515
-4.00756
-4.52843
-5.07665
-5.65049
-6.24731
-6.8634
-7.49394
-8.13292
-8.77316
-9.4065
-10.0241
-10.6166
-11.1751
-11.6911
-12.1572
-12.5672
-12.9164
-13.2015
-13.4209
-13.5748
-13.6652
-2.59223
-3.01626
-3.47468
-3.96768
-4.49505
-5.05601
-5.64902
-6.27153
-6.91984
-7.5888
-8.27174
-8.96038
-9.64507
-10.3151
-10.9592
-11.5665
-12.1266
-12.6308
-13.0716
-13.4435
-13.7425
-13.967
-14.1173
-14.196
-2.54587
-2.9559
-3.40704
-3.89945
-4.43308
-5.00743
-5.62135
-6.2727
-6.95793
-7.67179
-8.40692
-9.1538
-9.90085
-10.635
-11.3424
-12.0094
-12.6237
-13.1744
-13.6529
-14.0524
-14.3684
-14.5987
-14.744
-14.8078
-2.46946
-2.86271
-3.30444
-3.79474
-4.33374
-4.92147
-5.55748
-6.24038
-6.96729
-7.73309
-8.5299
-9.34674
-10.1696
-10.9823
-11.7674
-12.5079
-13.1884
-13.7962
-14.3207
-14.7542
-15.0908
-15.3279
-15.4665
-15.511
-2.35512
-2.7287
-3.15858
-3.64461
-4.18724
-4.78728
-5.44549
-6.1619
-6.9349
-7.76015
-8.62953
-9.53046
-10.4459
-11.3551
-12.236
-13.0669
-13.8288
-14.5063
-15.0873
-15.5625
-15.9245
-16.1697
-16.2992
-16.319
-2.19401
-2.54499
-2.96007
-3.43872
-3.98179
-4.59132
-5.26999
-6.0202
-6.84275
-7.73505
-8.6894
-9.69155
-10.7204
-11.7494
-12.749
-13.6915
-14.5532
-15.3161
-15.9664
-16.4933
-16.8872
-17.1425
-17.26
-17.2477
-1.97813
-2.30417
-2.70134
-3.16848
-3.70699
-4.32066
-5.0151
-5.79653
-6.66989
-7.63615
-8.68926
-9.81359
-10.9828
-12.1612
-13.3092
-14.3896
-15.3735
-16.2407
-16.9763
-17.5678
-18.0025
-18.2709
-18.3727
-18.3185
-1.69572
-1.99493
-2.37059
-2.82053
-3.34677
-3.95555
-4.6567
-5.4623
-6.38408
-7.42948
-8.5966
-9.86941
-11.2145
-12.5827
-13.9179
-15.1695
-16.3023
-17.296
-18.1369
-18.8099
-19.2977
-19.584
-19.6653
-19.5559
-1.34731
-1.61968
-1.97032
-2.39554
-2.89805
-3.48722
-4.17883
-4.99358
-5.95404
-7.07906
-8.37548
-9.82916
-11.3974
-13.01
-14.5838
-16.0474
-17.3593
-18.5046
-19.4752
-20.2533
-20.8121
-21.1243
-21.1799
-20.9979
-0.911237
-1.15966
-1.48308
-1.87539
-2.3396
-2.8887
-3.54603
-4.34447
-5.32324
-6.52038
-7.9591
-9.63304
-11.4895
-13.4247
-15.3088
-17.0361
-18.5604
-19.8843
-21.0147
-21.9309
-22.5863
-22.9335
-22.9522
-22.6705
-22.1549
-0.425725
-0.655078
-0.948277
-1.29582
-1.70011
-2.17743
-2.75996
-3.49568
-4.4474
-5.68524
-7.26811
-9.21298
-11.4571
-13.8357
-16.1316
-18.1822
-19.9484
-21.4773
-22.808
-23.9133
-24.7104
-25.1098
-25.0741
-24.6497
-23.944
0.15775
-0.0680662
-0.335567
-0.630485
-0.952855
-1.32064
-1.77371
-2.37932
-3.2343
-4.4606
-6.18165
-8.47018
-11.2662
-14.2941
-17.1527
-19.5759
-21.5689
-23.2921
-24.8537
-26.2078
-27.2047
-27.6833
-27.5728
-26.9544
-26.0021
0.699496
0.4667
0.225457
-0.00193292
-0.21012
-0.415444
-0.662222
-1.03729
-1.68241
-2.79556
-4.60992
-7.32382
-10.9073
-14.9222
-18.6173
-21.5053
-23.6809
-25.5499
-27.366
-29.0438
-30.308
-30.8872
-30.6285
-29.7171
-28.4324
1.19909
0.915988
0.672859
0.499072
0.408917
0.396349
0.421936
0.389493
0.116392
-0.696358
-2.4696
-5.6777
-10.3555
-15.6343
-20.3799
-23.7717
-26.0164
-27.9564
-30.0832
-32.2052
-33.8535
-34.778
-34.3486
-32.9954
-31.2336
1.19571
0.84867
0.596853
0.479095
0.521916
0.734254
1.09548
1.53352
1.86537
1.70545
0.373132
-3.0193
-8.1824
-15.0991
-21.1672
-25.4309
-27.6546
-29.3118
-31.4024
-33.7313
-35.8269
-38.6477
-38.5396
-36.7585
-34.5377
-32.2169
0.0607674
-0.145176
-0.152349
0.0790715
0.582184
1.37359
2.42701
3.6284
4.61389
4.62867
1.37315
-3.95873
-14.9907
-25.4456
-32.8092
-31.7039
-32.0114
-34.8145
-37.4135
-39.5017
-41.0093
-41.723
-39.3298
-36.6086
-33.5633
-1.42599
-1.30654
-0.884257
-0.0940733
1.12727
2.82248
4.98744
7.43474
8.19695
9.28152
3.66003
-9.29236
-24.6329
-58.5072
-43.5604
-27.8505
-35.8028
-38.4126
-40.2259
-42.2069
-42.3021
-40.4803
-38.608
-35.4387
-2.07646
-1.93034
-1.46591
-0.58602
0.814368
2.86104
5.70149
9.40858
12.0529
16.3439
13.9306
1.74913
-39.6499
-41.5857
-42.0092
-40.6259
-38.0016
-35.5324
-2.35094
-1.95301
-1.15938
0.117838
1.95253
4.40708
7.48896
10.6179
14.8402
15.478
19.2674
-40.4774
-42.8511
-44.036
-41.7664
-38.5499
-35.376
-40.2848
-42.6121
-44.9951
-46.2697
-44.3034
-40.0996
-35.9123
-41.9185
-45.2452
-46.4462
-42.8455
-38.9196
-41.7311
-42.2416
-40.0573
-37.3249
-3.39195
-5.3034
-8.13299
-11.8611
-16.0413
-19.8781
-22.8369
-24.9772
-26.6992
-28.2717
-29.645
-30.5705
-30.8108
-30.2332
-29.0624
-27.6183
-26.0943
-5.00688
-6.80551
-9.18291
-12.0793
-15.2109
-18.1542
-20.6146
-22.5761
-24.1932
-25.5833
-26.7206
-27.474
-27.6988
-27.3484
-26.5311
-25.436
-24.2174
-22.9581
-6.18176
-7.82459
-9.83464
-12.1467
-14.5902
-16.9351
-19.0026
-20.74
-22.1892
-23.3947
-24.3409
-24.9573
-25.1699
-24.9563
-24.3779
-23.5534
-22.5953
-21.5769
-6.97073
-8.4545
-10.1749
-12.0766
-14.0511
-15.961
-17.6911
-19.1875
-20.4494
-21.4864
-22.2848
-22.8072
-23.0154
-22.8995
-22.4981
-21.8857
-21.1403
-20.3206
-7.48535
-8.81563
-10.3024
-11.9003
-13.5359
-15.1211
-16.5794
-17.8647
-18.9602
-19.8592
-20.549
-21.0078
-21.2145
-21.167
-20.8917
-20.4372
-19.8576
-19.1989
-7.79624
-8.98836
-10.2843
-11.6485
-13.0294
-14.3677
-15.6097
-16.7177
-17.6704
-18.4552
-19.06
-19.4706
-19.6757
-19.6774
-19.4949
-19.1608
-18.7132
-18.1866
-7.96772
-9.03905
-10.1792
-11.3602
-12.5447
-13.6908
-14.7598
-15.7211
-16.5541
-17.2448
-17.7825
-18.1568
-18.3619
-18.4015
-18.2892
-18.0479
-17.7044
-17.285
-8.03606
-9.00349
-10.0162
-11.0518
-12.0825
-13.0775
-14.0077
-14.849
-15.5831
-16.1968
-16.6805
-17.0266
-17.2319
-17.2999
-17.2409
-17.0709
-16.8096
-16.4765
-8.03462
-8.91322
-9.82087
-10.7395
-11.6478
-12.5224
-13.3411
-14.0847
-14.7376
-15.2883
-15.7285
-16.052
-16.2571
-16.3467
-16.3284
-16.214
-16.0177
-15.7547
-7.98478
-8.78791
-9.60872
-10.4325
-11.2423
-12.0203
-12.7491
-13.4132
-13.9998
-14.499
-14.9036
-15.2087
-15.4131
-15.5191
-15.5322
-15.4612
-15.3168
-15.1104
-7.90397
-8.64326
-9.39212
-10.1384
-10.8686
-11.5686
-12.2245
-12.824
-13.3563
-13.8133
-14.1888
-14.4787
-14.6819
-14.8002
-14.8377
-14.8009
-14.698
-14.5378
-7.80439
-8.48985
-9.17906
-9.86188
-10.5273
-11.164
-11.7608
-12.3076
-12.7957
-13.218
-13.5695
-13.8466
-14.0485
-14.176
-14.2325
-14.2228
-14.1531
-14.0303
-7.69546
-8.33576
-8.97554
-9.60627
-10.2189
-10.8041
-11.3528
-11.8567
-12.3086
-12.7026
-13.0343
-13.3007
-13.5008
-13.6354
-13.7067
-13.7185
-13.6755
-13.5833
-7.58418
-8.18674
-8.78566
-9.37366
-9.94316
-10.4865
-10.9961
-11.4651
-11.8874
-12.2582
-12.5735
-12.8309
-13.0293
-13.1692
-13.2521
-13.281
-13.2595
-13.192
-7.47585
-8.04711
-8.6124
-9.16546
-9.69987
-10.2092
-10.687
-11.1277
-11.526
-11.8778
-12.1797
-12.4295
-12.6262
-12.7699
-12.8619
-12.9044
-12.9002
-12.8529
-7.37447
-7.92
-8.45782
-8.98249
-9.4885
-9.97032
-10.4226
-10.8404
-11.2192
-11.5556
-11.8465
-12.09
-12.2851
-12.4317
-12.5308
-12.584
-12.5937
-12.5626
-7.28311
-7.80777
-8.32343
-8.8253
-9.30856
-9.76841
-10.2002
-10.5997
-10.963
-11.287
-11.569
-11.8073
-12.0009
-12.1497
-12.2543
-12.3159
-12.3365
-12.3185
-7.20401
-7.71208
-8.21021
-8.69409
-9.15946
-9.60205
-10.0178
-10.4029
-10.754
-11.0682
-11.3432
-11.5773
-11.7697
-11.9201
-12.0288
-12.097
-12.1261
-12.1182
-7.13895
-7.63427
-8.11896
-8.5891
-9.04081
-9.47027
-9.87379
-10.248
-10.5897
-10.8964
-11.166
-11.397
-11.5883
-11.7398
-11.8516
-11.9247
-11.9603
-11.9601
-7.08903
-7.57508
-8.05003
-8.51022
-8.95207
-9.37205
-9.76675
-10.133
-10.468
-10.7694
-11.035
-11.2636
-11.4542
-11.6064
-11.7205
-11.7971
-11.8373
-11.8428
-7.05535
-7.53537
-8.00398
-8.45772
-8.89317
-9.30701
-9.696
-10.0572
-10.3878
-10.6856
-10.9488
-11.1758
-11.3658
-11.5185
-11.634
-11.7129
-11.7562
-11.7653
-7.03805
-7.51511
-7.9806
-8.43116
-8.86349
-9.27433
-9.66054
-10.0192
-10.3478
-10.6439
-10.9058
-11.1321
-11.3219
-11.4749
-11.5911
-11.6712
-11.716
-11.727
-2.50336
-2.9749
-3.45197
-3.93427
-4.42126
-4.91196
-5.40488
-5.89813
-6.38938
-6.87603
-7.35516
-7.82364
-8.27813
-8.71525
-9.13163
-9.52408
-9.88962
-10.2256
-10.5296
-10.7999
-11.0349
-11.2339
-11.3962
-11.5221
-2.50897
-2.98011
-3.4572
-3.93994
-4.42777
-4.91971
-5.41427
-5.90953
-6.40314
-6.89242
-7.37443
-7.84595
-8.30358
-8.74386
-9.16333
-9.55869
-9.92687
-10.2651
-10.571
-10.8426
-11.0785
-11.2778
-11.4399
-11.5651
-2.51911
-2.98934
-3.46637
-3.94992
-4.43942
-4.93388
-5.43181
-5.9312
-6.42964
-6.92436
-7.41226
-7.89002
-8.35408
-8.80079
-9.22653
-9.62778
-10.0013
-10.3441
-10.6537
-10.9282
-11.1659
-11.3659
-11.5279
-11.6519
-2.53337
-3.00211
-3.47896
-3.96367
-4.45569
-4.954
-5.45706
-5.96279
-6.46868
-6.97176
-7.46877
-7.95613
-8.43008
-8.88668
-9.32203
-9.73231
-10.114
-10.4638
-10.7792
-11.058
-11.2985
-11.4997
-11.6613
-11.7835
-2.55027
-3.01684
-3.49332
-3.97952
-4.4749
-4.9784
-5.48844
-6.00284
-6.5189
-7.03348
-7.54303
-8.04366
-8.53125
-9.00151
-9.4501
-9.87283
-10.2658
-10.6254
-10.9487
-11.2334
-11.4777
-11.6805
-11.8416
-11.9613
-2.56834
-3.03189
-3.50771
-3.99564
-4.49518
-5.00525
-5.52419
-6.04971
-6.57892
-7.10839
-7.63424
-8.15218
-8.65761
-9.14572
-9.61165
-10.0507
-10.4583
-10.8307
-11.1644
-11.4568
-11.706
-11.911
-12.0714
-12.1877
-2.58525
-3.04475
-3.51945
-4.0093
-4.51378
-5.03183
-5.5617
-6.10096
-6.64652
-7.19464
-7.741
-8.2808
-8.80882
-9.3196
-9.80756
-10.2673
-10.6937
-11.0822
-11.429
-11.7312
-11.9866
-12.1941
-12.3534
-12.4654
-2.59826
-3.05243
-3.52541
-4.01722
-4.52739
-5.05483
-5.59775
-6.1536
-6.71903
-7.28997
-7.8616
-8.42845
-8.98455
-9.52357
-10.039
-10.5246
-10.9743
-11.383
-11.7462
-12.0605
-12.3235
-12.5339
-12.6917
-12.798
-2.60383
-3.05113
-3.52159
-4.01527
-4.53176
-5.07001
-5.62819
-6.20365
-6.79284
-7.39128
-7.99359
-8.59353
-9.18414
-9.75798
-10.3074
-10.8249
-11.3036
-11.7371
-12.1204
-12.4495
-12.7217
-12.9355
-13.0911
-13.19
-2.59772
-3.03632
-3.50321
-3.99848
-4.5218
-5.07219
-5.64786
-6.24616
-6.86335
-7.49458
-8.13382
-8.77389
-9.40661
-10.0231
-10.6143
-11.1711
-11.6852
-12.1492
-12.5572
-12.9043
-13.1875
-13.4052
-13.5577
-13.647
-2.57478
-3.00257
-3.46456
-3.96089
-4.49131
-5.05499
-5.65035
-6.27481
-6.9246
-7.59456
-8.27795
-8.96648
-9.65045
-10.3192
-10.9615
-11.5664
-12.124
-12.6253
-13.0632
-13.4323
-13.7286
-13.9506
-14.0988
-14.1759
-2.52897
-2.94355
-3.39903
-3.89554
-4.43297
-5.01078
-5.62776
-6.2817
-6.96901
-7.68435
-8.42028
-9.16719
-9.91347
-10.646
-11.351
-12.015
-12.6257
-13.1726
-13.6471
-14.0427
-14.3549
-14.5816
-14.7238
-14.785
-2.45325
-2.85197
-3.299
-3.79434
-4.33811
-4.93026
-5.57029
-6.25673
-6.98658
-7.75462
-8.55283
-9.37008
-10.1922
-11.003
-11.785
-12.5213
-13.1971
-13.7995
-14.3187
-14.7467
-15.078
-15.31
-15.444
-15.4846
-2.33971
-2.71987
-3.15618
-3.64845
-4.19707
-4.80281
-5.46634
-6.1876
-6.96485
-7.79355
-8.66537
-9.56743
-10.4824
-11.3894
-12.2663
-13.0915
-13.8468
-14.5171
-15.0907
-15.5585
-15.9131
-16.1511
-16.2739
-16.2876
-2.17929
-2.53811
-2.96099
-3.44733
-3.99796
-4.61486
-5.30063
-6.05757
-6.8863
-7.78399
-8.74257
-9.74732
-10.7765
-11.8031
-12.7974
-13.732
-14.5843
-15.3372
-15.9777
-16.4946
-16.8783
-17.1234
-17.2309
-17.2093
-1.9642
-2.29956
-2.70611
-3.18267
-3.73062
-4.35376
-5.05763
-5.8484
-6.73079
-7.70549
-8.76591
-9.89554
-11.0668
-12.243
-13.3837
-14.4528
-15.4229
-16.2761
-16.9986
-17.5772
-17.9981
-18.2519
-18.3388
-18.2704
-1.68152
-1.99181
-2.37882
-2.84032
-3.37839
-3.99928
-4.7129
-5.53133
-6.46627
-7.52489
-8.70459
-9.98773
-11.3385
-12.7051
-14.0301
-15.2644
-16.3766
-17.3505
-18.1743
-18.8318
-19.3019
-19.5673
-19.6256
-19.4934
-1.33416
-1.6191
-1.98293
-2.42192
-2.93884
-3.54317
-4.25085
-5.08289
-6.06212
-7.20746
-8.52524
-9.99895
-11.5812
-13.1953
-14.7542
-16.1896
-17.4687
-18.5855
-19.5349
-20.2964
-20.8353
-21.1188
-21.1379
-20.918
-0.897868
-1.16068
-1.49918
-1.90733
-2.38837
-2.95557
-3.63286
-4.45402
-5.45935
-6.6885
-8.1659
-9.88134
-11.7707
-13.7146
-15.5738
-17.2496
-18.7174
-19.9991
-21.1062
-22.0093
-22.6464
-22.9552
-22.9153
-22.5697
-22.0028
-0.414086
-0.660291
-0.970715
-1.33613
-1.75942
-2.2575
-2.86383
-3.62918
-4.61955
-5.90892
-7.55915
-9.58348
-11.8959
-14.296
-16.545
-18.4978
-20.1652
-21.6347
-22.9497
-24.0591
-24.8454
-25.191
-25.0573
-24.526
-23.74
0.152006
-0.0913914
-0.377483
-0.691599
-1.034
-1.4236
-1.90233
-2.54064
-3.44251
-4.74046
-6.57104
-9.01234
-11.9533
-15.0285
-17.7848
-20.0058
-21.8195
-23.4673
-25.0514
-26.4694
-27.4877
-27.8767
-27.5854
-26.7859
-25.7157
0.642273
0.390615
0.128658
-0.121104
-0.351116
-0.575756
-0.839592
-1.23339
-1.91108
-3.09898
-5.08004
-8.0907
-11.9943
-16.1601
-19.6403
-22.0685
-23.8769
-25.6433
-27.587
-29.4983
-30.8852
-31.2848
-30.6843
-29.4542
-27.9959
1.09146
0.798011
0.542528
0.355518
0.252082
0.23026
0.263386
0.26176
0.0236295
-0.808017
-2.80176
-6.63467
-11.9056
-17.716
-22.1093
-24.4995
-26.0261
-27.8354
-30.3293
-33.0921
-35.0586
-35.3712
-34.3762
-32.5899
-30.6295
0.983692
0.657156
0.425286
0.329823
0.401492
0.65536
1.0781
1.63188
2.15647
2.19075
0.840081
-3.63141
-10.1913
-18.006
-24.0656
-26.6221
-27.5074
-28.887
-31.632
-35.1009
-37.571
-38.0945
-37.8432
-35.8325
-33.5628
-31.3053
-0.149168
-0.35709
-0.347171
-0.0711786
0.518807
1.46236
2.76185
4.38254
6.07151
4.33292
2.23039
-7.35457
-22.8061
-30.43
-31.9699
-30.134
-30.0699
-33.4826
-38.2724
-43.8055
-42.4227
-40.2841
-38.2205
-35.958
-33.3772
-1.42798
-1.29406
-0.840166
0.0244995
1.40708
3.41581
6.10479
7.43192
11.3568
12.0537
2.10078
-30.6793
-53.1998
-52.1513
-42.1
-41.3624
-40.3567
-39.0669
-35.9436
-2.66039
-2.41034
-1.82139
-0.776982
0.847518
3.20713
6.43924
9.72946
16.111
19.6294
7.60534
-41.8791
-42.1459
-40.1825
-38.9476
-36.6972
-3.07521
-2.61659
-1.70159
-0.223713
1.91512
4.77642
9.0134
14.9507
19.419
18.4313
-45.43
-41.9075
-38.9866
-35.9089
-45.4661
-48.2925
-45.3146
-39.0102
-35.0802
-44.7223
-46.9724
-41.7289
-37.2775
-42.3227
-40.3684
-38.5776
-35.4401
-38.3626
-37.353
-35.391
-32.829
-3.68071
-5.75765
-8.87761
-12.9119
-17.2234
-20.8275
-23.3092
-25.0818
-26.731
-28.4874
-30.1665
-31.2874
-31.3817
-30.4548
-28.93
-27.27
-25.6636
-5.27507
-7.17983
-9.70359
-12.7339
-15.8998
-18.7287
-20.9786
-22.762
-24.3193
-25.7592
-26.996
-27.8088
-27.9726
-27.4486
-26.4392
-25.2101
-23.9293
-22.6572
-6.39594
-8.10283
-10.1872
-12.5606
-15.0174
-17.3078
-19.2727
-20.9125
-22.3113
-23.5162
-24.4861
-25.1136
-25.2882
-24.9838
-24.2979
-23.388
-22.382
-21.3473
-7.12968
-8.65
-10.4087
-12.339
-14.3173
-16.1978
-17.8736
-19.314
-20.5387
-21.5613
-22.3576
-22.8729
-23.0523
-22.8845
-22.4223
-21.7584
-20.9812
-20.1494
-7.60581
-8.95578
-10.4604
-12.0699
-13.7043
-15.2723
-16.7009
-17.9538
-19.0236
-19.9068
-20.5861
-21.0311
-21.2154
-21.1367
-20.8266
-20.3417
-19.7422
-19.0748
-7.88505
-9.08849
-10.3933
-11.7616
-13.1393
-14.4662
-15.6902
-16.7781
-17.7128
-18.4836
-19.0764
-19.4734
-19.6619
-19.6443
-19.4415
-19.0898
-18.6301
-18.098
-8.03169
-9.10947
-10.254
-11.436
-12.6173
-13.7556
-14.8129
-15.7608
-16.581
-17.2605
-17.7876
-18.1509
-18.3444
-18.3714
-18.2469
-17.9949
-17.6441
-17.2209
-8.08064
-9.05171
-10.0664
-11.1017
-12.1294
-13.1187
-14.041
-14.8732
-15.5981
-16.2032
-16.6786
-17.0162
-17.2132
-17.273
-17.2061
-17.0297
-16.7639
-16.4289
-8.06454
-8.94518
-9.85356
-10.7714
-11.677
-12.5474
-13.3606
-14.0977
-14.7439
-15.2882
-15.722
-16.0393
-16.2385
-16.3226
-16.2994
-16.181
-15.9822
-15.7181
-8.00356
-8.80782
-9.62877
-10.4516
-11.2593
-12.0341
-12.7588
-13.4182
-13.9999
-14.4943
-14.8942
-15.1949
-15.3952
-15.4974
-15.5074
-15.4341
-15.2883
-15.0816
-7.91437
-8.65427
-9.40301
-10.1484
-10.8769
-11.5744
-12.2273
-12.8233
-13.3522
-13.8056
-14.1776
-14.4643
-14.6647
-14.7806
-14.8161
-14.778
-14.6743
-14.5141
-7.80845
-8.49426
-9.18324
-9.86525
-10.5293
-11.1641
-11.7587
-12.303
-12.7884
-13.2082
-13.5572
-13.8321
-14.032
-14.158
-14.2133
-14.2028
-14.1329
-14.0104
-7.69478
-8.33526
-8.9748
-9.60486
-10.2164
-10.8002
-11.3472
-11.8493
-12.2993
-12.6914
-13.0213
-13.2862
-13.485
-13.6186
-13.6892
-13.7007
-13.6578
-13.5659
-7.57992
-8.1826
-8.78131
-9.36878
-9.93746
-10.4797
-10.9881
-11.4557
-11.8767
-12.2461
-12.5602
-12.8165
-13.0141
-13.1533
-13.2359
-13.2647
-13.2435
-13.1766
-7.46891
-8.04026
-8.60539
-9.15805
-9.69185
-10.2003
-10.6773
-11.117
-11.5143
-11.8651
-12.1662
-12.4153
-12.6114
-12.7549
-12.8468
-12.8893
-12.8855
-12.8387
-7.36554
-7.91115
-8.44886
-8.97324
-9.47879
-9.96003
-10.4116
-10.8287
-11.2069
-11.5425
-11.8329
-12.0759
-12.2707
-12.4172
-12.5164
-12.5698
-12.5799
-12.5494
-7.27271
-7.79744
-8.31304
-8.8147
-9.29764
-9.75707
-10.1884
-10.5874
-10.9502
-11.2737
-11.5554
-11.7934
-11.9869
-12.1357
-12.2404
-12.3024
-12.3235
-12.3059
-7.19252
-7.70068
-8.19879
-8.68254
-9.14767
-9.58997
-10.0054
-10.3901
-10.7409
-11.0548
-11.3296
-11.5636
-11.7559
-11.9064
-12.0154
-12.0839
-12.1135
-12.1062
-7.12669
-7.62212
-8.10681
-8.57687
-9.02842
-9.45767
-9.86096
-10.2349
-10.5764
-10.8829
-11.1524
-11.3833
-11.5747
-11.7264
-11.8385
-11.912
-11.9481
-11.9485
-7.07625
-7.56241
-8.03738
-8.49753
-8.93928
-9.35911
-9.75364
-10.1197
-10.4546
-10.7558
-11.0215
-11.2501
-11.4408
-11.5932
-11.7076
-11.7846
-11.8254
-11.8314
-7.04225
-7.52238
-7.99103
-8.44474
-8.88012
-9.29385
-9.68272
-10.0438
-10.3743
-10.6721
-10.9352
-11.1623
-11.3525
-11.5055
-11.6213
-11.7006
-11.7444
-11.754
-7.02478
-7.50195
-7.96749
-8.41804
-8.85031
-9.26105
-9.64717
-10.0058
-10.3342
-10.6303
-10.8922
-11.1186
-11.3086
-11.4619
-11.5784
-11.6589
-11.7042
-11.7158
-2.47653
-2.94929
-3.42752
-3.9109
-4.39885
-4.89038
-5.38401
-5.87781
-6.36949
-6.85641
-7.3357
-7.8042
-8.25862
-8.69558
-9.11179
-9.50406
-9.86942
-10.2052
-10.5091
-10.7794
-11.0145
-11.2135
-11.3762
-11.5024
-2.48213
-2.95455
-3.43285
-3.9167
-4.40553
-4.89834
-5.39363
-5.88946
-6.3835
-6.87307
-7.35522
-7.82675
-8.2843
-8.72441
-9.14367
-9.53881
-9.90677
-10.2448
-10.5505
-10.8221
-11.058
-11.2574
-11.4198
-11.5454
-2.49218
-2.96381
-3.44216
-3.92692
-4.4175
-4.9129
-5.4116
-5.91161
-6.4105
-6.90551
-7.39355
-7.8713
-8.33524
-8.78174
-9.20722
-9.60818
-9.9814
-10.3239
-10.6334
-10.9076
-11.1453
-11.3454
-11.5076