/*--------------------------------*- C++ -*----------------------------------*\
  =========                 |
  \\      /  F ield         | OpenFOAM: The Open Source CFD Toolbox
   \\    /   O peration     | Website:  https://openfoam.org
    \\  /    A nd           | Version:  13
     \\/     M anipulation  |
\*---------------------------------------------------------------------------*/
FoamFile
{
    format      ascii;
    class       volScalarField;
    location    "1000";
    object      p;
}
// * * * * * * * * * * * * * * * * * * * * * * * * * * * * * * * * * * * * * //

dimensions      [0 2 -2 0 0 0 0];

internalField   nonuniform List<scalar> 
173327
(
-10.659
-10.7146
-10.7369
-10.7272
-10.6873
-10.6189
-10.5241
-10.4053
-10.2649
-10.1053
-9.92864
-9.73701
-9.53228
-9.31629
-9.09087
-8.85775
-8.61847
-8.37441
-8.1268
-7.87681
-7.62559
-7.3742
-7.1236
-6.87464
-6.62803
-6.38448
-6.14452
-5.90861
-5.67708
-5.45019
-5.22826
-5.01158
-4.8004
-4.59489
-4.39511
-4.20126
-4.01337
-3.83153
-3.65557
-3.48532
-3.32065
-3.16156
-3.00815
-2.86034
-2.71798
-2.58078
-2.44841
-2.32067
-2.19732
-2.07842
-1.96382
-1.85355
-1.7473
-1.64498
-1.54623
-1.45103
-1.35918
-1.27073
-1.18538
-1.10279
-1.0227
-0.944902
-0.86962
-0.796835
-0.726755
-0.659137
-0.593979
-0.530905
-0.469892
-0.410629
-0.353212
-0.297484
-0.243642
-0.191638
-0.141565
-0.0932132
-0.0480323
-10.6999
-10.7539
-10.7744
-10.7628
-10.7206
-10.6499
-10.5527
-10.4313
-10.2883
-10.1262
-9.94705
-9.75307
-9.54614
-9.32812
-9.1008
-8.86588
-8.62491
-8.3793
-8.13028
-7.87903
-7.62667
-7.37425
-7.12271
-6.87289
-6.62553
-6.38128
-6.14073
-5.90431
-5.67238
-5.44519
-5.22303
-5.00618
-4.79487
-4.58924
-4.38941
-4.19548
-4.00757
-3.8257
-3.64978
-3.47962
-3.31508
-3.15616
-3.00286
-2.85517
-2.71291
-2.57583
-2.44365
-2.31608
-2.19299
-2.07426
-1.95986
-1.84968
-1.7436
-1.64137
-1.54279
-1.44768
-1.35598
-1.26759
-1.1823
-1.09982
-1.01983
-0.942254
-0.8671
-0.794499
-0.724463
-0.656963
-0.591821
-0.528882
-0.467929
-0.40885
-0.351543
-0.296026
-0.242313
-0.190475
-0.140483
-0.0924181
-0.0468721
-10.7824
-10.8336
-10.8506
-10.8349
-10.7884
-10.7129
-10.6108
-10.4845
-10.3365
-10.1694
-9.98549
-9.7869
-9.57563
-9.35354
-9.12242
-8.88393
-8.63964
-8.39094
-8.1391
-7.8853
-7.63063
-7.37613
-7.12272
-6.87121
-6.62233
-6.37674
-6.13499
-5.89754
-5.66473
-5.43684
-5.21413
-4.99686
-4.78522
-4.57934
-4.37932
-4.18527
-3.99728
-3.81536
-3.63945
-3.46939
-3.30505
-3.14636
-2.99332
-2.84584
-2.70379
-2.56694
-2.43502
-2.30779
-2.18506
-2.06671
-1.95265
-1.84278
-1.73697
-1.63501
-1.5367
-1.44185
-1.35037
-1.26214
-1.177
-1.09467
-1.01493
-0.937657
-0.86285
-0.790559
-0.720804
-0.653519
-0.588584
-0.525829
-0.465095
-0.406251
-0.349232
-0.294027
-0.240657
-0.189095
-0.139371
-0.091509
-0.0463141
-10.9076
-10.9545
-10.9661
-10.9442
-10.8909
-10.8082
-10.6986
-10.5646
-10.4091
-10.2344
-10.0432
-9.83767
-9.6198
-9.39152
-9.1546
-8.9107
-8.66137
-8.40802
-8.15192
-7.89424
-7.63608
-7.37843
-7.12218
-6.86813
-6.617
-6.36939
-6.12587
-5.88687
-5.65274
-5.42378
-5.20021
-4.98226
-4.7701
-4.56384
-4.36356
-4.16934
-3.98125
-3.7993
-3.62343
-3.45352
-3.28944
-3.1311
-2.97842
-2.83131
-2.68961
-2.55313
-2.42163
-2.29488
-2.17268
-2.05487
-1.94133
-1.83194
-1.72658
-1.62505
-1.52715
-1.43271
-1.3416
-1.25368
-1.16882
-1.08681
-1.00745
-0.930633
-0.856316
-0.784503
-0.715174
-0.648263
-0.583658
-0.521224
-0.460821
-0.402343
-0.345734
-0.290986
-0.238081
-0.186993
-0.137702
-0.090276
-0.0456998
-11.0767
-11.1176
-11.1218
-11.0914
-11.0287
-10.9361
-10.8162
-10.672
-10.5061
-10.3213
-10.1204
-9.90543
-9.67869
-9.44209
-9.19738
-8.94625
-8.6902
-8.43066
-8.16889
-7.90606
-7.64324
-7.38139
-7.12138
-6.86398
-6.60986
-6.35962
-6.11378
-5.87276
-5.63692
-5.40652
-5.18179
-4.96293
-4.75006
-4.54327
-4.34264
-4.1482
-3.96
-3.77804
-3.60226
-3.43256
-3.26881
-3.11089
-2.95868
-2.81206
-2.67086
-2.5349
-2.40396
-2.27782
-2.15628
-2.03915
-1.92627
-1.81752
-1.71276
-1.61181
-1.51447
-1.42058
-1.32998
-1.24254
-1.15813
-1.07658
-0.997736
-0.92148
-0.847753
-0.776515
-0.707721
-0.641298
-0.577148
-0.515156
-0.455212
-0.397226
-0.341154
-0.28698
-0.234678
-0.184204
-0.135561
-0.0888086
-0.0449659
-11.2917
-11.3247
-11.3193
-11.2778
-11.2029
-11.0974
-10.9644
-10.8068
-10.6277
-10.4301
-10.2166
-9.98982
-9.75185
-9.5047
-9.25017
-8.98992
-8.72544
-8.45815
-8.1893
-7.92003
-7.65139
-7.38431
-7.11962
-6.85805
-6.60024
-6.34675
-6.09807
-5.85459
-5.61664
-5.38448
-5.15832
-4.9383
-4.72454
-4.51711
-4.31604
-4.12135
-3.93306
-3.75113
-3.57552
-3.40611
-3.24277
-3.08537
-2.93374
-2.78774
-2.6472
-2.51192
-2.38171
-2.25634
-2.13559
-2.01928
-1.90722
-1.79927
-1.69527
-1.59505
-1.49844
-1.40525
-1.31532
-1.22853
-1.14474
-1.06382
-0.985612
-0.910025
-0.836978
-0.766406
-0.698249
-0.632429
-0.568861
-0.50745
-0.448103
-0.390749
-0.335349
-0.28188
-0.230315
-0.180625
-0.132819
-0.0869566
-0.044034
-11.5552
-11.5781
-11.5603
-11.5048
-11.4146
-11.2931
-11.1435
-10.9694
-10.774
-10.5605
-10.3318
-10.0905
-9.83881
-9.57885
-9.31241
-9.04113
-8.76651
-8.48992
-8.21259
-7.93563
-7.66005
-7.38674
-7.11649
-6.84998
-6.5878
-6.33048
-6.07846
-5.8321
-5.5917
-5.35748
-5.12963
-4.90827
-4.69348
-4.48529
-4.28373
-4.08877
-3.90041
-3.71858
-3.54321
-3.37419
-3.21136
-3.05458
-2.90367
-2.75844
-2.61872
-2.4843
-2.35497
-2.23052
-2.11073
-1.99538
-1.88429
-1.77729
-1.67421
-1.5749
-1.47916
-1.38683
-1.29774
-1.21175
-1.12874
-1.04858
-0.971141
-0.896326
-0.824048
-0.754232
-0.686809
-0.621706
-0.558844
-0.498144
-0.439532
-0.382949
-0.328357
-0.275731
-0.225051
-0.176306
-0.129518
-0.0847463
-0.0429528
-11.8705
-11.8806
-11.8474
-11.7745
-11.6654
-11.5241
-11.3544
-11.1602
-10.9451
-10.7125
-10.4655
-10.2069
-9.93897
-9.66384
-9.38335
-9.09912
-8.81263
-8.52518
-8.23799
-7.95211
-7.66849
-7.38799
-7.11132
-6.83912
-6.57194
-6.31024
-6.05442
-5.80479
-5.56161
-5.32507
-5.09532
-4.87245
-4.6565
-4.4475
-4.2454
-4.05019
-3.86179
-3.68013
-3.5051
-3.33658
-3.17439
-3.01837
-2.86831
-2.72402
-2.58529
-2.4519
-2.32364
-2.20028
-2.08159
-1.96737
-1.85741
-1.75152
-1.64954
-1.55129
-1.45659
-1.36527
-1.27716
-1.19213
-1.11005
-1.03079
-0.95424
-0.880305
-0.808893
-0.739931
-0.673346
-0.609071
-0.547037
-0.487178
-0.429433
-0.373755
-0.32011
-0.268471
-0.218831
-0.171196
-0.125603
-0.0821205
-0.0416689
-12.2415
-12.2357
-12.1835
-12.0891
-11.957
-11.7917
-11.5978
-11.3796
-11.141
-10.8858
-10.6173
-10.3384
-10.0516
-9.75885
-9.46212
-9.16299
-8.86287
-8.56304
-8.26462
-7.96861
-7.67591
-7.38728
-7.10339
-6.82481
-6.55203
-6.28545
-6.0254
-5.77216
-5.52592
-5.28683
-5.05501
-4.83051
-4.61333
-4.40346
-4.20084
-4.00539
-3.81702
-3.63562
-3.46106
-3.29316
-3.13176
-2.97665
-2.82761
-2.68443
-2.54687
-2.4147
-2.28769
-2.16561
-2.04822
-1.93529
-1.82662
-1.72202
-1.62129
-1.52426
-1.43075
-1.34059
-1.25362
-1.16969
-1.08868
-1.01045
-0.934917
-0.86197
-0.791528
-0.72352
-0.65788
-0.594543
-0.533454
-0.474557
-0.417807
-0.363166
-0.310601
-0.260097
-0.211654
-0.165295
-0.121078
-0.079079
-0.0401794
-12.6734
-12.6478
-12.5721
-12.4515
-12.2915
-12.0975
-11.8747
-11.6279
-11.3618
-11.0802
-10.7867
-10.4844
-10.1758
-9.86292
-9.54772
-9.2317
-8.91623
-8.60248
-8.2915
-7.9842
-7.6814
-7.38377
-7.09191
-6.80631
-6.52739
-6.25547
-5.99082
-5.73365
-5.48411
-5.2423
-5.00828
-4.78206
-4.56361
-4.35287
-4.14974
-3.95413
-3.76588
-3.58486
-3.41089
-3.24378
-3.08333
-2.9293
-2.78147
-2.63958
-2.50339
-2.37264
-2.24708
-2.12647
-2.01055
-1.89911
-1.79191
-1.68875
-1.58945
-1.49381
-1.40165
-1.31281
-1.22712
-1.14442
-1.06461
-0.987547
-0.913138
-0.841291
-0.771925
-0.704975
-0.640383
-0.578094
-0.518062
-0.460245
-0.404611
-0.351133
-0.299787
-0.250565
-0.203477
-0.158565
-0.115908
-0.0755928
-0.0384619
-13.1723
-13.1222
-13.0176
-12.8651
-12.6714
-12.443
-12.1859
-11.9057
-11.6073
-11.2951
-10.9729
-10.6438
-10.3104
-9.97489
-9.63894
-9.30405
-8.97148
-8.64231
-8.31748
-7.99779
-7.68393
-7.37649
-7.07598
-6.78278
-6.49722
-6.21956
-5.94999
-5.68864
-5.43562
-5.19095
-4.95465
-4.72668
-4.50696
-4.29539
-4.09183
-3.89614
-3.70814
-3.52764
-3.35443
-3.18828
-3.02897
-2.87623
-2.7298
-2.58942
-2.4548
-2.32568
-2.20178
-2.08285
-1.96861
-1.85884
-1.75329
-1.65176
-1.55405
-1.45996
-1.36931
-1.28193
-1.19766
-1.11634
-1.03785
-0.962073
-0.888906
-0.818267
-0.750083
-0.684294
-0.620852
-0.559715
-0.500848
-0.444223
-0.389821
-0.337628
-0.287634
-0.23984
-0.194271
-0.150984
-0.110078
-0.0716553
-0.036514
-13.7459
-13.6653
-13.5252
-13.3339
-13.0998
-12.8304
-12.5328
-12.2134
-11.8776
-11.5302
-11.1752
-10.8158
-10.4545
-10.0936
-9.73451
-9.37874
-9.02737
-8.68133
-8.34141
-8.00826
-7.68247
-7.36448
-7.05468
-6.75337
-6.46076
-6.17703
-5.90227
-5.63656
-5.37991
-5.1323
-4.89368
-4.66396
-4.44302
-4.23069
-4.02681
-3.83118
-3.64358
-3.46376
-3.2915
-3.12652
-2.96855
-2.81732
-2.67252
-2.53387
-2.40106
-2.27379
-2.15177
-2.03472
-1.92238
-1.81447
-1.71077
-1.61105
-1.5151
-1.42273
-1.33375
-1.24798
-1.16527
-1.08545
-1.00841
-0.93403
-0.862216
-0.792891
-0.725989
-0.661462
-0.599269
-0.539383
-0.481783
-0.426457
-0.373398
-0.32261
-0.274097
-0.227875
-0.183984
-0.142502
-0.103547
-0.0672364
-0.0343203
-14.4035
-14.2849
-14.101
-13.8626
-13.5798
-13.2617
-12.9165
-12.5514
-12.1724
-11.7848
-11.3925
-10.9989
-10.6065
-10.2173
-9.83285
-9.45422
-9.08238
-8.71807
-8.36189
-8.01433
-7.6758
-7.34661
-7.027
-6.71714
-6.41715
-6.12708
-5.84696
-5.57675
-5.3164
-5.06583
-4.82491
-4.5935
-4.37142
-4.15847
-3.95441
-3.75901
-3.57198
-3.39307
-3.22197
-3.05839
-2.90201
-2.75252
-2.6096
-2.47291
-2.34214
-2.21696
-2.09705
-1.98212
-1.87187
-1.76604
-1.66438
-1.56665
-1.47265
-1.38216
-1.295
-1.21099
-1.12996
-1.05178
-0.976303
-0.903433
-0.833076
-0.765163
-0.699641
-0.636468
-0.575619
-0.517079
-0.460844
-0.406916
-0.355308
-0.30604
-0.259135
-0.214627
-0.172574
-0.133076
-0.096272
-0.062306
-0.0318641
-15.1566
-14.9907
-14.753
-14.4573
-14.1159
-13.7399
-13.3387
-12.9205
-12.4919
-12.0583
-11.6239
-11.1921
-10.7651
-10.3448
-9.93253
-9.52907
-9.13514
-8.75124
-8.37772
-8.01487
-7.6629
-7.32193
-6.99206
-6.67331
-6.36567
-6.06908
-5.78345
-5.50867
-5.24461
-4.99109
-4.74794
-4.51494
-4.29185
-4.07842
-3.87437
-3.67939
-3.49317
-3.31539
-3.1457
-2.98377
-2.82923
-2.68175
-2.54097
-2.40651
-2.27804
-2.15519
-2.03763
-1.92505
-1.81712
-1.71358
-1.61415
-1.51861
-1.42672
-1.33827
-1.25309
-1.17097
-1.09177
-1.01534
-0.94155
-0.870295
-0.801496
-0.73509
-0.671036
-0.609305
-0.549887
-0.492781
-0.437998
-0.385562
-0.335505
-0.287866
-0.24269
-0.200033
-0.159976
-0.122646
-0.0882046
-0.0568276
-0.0291234
-16.0188
-15.7936
-15.4893
-15.1237
-14.7121
-14.2674
-13.8008
-13.321
-12.8354
-12.3496
-11.8679
-11.3934
-10.9282
-10.4739
-10.0314
-9.60119
-9.18365
-8.77894
-8.38713
-8.00826
-7.64227
-7.2891
-6.94866
-6.6208
-6.30537
-6.00218
-5.71103
-5.43172
-5.164
-4.90764
-4.66239
-4.42796
-4.20405
-3.99035
-3.78653
-3.59222
-3.40706
-3.23067
-3.06266
-2.90265
-2.75025
-2.60505
-2.46667
-2.33471
-2.20879
-2.08854
-1.97357
-1.86357
-1.75819
-1.65714
-1.56015
-1.46697
-1.37737
-1.29114
-1.20807
-1.12799
-1.05074
-0.976176
-0.904172
-0.834632
-0.767484
-0.702675
-0.640173
-0.579968
-0.522061
-0.466469
-0.413223
-0.362364
-0.313948
-0.268039
-0.224706
-0.184031
-0.146125
-0.111143
-0.079283
-0.0507592
-0.0260759
-17.0092
-16.7091
-16.3223
-15.8714
-15.3751
-14.849
-14.3055
-13.7544
-13.2034
-12.6584
-12.1236
-11.6018
-11.0947
-10.6035
-10.1284
-9.66961
-9.22701
-8.80037
-8.38941
-7.99383
-7.61332
-7.24756
-6.89626
-6.55908
-6.23572
-5.92585
-5.62917
-5.34535
-5.07408
-4.81501
-4.56781
-4.33214
-4.10763
-3.8939
-3.69056
-3.49719
-3.31337
-3.13867
-2.97265
-2.81487
-2.6649
-2.5223
-2.38664
-2.25748
-2.1344
-2.017
-1.90489
-1.79771
-1.69511
-1.59678
-1.50243
-1.4118
-1.32466
-1.2408
-1.16
-1.08209
-1.0069
-0.934312
-0.864195
-0.796462
-0.731048
-0.667914
-0.607042
-0.548433
-0.492109
-0.438103
-0.386466
-0.337262
-0.290572
-0.246485
-0.205102
-0.166533
-0.130923
-0.0984698
-0.0694146
-0.0440052
-0.0226536
-18.1485
-17.7531
-17.2637
-16.7086
-16.1106
-15.4876
-14.8537
-14.2197
-13.5938
-12.9818
-12.3875
-11.8133
-11.2604
-10.7293
-10.2195
-9.73054
-9.26176
-8.81243
-8.38181
-7.96922
-7.57402
-7.19563
-6.8335
-6.48711
-6.15598
-5.83963
-5.53761
-5.24949
-4.97485
-4.71328
-4.46438
-4.22771
-4.00285
-3.78936
-3.58678
-3.39464
-3.21246
-3.03974
-2.87599
-2.72073
-2.57348
-2.43375
-2.30107
-2.17497
-2.055
-1.94073
-1.83172
-1.72759
-1.62799
-1.53258
-1.44106
-1.35316
-1.26865
-1.18729
-1.10889
-1.03327
-0.960264
-0.889748
-0.821609
-0.755767
-0.692169
-0.630786
-0.571614
-0.514672
-0.459997
-0.407644
-0.357684
-0.310206
-0.265316
-0.223134
-0.183795
-0.147448
-0.11428
-0.084537
-0.0585071
-0.0364644
-0.0187737
-19.4715
-18.955
-18.337
-17.6541
-16.9332
-16.1947
-15.4545
-14.7243
-14.0125
-13.3245
-12.6635
-12.0312
-11.428
-10.8532
-10.3059
-9.78476
-9.28829
-8.81515
-8.36407
-7.93392
-7.52367
-7.13242
-6.75937
-6.40378
-6.06498
-5.74229
-5.4351
-5.14286
-4.86508
-4.60125
-4.35089
-4.11351
-3.8886
-3.67566
-3.47418
-3.28363
-3.10347
-2.93318
-2.77217
-2.6199
-2.47579
-2.33931
-2.20997
-2.08726
-1.97071
-1.85983
-1.7542
-1.65338
-1.557
-1.46471
-1.37621
-1.29122
-1.20949
-1.13078
-1.0549
-0.981676
-0.910944
-0.842582
-0.77649
-0.712597
-0.650863
-0.591275
-0.533846
-0.478612
-0.425631
-0.374977
-0.326745
-0.281048
-0.238019
-0.197813
-0.160597
-0.126569
-0.0959669
-0.0690957
-0.0463115
-0.0279361
-0.0142824
-20.3293
-19.5526
-18.7141
-17.8452
-16.9691
-16.1038
-15.2617
-14.4511
-13.677
-12.9418
-12.2461
-11.589
-10.9686
-10.3826
-9.82869
-9.30436
-8.80749
-8.33618
-7.88874
-7.46375
-7.05994
-6.6762
-6.31158
-5.96518
-5.63622
-5.32398
-5.02779
-4.74703
-4.48112
-4.22948
-3.99155
-3.76677
-3.55458
-3.35439
-3.16563
-2.98771
-2.82006
-2.66206
-2.51304
-2.37236
-2.23942
-2.11368
-1.99463
-1.88174
-1.7745
-1.67244
-1.57512
-1.48215
-1.39316
-1.30783
-1.22588
-1.14705
-1.07111
-0.997878
-0.927164
-0.858823
-0.792735
-0.728808
-0.666975
-0.607201
-0.549486
-0.493858
-0.440375
-0.389121
-0.340197
-0.293722
-0.249837
-0.208705
-0.170513
-0.13547
-0.103817
-0.0758546
-0.051963
-0.0325927
-0.0181632
-0.00892892
-21.9258
-20.95
-19.921
-18.8733
-17.8332
-16.8208
-15.8492
-14.9256
-14.0537
-13.2346
-12.4676
-11.7503
-11.0794
-10.4511
-9.86162
-9.30752
-8.78565
-8.29332
-7.82823
-7.3884
-6.97215
-6.57805
-6.20484
-5.85141
-5.5168
-5.20012
-4.90056
-4.61741
-4.34998
-4.09761
-3.85968
-3.63557
-3.42466
-3.22629
-3.03983
-2.86462
-2.69999
-2.54525
-2.39971
-2.26271
-2.13362
-2.01184
-1.89678
-1.78786
-1.68455
-1.58634
-1.49275
-1.40339
-1.31787
-1.23586
-1.15708
-1.08126
-1.00819
-0.937659
-0.869512
-0.803604
-0.739826
-0.678101
-0.618367
-0.560597
-0.5048
-0.45102
-0.399335
-0.349854
-0.302705
-0.25803
-0.215997
-0.176801
-0.140661
-0.107829
-0.0785919
-0.0533129
-0.0324629
-0.0166224
-0.00637859
-0.00200803
-23.7705
-22.5407
-21.272
-20.0013
-18.7581
-17.5674
-16.4436
-15.3926
-14.4157
-13.5112
-12.6747
-11.9007
-11.1832
-10.5161
-9.89399
-9.31214
-8.76653
-8.25383
-7.77125
-7.31643
-6.88739
-6.48244
-6.10011
-5.73912
-5.39833
-5.0767
-4.7733
-4.48732
-4.21797
-3.96453
-3.7263
-3.5026
-3.29274
-3.09603
-2.91175
-2.73918
-2.57758
-2.42621
-2.2843
-2.15115
-2.02603
-1.90829
-1.79728
-1.69238
-1.59304
-1.4987
-1.40888
-1.32315
-1.2411
-1.16241
-1.08678
-1.01395
-0.943674
-0.87577
-0.810072
-0.746453
-0.68482
-0.62511
-0.567292
-0.511364
-0.457357
-0.405336
-0.355395
-0.307655
-0.262253
-0.219349
-0.179138
-0.141836
-0.107699
-0.0770129
-0.050108
-0.0274067
-0.00947455
0.00295058
0.00901537
0.00819142
-25.9544
-24.4273
-22.8721
-21.3345
-19.8531
-18.4517
-17.1388
-15.9214
-14.8039
-13.7845
-12.8572
-12.0131
-11.2418
-10.5336
-9.87978
-9.27298
-8.70745
-8.17855
-7.68258
-7.21656
-6.77808
-6.36516
-5.97612
-5.60955
-5.26419
-4.93891
-4.63275
-4.34486
-4.0744
-3.82061
-3.58274
-3.36012
-3.15202
-2.95768
-2.77632
-2.60714
-2.44931
-2.30199
-2.16438
-2.03565
-1.91497
-1.80162
-1.69491
-1.59421
-1.49892
-1.40848
-1.32241
-1.24026
-1.16166
-1.08626
-1.01377
-0.943909
-0.876438
-0.811163
-0.747928
-0.686615
-0.627144
-0.569472
-0.513592
-0.459525
-0.407322
-0.357066
-0.308875
-0.262886
-0.219251
-0.178168
-0.13986
-0.104563
-0.072551
-0.0441016
-0.0195316
0.000709576
0.0159948
0.025463
0.0280285
0.0230269
-28.4164
-26.482
-24.5511
-22.6556
-20.9015
-19.3123
-17.8529
-16.5131
-15.289
-14.1747
-13.1652
-12.2508
-11.4198
-10.6611
-9.96451
-9.3219
-8.72665
-8.17332
-7.65732
-7.17491
-6.72298
-6.299
-5.90085
-5.52673
-5.17507
-4.84441
-4.53362
-4.24174
-3.96785
-3.71115
-3.47103
-3.24693
-3.03817
-2.84396
-2.66345
-2.4958
-2.34009
-2.19536
-2.06068
-1.93512
-1.81777
-1.70783
-1.60453
-1.50717
-1.41508
-1.32766
-1.24443
-1.165
-1.08903
-1.01617
-0.946101
-0.878544
-0.813249
-0.750025
-0.688718
-0.62921
-0.571433
-0.515359
-0.460998
-0.40839
-0.357601
-0.308722
-0.261874
-0.217207
-0.174916
-0.135244
-0.098456
-0.0648223
-0.0346128
-0.00808871
0.0144634
0.0326575
0.0459397
0.0535389
0.0545341
0.0489723
-28.8329
-26.5458
-24.1387
-21.9222
-19.9694
-18.2441
-16.736
-15.4135
-14.2453
-13.2128
-12.2908
-11.4578
-10.6977
-9.99776
-9.34834
-8.74353
-8.17897
-7.65091
-7.1563
-6.69262
-6.25772
-5.84974
-5.46711
-5.10831
-4.77197
-4.45739
-4.16329
-3.88803
-3.63039
-3.38975
-3.16567
-2.95752
-2.76439
-2.58538
-2.41964
-2.26619
-2.12398
-1.99192
-1.86893
-1.75407
-1.64654
-1.5456
-1.45047
-1.36041
-1.27477
-1.19309
-1.11505
-1.04036
-0.96875
-0.899882
-0.833454
-0.769223
-0.706991
-0.646596
-0.587917
-0.5309
-0.475546
-0.421889
-0.369979
-0.31988
-0.271671
-0.225452
-0.181383
-0.139713
-0.100735
-0.0647613
-0.0320905
-0.00296991
0.0223702
0.043699
0.0608027
0.073427
0.0813313
0.0847365
0.0882415
-28.6108
-26.8364
-25.0728
-23.0349
-20.9808
-19.1106
-17.4441
-15.9631
-14.6612
-13.528
-12.5285
-11.6343
-10.8276
-10.0971
-9.42994
-8.81305
-8.23879
-7.70303
-7.20238
-6.73411
-6.29571
-5.8849
-5.49977
-5.13838
-4.799
-4.47945
-4.17826
-3.89485
-3.62853
-3.37919
-3.14684
-2.93096
-2.73058
-2.54548
-2.37562
-2.21997
-2.07699
-1.94506
-1.82272
-1.70893
-1.60298
-1.50406
-1.41112
-1.32312
-1.23924
-1.15892
-1.08192
-1.00809
-0.937195
-0.86886
-0.802808
-0.73888
-0.676942
-0.616802
-0.558305
-0.501431
-0.446238
-0.392794
-0.341147
-0.291339
-0.243436
-0.197523
-0.153744
-0.112377
-0.0738288
-0.0385036
-0.0067086
0.0213523
0.0455527
0.0658351
0.0822378
0.0949604
0.104641
0.113474
0.13391
-29.8119
-27.5061
-25.451
-23.3341
-21.2882
-19.4094
-17.7188
-16.2026
-14.8624
-13.7044
-12.6859
-11.7762
-10.9562
-10.2118
-9.52962
-8.89843
-8.31096
-7.76219
-7.2484
-6.76688
-6.31549
-5.89217
-5.49499
-5.12253
-4.77322
-4.44475
-4.13631
-3.8483
-3.58092
-3.33344
-3.10463
-2.89347
-2.69922
-2.52011
-2.35363
-2.19826
-2.05352
-1.91983
-1.79697
-1.68307
-1.57627
-1.47564
-1.38043
-1.28991
-1.20354
-1.12128
-1.04322
-0.969443
-0.899653
-0.833015
-0.768934
-0.707084
-0.647139
-0.588648
-0.531378
-0.475431
-0.420989
-0.368216
-0.317181
-0.267926
-0.220516
-0.175
-0.131457
-0.0902349
-0.0519721
-0.017218
0.0137154
0.0407109
0.0637519
0.0829229
0.0984887
0.111064
0.122151
0.135823
0.172068
-30.356
-27.81
-25.4506
-23.232
-21.1736
-19.3045
-17.6329
-16.1493
-14.8506
-13.7127
-12.7047
-11.8023
-10.9878
-10.2468
-9.56659
-8.93662
-8.3492
-7.79939
-7.28402
-6.7998
-6.34381
-5.91457
-5.51143
-5.13323
-4.77835
-4.44526
-4.13313
-3.84162
-3.57044
-3.31863
-3.08464
-2.86716
-2.66527
-2.4779
-2.30396
-2.14261
-1.99321
-1.8553
-1.72844
-1.61196
-1.50476
-1.40575
-1.31396
-1.22842
-1.14854
-1.07345
-1.00208
-0.933487
-0.866878
-0.801821
-0.73805
-0.67557
-0.614365
-0.55457
-0.496517
-0.440434
-0.386402
-0.334433
-0.28442
-0.236291
-0.189948
-0.145201
-0.101839
-0.060644
-0.0228975
0.0107653
0.0401718
0.0653742
0.0864484
0.103541
0.116973
0.127498
0.137079
0.151163
0.192461
-29.8006
-26.8797
-24.2834
-22.0407
-20.0579
-18.3169
-16.7974
-15.4649
-14.295
-13.2592
-12.3335
-11.4975
-10.7351
-10.0341
-9.38454
-8.77875
-8.20984
-7.67457
-7.17238
-6.69987
-6.25305
-5.83067
-5.43256
-5.05828
-4.70657
-4.37627
-4.06656
-3.77702
-3.50685
-3.25509
-3.02091
-2.80342
-2.60171
-2.41486
-2.24199
-2.08212
-1.93419
-1.79718
-1.67038
-1.55324
-1.44495
-1.34465
-1.25151
-1.16467
-1.08344
-1.00698
-0.934396
-0.864486
-0.796528
-0.730555
-0.666446
-0.603906
-0.542877
-0.483602
-0.426299
-0.371088
-0.318239
-0.268087
-0.220471
-0.174808
-0.130675
-0.0883395
-0.0486804
-0.0123572
0.0204252
0.0494738
0.0746685
0.095934
0.113297
0.126921
0.137152
0.14463
0.150606
0.159724
0.192323
-30.0193
-26.5793
-23.3852
-20.6396
-18.4592
-16.7099
-15.275
-14.0714
-13.0431
-12.148
-11.3552
-10.6409
-9.98697
-9.38123
-8.81477
-8.2812
-7.7755
-7.29426
-6.83583
-6.39894
-5.98267
-5.58677
-5.21093
-4.85511
-4.51928
-4.20297
-3.90558
-3.62655
-3.36503
-3.12047
-2.89267
-2.68112
-2.48519
-2.30394
-2.13634
-1.98154
-1.83871
-1.70703
-1.58561
-1.47336
-1.36916
-1.27191
-1.18082
-1.09545
-1.01527
-0.93961
-0.867726
-0.798951
-0.732854
-0.669221
-0.607739
-0.547961
-0.489529
-0.432125
-0.375685
-0.320566
-0.267171
-0.215919
-0.167126
-0.120746
-0.0767615
-0.0355682
0.0019106
0.0354459
0.06537
0.0916392
0.114146
0.132892
0.147845
0.159018
0.166551
0.170661
0.171448
0.170936
0.18083
-33.9673
-31.5192
-28.134
-24.497
-21.2561
-18.7037
-16.7073
-15.0967
-13.7545
-12.6176
-11.6439
-10.7991
-10.0569
-9.39385
-8.79194
-8.23793
-7.72296
-7.24141
-6.78673
-6.35247
-5.93725
-5.54195
-5.16717
-4.81237
-4.47711
-4.16166
-3.86579
-3.58874
-3.3296
-3.08741
-2.86174
-2.65241
-2.45888
-2.2803
-2.11569
-1.96397
-1.82414
-1.6952
-1.57599
-1.46543
-1.36252
-1.26633
-1.17607
-1.09117
-1.01122
-0.935728
-0.864131
-0.795879
-0.730507
-0.667673
-0.607198
-0.548866
-0.4923
-0.437209
-0.383344
-0.330486
-0.278624
-0.227695
-0.177525
-0.128572
-0.0816499
-0.0374248
0.00369396
0.0411416
0.0746019
0.104121
0.129177
0.149707
0.166126
0.178401
0.186331
0.189715
0.188305
0.181694
0.170148
0.157308
-33.8944
-31.0179
-27.698
-24.3083
-21.3719
-19.0582
-17.1908
-15.597
-14.1973
-12.9685
-11.8878
-10.9315
-10.0816
-9.32292
-8.64084
-8.02347
-7.46475
-6.96264
-6.50129
-6.06187
-5.64218
-5.24393
-4.86714
-4.51132
-4.17615
-3.8617
-3.56817
-3.29508
-3.04132
-2.80595
-2.58826
-2.38774
-2.20383
-2.03547
-1.88156
-1.74094
-1.61239
-1.49466
-1.38648
-1.2867
-1.19441
-1.10879
-1.02908
-0.954617
-0.884719
-0.818729
-0.755997
-0.695976
-0.638137
-0.58202
-0.527327
-0.473853
-0.421382
-0.369799
-0.319025
-0.269045
-0.220002
-0.172121
-0.125601
-0.0806794
-0.0376892
0.00304881
0.0412131
0.0763424
0.108068
0.136139
0.160179
0.179836
0.194816
0.204802
0.209438
0.20828
0.200737
0.185829
0.162
0.129036
-31.0094
-28.4079
-25.685
-22.9972
-20.5705
-18.4951
-16.7241
-15.1949
-13.8697
-12.7187
-11.7119
-10.8214
-10.0264
-9.3088
-8.65121
-8.04086
-7.46853
-6.92163
-6.39712
-5.90261
-5.43961
-5.00678
-4.60217
-4.22463
-3.87378
-3.55034
-3.25498
-2.98602
-2.73938
-2.51219
-2.30393
-2.11402
-1.9413
-1.78428
-1.64137
-1.51133
-1.39306
-1.2853
-1.18679
-1.09641
-1.01318
-0.9363
-0.865084
-0.798858
-0.736887
-0.678473
-0.62307
-0.57012
-0.519019
-0.469366
-0.420966
-0.373658
-0.327206
-0.281392
-0.236125
-0.191383
-0.147232
-0.103888
-0.0616231
-0.020695
0.0186003
0.0559601
0.0910198
0.123317
0.152405
0.177795
0.198976
0.215465
0.22679
0.232456
0.231911
0.224471
0.209229
0.184736
0.148408
0.0971449
-28.8774
-26.6869
-24.4483
-22.2359
-20.1591
-18.2928
-16.6468
-15.1953
-13.9088
-12.7619
-11.733
-10.8043
-9.96192
-9.19386
-8.48904
-7.8382
-7.23393
-6.67064
-6.14711
-5.66248
-5.21276
-4.79391
-4.40314
-4.03865
-3.69894
-3.38193
-3.08528
-2.80824
-2.55233
-2.31848
-2.10552
-1.91176
-1.73556
-1.57574
-1.43126
-1.30118
-1.18443
-1.07909
-0.983379
-0.896321
-0.817024
-0.744625
-0.678345
-0.617508
-0.561344
-0.508998
-0.459742
-0.412928
-0.368077
-0.324848
-0.282952
-0.242064
-0.201851
-0.162018
-0.122464
-0.0831888
-0.0442735
-0.00590143
0.031673
0.0681283
0.103045
0.136039
0.166699
0.19449
0.218864
0.239307
0.255289
0.266232
0.271517
0.270478
0.26238
0.246318
0.221072
0.18476
0.134161
0.0628747
-25.3261
-23.3759
-21.4566
-19.6335
-17.956
-16.4384
-15.0698
-13.8328
-12.7124
-11.6951
-10.7685
-9.92144
-9.14405
-8.42758
-7.76438
-7.14794
-6.57329
-6.03694
-5.53608
-5.06835
-4.63164
-4.22424
-3.84483
-3.49229
-3.1656
-2.86398
-2.58713
-2.33483
-2.10598
-1.89877
-1.71145
-1.54235
-1.38976
-1.25208
-1.12769
-1.01503
-0.913401
-0.822115
-0.739844
-0.665395
-0.597654
-0.535602
-0.478524
-0.425679
-0.376247
-0.329552
-0.285059
-0.242392
-0.201226
-0.16127
-0.122236
-0.0838581
-0.0459362
-0.00838049
0.0288088
0.0655255
0.101586
0.136756
0.170698
0.202945
0.232963
0.260192
0.28411
0.30421
0.320015
0.330944
0.33627
0.335182
0.326822
0.310268
0.284451
0.247909
0.198386
0.132124
0.0399467
-24.3564
-22.6215
-20.9188
-19.2892
-17.7638
-16.3542
-15.0581
-13.8673
-12.7728
-11.7657
-10.8369
-9.97838
-9.1827
-8.44384
-7.75643
-7.11583
-6.51822
-5.96066
-5.44099
-4.95746
-4.50831
-4.09173
-3.70597
-3.34948
-3.02084
-2.71873
-2.44194
-2.1892
-1.95908
-1.75007
-1.5607
-1.38953
-1.23513
-1.09617
-0.971405
-0.859609
-0.759679
-0.670359
-0.590276
-0.518159
-0.452915
-0.393515
-0.338824
-0.288099
-0.240983
-0.196929
-0.15534
-0.115712
-0.0776243
-0.0406357
-0.00433498
0.0314702
0.0668269
0.101761
0.136246
0.170156
0.203322
0.235531
0.266481
0.295761
0.322858
0.347233
0.36829
0.385394
0.397861
0.404948
0.405796
0.399426
0.3848
0.360787
0.326092
0.279094
0.217602
0.138454
0.0350759
-23.602
-22.0262
-20.4768
-18.9832
-17.5668
-16.2383
-14.9993
-13.8467
-12.7752
-11.7788
-10.8518
-9.98862
-9.1841
-8.43383
-7.73384
-7.08056
-6.47089
-5.90222
-5.37236
-4.87936
-4.42142
-3.99681
-3.60384
-3.24094
-2.90666
-2.59964
-2.3186
-2.0623
-1.82938
-1.61836
-1.42776
-1.25607
-1.10179
-0.963446
-0.839579
-0.728838
-0.629933
-0.541585
-0.462547
-0.391691
-0.327999
-0.270445
-0.217928
-0.169541
-0.124597
-0.0825031
-0.0427347
-0.004783
0.0318358
0.067506
0.102443
0.136765
0.170542
0.203817
0.236602
0.268816
0.300243
0.330567
0.359449
0.386501
0.411231
0.433062
0.451341
0.465337
0.474261
0.477283
0.473466
0.461703
0.440791
0.409439
0.366238
0.309612
0.237834
0.149163
0.0420655
-23.0344
-21.5734
-20.1335
-18.7378
-17.4025
-16.1371
-14.9447
-13.8247
-12.7742
-11.7896
-10.8673
-10.0033
-9.19416
-8.43665
-7.72777
-7.06482
-6.44532
-5.8671
-5.32819
-4.8268
-4.36125
-3.92988
-3.53108
-3.16328
-2.82497
-2.5147
-2.23108
-1.97266
-1.73796
-1.52542
-1.33351
-1.16071
-1.00549
-0.866365
-0.741914
-0.630776
-0.531641
-0.44322
-0.364281
-0.293657
-0.230269
-0.1731
-0.121135
-0.0734476
-0.0293146
0.0118612
0.0506423
0.0875605
0.123095
0.157603
0.19132
0.224416
0.257001
0.28914
0.320792
0.351809
0.381972
0.410982
0.438494
0.464094
0.487257
0.50735
0.523651
0.535351
0.541559
0.541349
0.533697
0.517412
0.491163
0.453558
0.403176
0.338625
0.25874
0.163193
0.0542956
-22.5941
-21.2138
-19.8501
-18.5229
-17.2457
-16.0266
-14.8696
-13.7753
-12.7424
-11.7691
-10.8528
-9.99104
-9.18125
-8.42108
-7.70826
-7.04065
-6.41623
-5.8331
-5.28948
-4.78365
-4.314
-3.87892
-3.47682
-3.10614
-2.76533
-2.45289
-2.1673
-1.90713
-1.67087
-1.45699
-1.26397
-1.09027
-0.934373
-0.794798
-0.670102
-0.558891
-0.459807
-0.371533
-0.292825
-0.22249
-0.159422
-0.102606
-0.0510711
-0.00391494
0.0396249
0.0802012
0.118413
0.154803
0.189816
0.223773
0.256908
0.289425
0.321469
0.35304
0.384065
0.414416
0.443892
0.472208
0.498978
0.523732
0.545913
0.56486
0.579828
0.589976
0.594362
0.591954
0.581606
0.562032
0.531825
0.489533
0.433749
0.363262
0.277397
0.176907
0.0661436
-22.2918
-20.9611
-19.6448
-18.3606
-17.1206
-15.9323
-14.7995
-13.7236
-12.7043
-11.7405
-10.8304
-9.9722
-9.164
-8.40392
-7.69014
-7.02087
-6.39437
-5.80896
-5.26299
-4.75487
-4.28303
-3.84592
-3.44201
-3.06974
-2.72762
-2.4141
-2.12769
-1.86689
-1.63017
-1.41595
-1.2227
-1.04883
-0.89284
-0.753226
-0.628543
-0.517375
-0.418351
-0.330159
-0.251556
-0.181357
-0.118446
-0.0617801
-0.0103979
0.0365737
0.0799211
0.120316
0.158347
0.194544
0.229352
0.263109
0.296065
0.328414
0.360268
0.391633
0.422445
0.452562
0.481737
0.509687
0.536059
0.560364
0.582032
0.600395
0.61467
0.623979
0.627357
0.623706
0.611796
0.590264
0.557648
0.512471
0.453341
0.379169
0.28963
0.186283
0.0745696
-22.1038
-20.7975
-19.5052
-18.2435
-17.0238
-15.8531
-14.735
-13.671
-12.6613
-11.705
-10.8006
-9.94668
-9.14154
-8.38357
-7.67114
-7.00267
-6.37659
-5.79134
-5.24539
-4.73721
-4.26529
-3.82811
-3.42416
-3.05193
-2.7099
-2.39656
-2.11039
-1.84987
-1.61345
-1.39952
-1.20654
-1.03296
-0.877263
-0.737952
-0.613585
-0.502743
-0.404055
-0.316205
-0.237937
-0.168051
-0.105418
-0.0489996
0.00215728
0.0489204
0.092078
0.132322
0.170242
0.206368
0.241142
0.274897
0.307903
0.340338
0.372287
0.403768
0.434717
0.464979
0.494302
0.52238
0.548838
0.573178
0.594843
0.613203
0.627429
0.636612
0.639782
0.635787
0.623337
0.601037
0.567443
0.521115
0.460689
0.38514
0.294304
0.189432
0.0775821
-22.0546
-20.7464
-19.4544
-18.1946
-16.9781
-15.8111
-14.6973
-13.6379
-12.6327
-11.6807
-10.7806
-9.93053
-9.12895
-8.37417
-7.66457
-6.99859
-6.37471
-5.79142
-5.24722
-4.74062
-4.27015
-3.8343
-3.4316
-3.06055
-2.71964
-2.40736
-2.12219
-1.86261
-1.62702
-1.41387
-1.2216
-1.04868
-0.893591
-0.754854
-0.631024
-0.520683
-0.422448
-0.334992
-0.257042
-0.187394
-0.124928
-0.0686065
-0.0174789
0.0293235
0.072584
0.112985
0.151111
0.187488
0.222555
0.256636
0.289998
0.322821
0.355188
0.387127
0.418581
0.44939
0.479305
0.507993
0.535077
0.560108
0.582501
0.601569
0.616505
0.626419
0.630315
0.627051
0.615346
0.593819
0.561032
0.515551
0.45603
0.38146
0.291663
0.187839
0.0768075
-22.1385
-20.8029
-19.4881
-18.2106
-16.9807
-15.8045
-14.685
-13.6228
-12.6171
-11.6664
-10.7688
-9.92209
-9.12431
-8.37354
-7.66796
-7.0059
-6.38576
-5.80601
-5.26512
-4.76161
-4.29401
-3.86082
-3.4606
-3.09185
-2.75312
-2.44288
-2.15958
-1.90165
-1.66753
-1.45569
-1.26458
-1.09271
-0.938566
-0.800686
-0.677637
-0.568008
-0.470409
-0.383489
-0.305956
-0.236607
-0.174336
-0.118111
-0.0669888
-0.0201089
0.0233082
0.0639416
0.102386
0.13915
0.174669
0.209287
0.243255
0.276735
0.309802
0.342493
0.374777
0.406494
0.437398
0.467166
0.495401
0.521621
0.545242
0.565584
0.581877
0.593237
0.598673
0.597096
0.587276
0.567884
0.537509