/*--------------------------------*- C++ -*----------------------------------*\
  =========                 |
  \\      /  F ield         | OpenFOAM: The Open Source CFD Toolbox
   \\    /   O peration     | Website:  https://openfoam.org
    \\  /    A nd           | Version:  13
     \\/     M anipulation  |
\*---------------------------------------------------------------------------*/
FoamFile
{
    format      ascii;
    class       volScalarField;
    location    "100";
    object      k;
}
// * * * * * * * * * * * * * * * * * * * * * * * * * * * * * * * * * * * * * //

dimensions      [0 2 -2 0 0 0 0];

internalField   nonuniform List<scalar> 
173327
(
0.275239
0.27405
0.272877
0.27172
0.27058
0.269456
0.268348
0.267256
0.266179
0.265116
0.264067
0.263031
0.262007
0.260994
0.259991
0.258998
0.258013
0.257036
0.256066
0.255104
0.254147
0.253196
0.252251
0.251311
0.250375
0.249445
0.24852
0.2476
0.246685
0.245776
0.244872
0.243975
0.243084
0.2422
0.241324
0.240456
0.239596
0.238745
0.237904
0.237073
0.236254
0.235446
0.23465
0.233867
0.233097
0.232341
0.231599
0.230871
0.230159
0.229463
0.228783
0.228118
0.227471
0.22684
0.226226
0.22563
0.225051
0.22449
0.223945
0.223417
0.222905
0.222411
0.221935
0.221476
0.221034
0.22061
0.220202
0.219812
0.219438
0.219081
0.21874
0.218416
0.218107
0.217815
0.217537
0.217274
0.21702
0.27531
0.274124
0.272954
0.2718
0.270663
0.269542
0.268438
0.267349
0.266275
0.265215
0.264169
0.263136
0.262115
0.261105
0.260105
0.259114
0.258133
0.257159
0.256192
0.255232
0.254278
0.25333
0.252388
0.25145
0.250518
0.24959
0.248667
0.24775
0.246837
0.245931
0.24503
0.244135
0.243247
0.242365
0.241491
0.240625
0.239768
0.23892
0.238082
0.237254
0.236437
0.235631
0.234838
0.234058
0.233292
0.232539
0.231801
0.231077
0.230369
0.229678
0.229002
0.228343
0.227701
0.227076
0.226468
0.225878
0.225306
0.224752
0.224215
0.223695
0.223194
0.22271
0.222244
0.221795
0.221364
0.220951
0.220554
0.220175
0.219812
0.219465
0.219135
0.218821
0.218523
0.218241
0.217974
0.217721
0.217476
0.275442
0.27426
0.273095
0.271945
0.270813
0.269696
0.268596
0.267511
0.266442
0.265386
0.264344
0.263315
0.262298
0.261292
0.260296
0.259309
0.258331
0.257361
0.256397
0.255441
0.25449
0.253545
0.252605
0.251671
0.250741
0.249816
0.248896
0.247981
0.247071
0.246167
0.245268
0.244375
0.243489
0.24261
0.241738
0.240874
0.240019
0.239173
0.238337
0.237511
0.236696
0.235893
0.235103
0.234325
0.233562
0.232812
0.232077
0.231357
0.230653
0.229965
0.229293
0.228639
0.228002
0.227382
0.226779
0.226195
0.225629
0.225081
0.22455
0.224038
0.223544
0.223068
0.22261
0.22217
0.221748
0.221343
0.220955
0.220585
0.220231
0.219894
0.219574
0.21927
0.218981
0.218708
0.21845
0.218207
0.217971
0.27565
0.274475
0.273315
0.272172
0.271046
0.269935
0.268841
0.267762
0.266698
0.265648
0.264611
0.263587
0.262575
0.261573
0.260582
0.259599
0.258625
0.257658
0.256698
0.255744
0.254797
0.253854
0.252917
0.251985
0.251058
0.250135
0.249218
0.248305
0.247397
0.246495
0.245598
0.244707
0.243823
0.242946
0.242076
0.241214
0.240361
0.239517
0.238684
0.23786
0.237048
0.236248
0.235461
0.234686
0.233926
0.23318
0.232449
0.231733
0.231033
0.23035
0.229683
0.229034
0.228402
0.227788
0.227192
0.226613
0.226053
0.225512
0.224988
0.224483
0.223995
0.223525
0.223074
0.222641
0.222226
0.221828
0.221448
0.221086
0.220741
0.220412
0.2201
0.219804
0.219524
0.219259
0.21901
0.218775
0.218548
0.27595
0.274783
0.273632
0.272498
0.27138
0.270278
0.269191
0.26812
0.267063
0.26602
0.26499
0.263973
0.262966
0.26197
0.260983
0.260005
0.259035
0.258073
0.257116
0.256166
0.255222
0.254282
0.253348
0.252418
0.251493
0.250573
0.249657
0.248746
0.24784
0.246939
0.246044
0.245155
0.244273
0.243397
0.242529
0.241669
0.240818
0.239977
0.239145
0.238324
0.237515
0.236717
0.235932
0.235161
0.234404
0.233661
0.232934
0.232222
0.231527
0.230848
0.230186
0.229542
0.228915
0.228306
0.227716
0.227143
0.22659
0.226054
0.225537
0.225038
0.224557
0.224095
0.22365
0.223224
0.222816
0.222426
0.222054
0.221699
0.221361
0.22104
0.220735
0.220447
0.220174
0.219917
0.219675
0.219447
0.219226
0.276363
0.275208
0.274068
0.272945
0.271837
0.270745
0.269669
0.268607
0.26756
0.266525
0.265504
0.264493
0.263494
0.262504
0.261523
0.260551
0.259586
0.258627
0.257675
0.256729
0.255787
0.254851
0.253919
0.252991
0.252068
0.25115
0.250236
0.249326
0.248422
0.247523
0.246629
0.245741
0.24486
0.243985
0.243119
0.24226
0.24141
0.24057
0.23974
0.238921
0.238114
0.237319
0.236536
0.235768
0.235014
0.234274
0.23355
0.232842
0.23215
0.231475
0.230818
0.230178
0.229556
0.228952
0.228367
0.2278
0.227252
0.226722
0.226211
0.225718
0.225243
0.224787
0.224349
0.223929
0.223528
0.223145
0.222779
0.222431
0.2221
0.221785
0.221487
0.221205
0.220939
0.220689
0.220453
0.220231
0.220016
0.276922
0.275781
0.274655
0.273545
0.272451
0.271371
0.270307
0.269256
0.26822
0.267195
0.266183
0.265181
0.264189
0.263207
0.262233
0.261266
0.260306
0.259352
0.258404
0.257461
0.256523
0.255589
0.25466
0.253734
0.252813
0.251896
0.250983
0.250075
0.249171
0.248272
0.247379
0.246492
0.245611
0.244737
0.243871
0.243014
0.242165
0.241326
0.240497
0.239679
0.238873
0.23808
0.237299
0.236533
0.235781
0.235044
0.234322
0.233617
0.232929
0.232257
0.231604
0.230968
0.23035
0.229751
0.22917
0.228608
0.228065
0.22754
0.227034
0.226546
0.226077
0.225626
0.225194
0.22478
0.224385
0.224007
0.223648
0.223305
0.22298
0.222672
0.222379
0.222103
0.221843
0.221597
0.221367
0.22115
0.22094
0.277675
0.276551
0.275442
0.274347
0.273268
0.272203
0.271152
0.270114
0.269089
0.268076
0.267074
0.266081
0.265098
0.264123
0.263155
0.262194
0.261239
0.26029
0.259346
0.258406
0.25747
0.256538
0.25561
0.254686
0.253765
0.252849
0.251936
0.251028
0.250124
0.249225
0.248331
0.247444
0.246563
0.245688
0.244822
0.243964
0.243115
0.242276
0.241447
0.24063
0.239824
0.239032
0.238252
0.237487
0.236736
0.236001
0.235282
0.234579
0.233893
0.233224
0.232574
0.231941
0.231327
0.230731
0.230154
0.229596
0.229057
0.228537
0.228035
0.227551
0.227087
0.226641
0.226214
0.225806
0.225416
0.225043
0.224689
0.224352
0.224031
0.223728
0.22344
0.223169
0.222913
0.222672
0.222445
0.222233
0.222026
0.278693
0.277589
0.276498
0.275421
0.274358
0.273309
0.272272
0.271248
0.270235
0.269233
0.26824
0.267257
0.266281
0.265313
0.264351
0.263395
0.262444
0.261497
0.260555
0.259617
0.258682
0.257751
0.256823
0.255898
0.254977
0.254059
0.253145
0.252235
0.251329
0.250428
0.249532
0.248643
0.24776
0.246883
0.246015
0.245155
0.244305
0.243464
0.242634
0.241816
0.24101
0.240216
0.239437
0.238671
0.237921
0.237187
0.236468
0.235766
0.235082
0.234415
0.233766
0.233136
0.232524
0.231932
0.231358
0.230803
0.230267
0.22975
0.229251
0.228772
0.228311
0.22787
0.227447
0.227042
0.226656
0.226288
0.225937
0.225604
0.225288
0.224988
0.224704
0.224436
0.224183
0.223946
0.223722
0.223512
0.223308
0.280078
0.278994
0.277924
0.276865
0.275819
0.274785
0.273763
0.272751
0.271749
0.270757
0.269772
0.268796
0.267826
0.266861
0.265903
0.264949
0.263999
0.263053
0.26211
0.26117
0.260234
0.2593
0.258368
0.25744
0.256515
0.255593
0.254674
0.25376
0.252849
0.251944
0.251043
0.250149
0.249261
0.248381
0.247508
0.246644
0.24579
0.244946
0.244112
0.243291
0.242482
0.241686
0.240905
0.240137
0.239386
0.23865
0.237931
0.237229
0.236544
0.235878
0.235229
0.2346
0.233989
0.233398
0.232826
0.232273
0.231739
0.231224
0.230728
0.230251
0.229793
0.229354
0.228933
0.228532
0.228148
0.227783
0.227435
0.227104
0.22679
0.226492
0.226211
0.225945
0.225694
0.225458
0.225236
0.225028
0.224824
0.281975
0.280913
0.279862
0.27882
0.277789
0.276768
0.275756
0.274753
0.273758
0.272771
0.27179
0.270815
0.269846
0.268881
0.26792
0.266963
0.266009
0.265058
0.264109
0.263162
0.262218
0.261277
0.260337
0.2594
0.258466
0.257535
0.256608
0.255684
0.254764
0.25385
0.252941
0.252038
0.251141
0.250253
0.249372
0.248501
0.247639
0.246788
0.245948
0.245121
0.244306
0.243505
0.242719
0.241947
0.241191
0.240452
0.23973
0.239025
0.238338
0.237669
0.23702
0.236389
0.235778
0.235185
0.234613
0.23406
0.233526
0.233012
0.232516
0.23204
0.231583
0.231144
0.230725
0.230324
0.229941
0.229576
0.229229
0.228898
0.228585
0.228288
0.228007
0.227741
0.227491
0.227255
0.227032
0.226823
0.226618
0.284589
0.283545
0.282508
0.281479
0.280456
0.27944
0.278431
0.277429
0.276432
0.275441
0.274454
0.273472
0.272493
0.271518
0.270546
0.269576
0.268608
0.267642
0.266678
0.265717
0.264757
0.263798
0.262843
0.261889
0.260938
0.259991
0.259047
0.258107
0.257171
0.256241
0.255317
0.254399
0.253489
0.252586
0.251692
0.250808
0.249934
0.249071
0.248221
0.247383
0.246558
0.245748
0.244953
0.244173
0.24341
0.242663
0.241934
0.241223
0.240531
0.239857
0.239203
0.238568
0.237953
0.237357
0.236781
0.236226
0.235689
0.235173
0.234675
0.234197
0.233738
0.233298
0.232876
0.232473
0.232089
0.231722
0.231373
0.231041
0.230726
0.230427
0.230144
0.229876
0.229623
0.229384
0.229159
0.228947
0.228739
0.288193
0.287159
0.286127
0.285096
0.284067
0.283042
0.282021
0.281002
0.279987
0.278976
0.277967
0.27696
0.275956
0.274954
0.273955
0.272956
0.27196
0.270965
0.269972
0.268981
0.267991
0.267004
0.266019
0.265037
0.264058
0.263082
0.262111
0.261145
0.260183
0.259228
0.258279
0.257338
0.256404
0.25548
0.254565
0.25366
0.252767
0.251886
0.251018
0.250163
0.249322
0.248497
0.247688
0.246895
0.246119
0.245361
0.24462
0.243899
0.243196
0.242513
0.24185
0.241207
0.240584
0.239981
0.239398
0.238836
0.238293
0.23777
0.237268
0.236784
0.23632
0.235874
0.235447
0.235039
0.234649
0.234277
0.233923
0.233586
0.233266
0.232962
0.232674
0.2324
0.232142
0.231898
0.231667
0.231449
0.231235
0.293148
0.292108
0.29106
0.290006
0.288948
0.287888
0.286827
0.285766
0.284705
0.283645
0.282586
0.281529
0.280473
0.279419
0.278367
0.277316
0.276268
0.275221
0.274177
0.273135
0.272096
0.27106
0.270027
0.268999
0.267975
0.266955
0.265941
0.264933
0.263931
0.262937
0.261951
0.260973
0.260005
0.259047
0.2581
0.257165
0.256242
0.255333
0.254437
0.253557
0.252692
0.251843
0.251012
0.250198
0.249402
0.248625
0.247866
0.247128
0.246409
0.245711
0.245033
0.244376
0.243739
0.243123
0.242528
0.241954
0.2414
0.240867
0.240353
0.23986
0.239385
0.23893
0.238493
0.238075
0.237675
0.237294
0.23693
0.236584
0.236255
0.235942
0.235645
0.235363
0.235095
0.234842
0.234602
0.234375
0.234151
0.299962
0.298888
0.297792
0.296678
0.29555
0.294411
0.293266
0.292116
0.290964
0.289811
0.288658
0.287507
0.286357
0.28521
0.284066
0.282925
0.281788
0.280656
0.279527
0.278404
0.277285
0.276172
0.275065
0.273964
0.27287
0.271783
0.270705
0.269634
0.268572
0.26752
0.266478
0.265447
0.264427
0.26342
0.262426
0.261445
0.260478
0.259527
0.258592
0.257673
0.256772
0.255888
0.255023
0.254176
0.253349
0.252543
0.251756
0.250991
0.250246
0.249523
0.248821
0.248141
0.247483
0.246846
0.246231
0.245638
0.245065
0.244514
0.243983
0.243473
0.242982
0.242511
0.242058
0.241624
0.241209
0.240812
0.240433
0.240072
0.239728
0.239401
0.23909
0.238795
0.238514
0.238248
0.237995
0.237755
0.237517
0.309422
0.308279
0.307087
0.305856
0.304594
0.303304
0.301997
0.300682
0.299361
0.298039
0.296718
0.2954
0.294088
0.292781
0.291482
0.290191
0.288909
0.287635
0.286371
0.285116
0.283872
0.282638
0.281414
0.280202
0.279001
0.277811
0.276634
0.275469
0.274317
0.273178
0.272053
0.270943
0.269847
0.268767
0.267702
0.266654
0.265624
0.264611
0.263616
0.26264
0.261684
0.260747
0.259831
0.258936
0.258062
0.25721
0.25638
0.255572
0.254787
0.254025
0.253285
0.252569
0.251875
0.251205
0.250557
0.249932
0.24933
0.248749
0.24819
0.247653
0.247136
0.24664
0.246164
0.245706
0.245268
0.244847
0.244445
0.244061
0.243696
0.243348
0.243016
0.242701
0.242401
0.242116
0.241845
0.241588
0.241332
0.32301
0.321692
0.320278
0.31879
0.317247
0.315665
0.314058
0.312437
0.310812
0.309188
0.307571
0.305959
0.304361
0.30278
0.301217
0.299674
0.298151
0.296648
0.295165
0.293703
0.292261
0.290839
0.289437
0.288054
0.286691
0.285348
0.284024
0.282719
0.281434
0.280168
0.278921
0.277694
0.276487
0.2753
0.274134
0.272988
0.271863
0.270759
0.269677
0.268616
0.267578
0.266563
0.265571
0.264602
0.263657
0.262735
0.261838
0.260966
0.260118
0.259294
0.258496
0.257722
0.256973
0.256249
0.255549
0.254874
0.254223
0.253595
0.252992
0.252411
0.251853
0.251318
0.250804
0.250311
0.249839
0.249387
0.248954
0.24854
0.248143
0.247763
0.247401
0.247056
0.246729
0.246418
0.246122
0.245842
0.245563
0.342794
0.341051
0.339148
0.337126
0.335022
0.332867
0.330686
0.3285
0.326323
0.324167
0.32204
0.319947
0.317891
0.315874
0.313898
0.311963
0.310068
0.308214
0.3064
0.304625
0.302887
0.301183
0.299513
0.297876
0.296274
0.294705
0.293168
0.291663
0.290187
0.288741
0.287324
0.285934
0.284572
0.283236
0.281927
0.280645
0.279388
0.278158
0.276953
0.275775
0.274622
0.273496
0.272395
0.271321
0.270274
0.269253
0.268258
0.267291
0.26635
0.265437
0.264551
0.263691
0.26286
0.262055
0.261277
0.260526
0.259802
0.259104
0.258432
0.257785
0.257164
0.256568
0.255996
0.255448
0.254924
0.254422
0.253942
0.253483
0.253045
0.252627
0.252229
0.25185
0.251489
0.251145
0.250818
0.250507
0.250201
0.367035
0.364219
0.361256
0.358206
0.355121
0.352038
0.348985
0.345982
0.343043
0.340176
0.337387
0.334677
0.332048
0.329498
0.327026
0.32463
0.322307
0.320054
0.317869
0.31575
0.313692
0.311693
0.30975
0.30786
0.306021
0.30423
0.302485
0.300783
0.299124
0.297504
0.295922
0.294377
0.292867
0.29139
0.289947
0.288535
0.287155
0.285804
0.284481
0.283186
0.28192
0.280684
0.279477
0.2783
0.277151
0.276032
0.274942
0.273882
0.272851
0.271849
0.270876
0.269933
0.26902
0.268136
0.267281
0.266456
0.26566
0.264893
0.264154
0.263444
0.262762
0.262107
0.26148
0.260879
0.260304
0.259755
0.259231
0.258731
0.258255
0.257801
0.25737
0.256961
0.256572
0.256202
0.255851
0.255511
0.393145
0.389314
0.38537
0.381405
0.377489
0.373661
0.369907
0.366245
0.362683
0.359228
0.355882
0.352646
0.349519
0.346498
0.343582
0.340766
0.338049
0.335425
0.332893
0.330448
0.328086
0.325805
0.3236
0.321467
0.319404
0.317405
0.315467
0.313588
0.311763
0.30999
0.308266
0.306587
0.304952
0.303358
0.301803
0.300285
0.298803
0.297354
0.295938
0.294553
0.293198
0.291873
0.290577
0.289309
0.288069
0.286856
0.285672
0.284514
0.283384
0.282281
0.281206
0.280159
0.279139
0.278147
0.277182
0.276244
0.275332
0.274447
0.27359
0.272763
0.271964
0.271193
0.270451
0.269737
0.26905
0.268391
0.267759
0.267153
0.266575
0.266022
0.265496
0.264994
0.264518
0.264065
0.263635
0.263225
0.396939
0.393333
0.389774
0.386333
0.38305
0.379926
0.376945
0.37409
0.371346
0.368698
0.366133
0.363639
0.36121
0.358839
0.356525
0.354265
0.352059
0.349909
0.347814
0.345775
0.343794
0.341871
0.340005
0.338196
0.336444
0.334746
0.333101
0.331507
0.32996
0.32846
0.327003
0.325587
0.324209
0.322866
0.321555
0.320272
0.319011
0.317772
0.316554
0.315357
0.314182
0.313027
0.311889
0.310765
0.309653
0.308552
0.307461
0.306378
0.305304
0.304238
0.303179
0.302127
0.301084
0.300049
0.299023
0.298006
0.296997
0.295998
0.295009
0.294033
0.293071
0.292119
0.291178
0.290246
0.289324
0.288412
0.287513
0.28663
0.285765
0.284919
0.284097
0.2833
0.282532
0.281795
0.281089
0.280423
0.394338
0.390657
0.3876
0.385196
0.383427
0.382189
0.381379
0.380925
0.380759
0.380815
0.38103
0.381348
0.381722
0.38211
0.382444
0.382719
0.382934
0.383091
0.383193
0.383248
0.383261
0.38324
0.383191
0.383121
0.383033
0.382931
0.382819
0.382691
0.382546
0.382389
0.382221
0.382045
0.381858
0.381659
0.381445
0.381214
0.380963
0.380689
0.380388
0.380057
0.379693
0.37929
0.378846
0.378355
0.377812
0.377212
0.376552
0.375827
0.375035
0.374172
0.373237
0.372227
0.371141
0.369978
0.36874
0.367424
0.366033
0.364565
0.363019
0.361392
0.359686
0.357904
0.356052
0.354137
0.35217
0.350161
0.348122
0.346067
0.344007
0.341956
0.339926
0.33793
0.335978
0.334079
0.332245
0.330513
0.550155
0.564099
0.569618
0.573253
0.577719
0.582713
0.587814
0.592784
0.597478
0.601812
0.605742
0.609259
0.612375
0.615118
0.617525
0.619633
0.621493
0.623135
0.624585
0.62586
0.626976
0.627944
0.628773
0.629473
0.630043
0.630489
0.630814
0.631024
0.631125
0.631118
0.631008
0.630797
0.630486
0.630077
0.62957
0.628962
0.62825
0.627429
0.626492
0.625431
0.624234
0.62289
0.621388
0.619714
0.617856
0.6158
0.613535
0.611049
0.608332
0.605376
0.602174
0.598721
0.595017
0.59106
0.586856
0.582408
0.577728
0.572826
0.567719
0.562423
0.556957
0.551341
0.545597
0.539748
0.533819
0.527835
0.521822
0.515805
0.509809
0.503858
0.497976
0.492186
0.48651
0.480969
0.475588
0.47048
1.32757
1.44605
1.53684
1.61086
1.66916
1.71234
1.74304
1.76335
1.77519
1.78051
1.78067
1.77673
1.76953
1.75971
1.74777
1.73376
1.7177
1.69983
1.68046
1.65995
1.63862
1.61677
1.59479
1.57297
1.55152
1.53056
1.51015
1.49036
1.47123
1.45281
1.43509
1.41809
1.40181
1.3862
1.37122
1.35682
1.34294
1.32949
1.31641
1.30362
1.29105
1.27862
1.26627
1.25392
1.24152
1.22902
1.21635
1.20347
1.19033
1.17691
1.16318
1.14911
1.13469
1.11991
1.10478
1.08931
1.07353
1.05745
1.04112
1.02457
1.00785
0.990989
0.974048
0.95707
0.940102
0.923194
0.906394
0.889747
0.873301
0.857099
0.841186
0.825608
0.810418
0.795699
0.781733
3.51161
3.51576
2.86726
2.35634
2.09951
2.02869
2.01117
2.01544
2.03239
2.06258
2.10452
2.15695
2.2185
2.28788
2.36447
2.41159
2.43026
2.43374
2.42875
2.41877
2.40592
2.39135
2.37334
2.35158
2.32777
2.30317
2.2785
2.25394
2.22966
2.20575
2.18212
2.15874
2.13569
2.11302
2.09075
2.0689
2.04744
2.02635
2.00559
1.98514
1.96497
1.94502
1.92524
1.90557
1.88595
1.8663
1.84655
1.82661
1.80641
1.78587
1.76492
1.7435
1.72157
1.69912
1.67616
1.6527
1.6288
1.60451
1.5799
1.55504
1.53002
1.5049
1.47975
1.45463
1.42958
1.40465
1.3799
1.35537
1.33109
1.3071
1.28345
1.26019
1.2374
1.21524
1.19417
1.6203
1.61856
1.56262
1.50174
1.46881
1.44947
1.44086
1.43083
1.42038
1.40199
1.39415
1.38974
1.38776
1.38848
1.39164
1.39549
1.39873
1.40159
1.40445
1.40736
1.41954
1.44134
1.47573
1.5234
1.58062
1.64049
1.69724
1.75064
1.80072
1.84679
1.87729
1.8997
1.91601
1.92715
1.93432
1.93811
1.93847
1.93635
1.93249
1.92735
1.92122
1.91432
1.90686
1.89897
1.89074
1.88221
1.87334
1.86405
1.85424
1.84379
1.83264
1.82073
1.80806
1.79462
1.78048
1.76571
1.75042
1.73476
1.71885
1.70283
1.68679
1.67082
1.65491
1.63907
1.62318
1.60715
1.59095
1.57456
1.55799
1.54125
1.52437
1.5074
1.49038
1.47353
1.45708
1.18968
1.22705
1.25216
1.26764
1.27288
1.26671
1.25521
1.2422
1.23008
1.21878
1.20965
1.20422
1.19764
1.19529
1.19456
1.19067
1.18706
1.18517
1.18542
1.18734
1.19068
1.19446
1.19947
1.20615
1.21453
1.22404
1.23398
1.24407
1.25408
1.2637
1.27244
1.28045
1.28766
1.29406
1.29977
1.30481
1.30982
1.31441
1.31843
1.32193
1.32497
1.32755
1.32967
1.33135
1.33265
1.3338
1.33523
1.33658
1.3377
1.3385
1.33896
1.33926
1.33945
1.33962
1.33999
1.34081
1.34236
1.34491
1.34866
1.35374
1.36022
1.36806
1.37712
1.3871
1.39747
1.40632
1.41293
1.41761
1.42066
1.42231
1.42267
1.42189
1.42018
1.41784
1.41465
1.24321
1.29755
1.33241
1.35676
1.36061
1.35162
1.34127
1.33102
1.32075
1.30959
1.29773
1.28553
1.27316
1.26021
1.2467
1.23269
1.2189
1.2062
1.19509
1.18576
1.17821
1.17238
1.16885
1.1672
1.16736
1.1689
1.17151
1.17489
1.17817
1.17999
1.18101
1.18159
1.18203
1.18312
1.18549
1.18821
1.1908
1.19325
1.19545
1.19743
1.19921
1.20083
1.20223
1.20336
1.20421
1.20477
1.20508
1.20513
1.20495
1.20452
1.20384
1.20295
1.20189
1.20071
1.19947
1.19826
1.19717
1.1963
1.19574
1.19554
1.19573
1.19631
1.19721
1.19837
1.19966
1.20089
1.20188
1.20255
1.20293
1.20313
1.20337
1.20382
1.20452
1.2056
1.20755
1.26937
1.3223
1.39752
1.44873
1.46282
1.45872
1.45148
1.44401
1.43563
1.42522
1.41349
1.40118
1.38883
1.37666
1.36469
1.35145
1.33844
1.32647
1.31585
1.30681
1.29928
1.29302
1.28782
1.28354
1.28006
1.27721
1.27485
1.2729
1.27095
1.26888
1.26664
1.26428
1.26183
1.25942
1.25713
1.25495
1.25287
1.25093
1.24907
1.24723
1.24536
1.24343
1.24139
1.2392
1.23685
1.23431
1.23159
1.22871
1.22569
1.22255
1.21933
1.21606
1.21277
1.20949
1.20624
1.20304
1.19993
1.19691
1.19399
1.19118
1.18845
1.18579
1.18312
1.18036
1.17739
1.17377
1.1692
1.16384
1.15789
1.1516
1.14526
1.13921
1.13394
1.12947
1.12606
1.19212
1.39614
1.54975
1.69856
1.68401
1.68728
1.68969
1.69405
1.69661
1.68396
1.66135
1.63691
1.61373
1.59304
1.5749
1.55888
1.54441
1.53117
1.51925
1.50866
1.49934
1.49103
1.48358
1.47687
1.4708
1.46523
1.45963
1.45403
1.44863
1.44347
1.43847
1.43358
1.42872
1.42383
1.41889
1.41387
1.40877
1.40361
1.39839
1.39311
1.38778
1.3824
1.37697
1.37147
1.36592
1.36029
1.3546
1.34883
1.343
1.33712
1.33119
1.32525
1.3193
1.31338
1.30751
1.30169
1.29595
1.29031
1.28476
1.27931
1.27397
1.26872
1.26355
1.25844
1.25336
1.24828
1.24314
1.23789
1.23245
1.22678
1.22081
1.21452
1.20793
1.20113
1.19425
1.18698
1.61382
1.72956
1.83443
1.91825
1.98328
2.03001
2.06012
2.07607
2.08163
2.07871
2.06963
2.05631
2.04035
2.02293
2.00446
1.9856
1.96674
1.94827
1.9287
1.9082
1.88691
1.86498
1.8426
1.81995
1.79724
1.77466
1.75251
1.73101
1.71031
1.69043
1.67139
1.65321
1.63588
1.61944
1.60381
1.58884
1.57461
1.56114
1.5484
1.53636
1.52494
1.51408
1.50371
1.49377
1.48419
1.47491
1.46588
1.45704
1.44836
1.4398
1.43137
1.42309
1.41495
1.40698
1.3992
1.39162
1.38425
1.37711
1.3702
1.36352
1.35709
1.35089
1.34492
1.33917
1.33362
1.32825
1.32305
1.31798
1.31303
1.30814
1.3033
1.29845
1.29358
1.28866
1.2837
1.2783
0.903368
0.958222
1.01256
1.06736
1.12251
1.1773
1.23077
1.28201
1.33015
1.37439
1.41416
1.44923
1.47956
1.50466
1.52491
1.54081
1.55291
1.5618
1.56885
1.5744
1.57873
1.58208
1.58468
1.58671
1.58833
1.58964
1.59019
1.58915
1.5868
1.58336
1.57902
1.57393
1.56824
1.56211
1.55565
1.54897
1.54218
1.53533
1.52851
1.52176
1.51513
1.50865
1.50231
1.49614
1.49008
1.48407
1.47798
1.47171
1.46499
1.45793
1.45066
1.44328
1.43589
1.42855
1.42132
1.41423
1.40733
1.40063
1.39417
1.38796
1.38201
1.37633
1.37093
1.36581
1.36098
1.35642
1.35214
1.34811
1.34433
1.34077
1.33743
1.33429
1.33134
1.32858
1.32597
1.32304
0.574861
0.588558
0.602798
0.617497
0.6331
0.649852
0.667844
0.687085
0.707443
0.728606
0.750108
0.771703
0.793124
0.814062
0.834222
0.853363
0.871284
0.88787
0.903117
0.917009
0.929619
0.941052
0.95143
0.960887
0.969556
0.977531
0.985314
0.993731
1.00274
1.0123
1.02238
1.03296
1.044
1.05534
1.06645
1.07737
1.08809
1.09862
1.10895
1.11907
1.12895
1.13858
1.14794
1.15699
1.16572
1.17408
1.18205
1.18958
1.19664
1.20323
1.20933
1.21497
1.22015
1.22489
1.22921
1.23312
1.23666
1.23985
1.24271
1.24527
1.24756
1.24959
1.2514
1.25299
1.25432
1.25543
1.25628
1.25684
1.25722
1.2575
1.25773
1.25797
1.25826
1.25866
1.25919
1.25953
0.461818
0.464516
0.467058
0.469981
0.473407
0.477439
0.482034
0.487248
0.493098
0.499561
0.506471
0.51373
0.521258
0.528977
0.536798
0.544632
0.552391
0.559996
0.567374
0.574468
0.581237
0.587653
0.593701
0.599381
0.60472
0.609768
0.614607
0.619309
0.623941
0.628569
0.633252
0.638043
0.643103
0.648884
0.655373
0.662555
0.670415
0.678937
0.688092
0.697698
0.707745
0.718217
0.729087
0.740321
0.751877
0.763706
0.775752
0.787975
0.800325
0.81274
0.825159
0.837526
0.849788
0.861898
0.873813
0.885498
0.896919
0.908048
0.918863
0.929349
0.939497
0.949304
0.958772
0.967901
0.9767
0.985167
0.993312
1.00116
1.00873
1.01606
1.02319
1.03015
1.03697
1.04369
1.04999
0.412581
0.41313
0.41349
0.413761
0.414021
0.414325
0.414715
0.415224
0.415876
0.416686
0.417658
0.418786
0.420064
0.421483
0.42303
0.424686
0.426436
0.428259
0.430137
0.432052
0.433987
0.435928
0.437865
0.439785
0.441684
0.443557
0.445407
0.447239
0.449065
0.450898
0.45276
0.454686
0.456717
0.458897
0.461267
0.463863
0.466719
0.469862
0.473333
0.477302
0.481765
0.486719
0.492156
0.498068
0.50442
0.511183
0.518345
0.52583
0.533583
0.541593
0.549846
0.558327
0.567016
0.575892
0.584934
0.59412
0.60343
0.612841
0.622334
0.631892
0.641496
0.651132
0.660787
0.670447
0.680103
0.689748
0.699376
0.708982
0.718566
0.72813
0.73768
0.747231
0.756782
0.766324
0.775613
0.392826
0.392798
0.392596
0.392265
0.391842
0.391357
0.390834
0.390292
0.389745
0.389204
0.388676
0.388166
0.387677
0.387208
0.386762
0.386337
0.385933
0.385549
0.385183
0.384836
0.384504
0.384191
0.383899
0.383632
0.383395
0.383192
0.38303
0.382915
0.382854
0.382856
0.382934
0.383101
0.383361
0.383724
0.384204
0.384811
0.385553
0.386432
0.38747
0.388685
0.390087
0.391686
0.393492
0.39551
0.397772
0.400302
0.403098
0.40615
0.409447
0.412976
0.416727
0.420698
0.424882
0.429278
0.43388
0.43868
0.443673
0.448851
0.454207
0.459737
0.465434
0.471295
0.477316
0.483495
0.48983
0.49632
0.502967
0.50977
0.516732
0.523856
0.531137
0.538551
0.546114
0.553816
0.561445
0.384663
0.384601
0.384376
0.384016
0.383547
0.38299
0.382363
0.381679
0.380949
0.380179
0.379376
0.378541
0.377678
0.376786
0.375866
0.374918
0.373942
0.37294
0.371911
0.370856
0.369775
0.368672
0.367553
0.366423
0.365291
0.364162
0.363045
0.361948
0.36088
0.359849
0.358864
0.357934
0.357067
0.356273
0.355559
0.354934
0.354405
0.353985
0.353671
0.353467
0.353376
0.353404
0.353554
0.353831
0.354242
0.354797
0.355498
0.356344
0.357337
0.358486
0.359796
0.361259
0.362861
0.364593
0.366452
0.368438
0.370549
0.372784
0.375143
0.377626
0.380234
0.382968
0.38583
0.388823
0.39195
0.395217
0.398629
0.402191
0.405912
0.409799
0.413859
0.418094
0.422508
0.427093
0.431705
0.380545
0.380655
0.380603
0.380414
0.380109
0.379706
0.379219
0.378662
0.378041
0.377363
0.376633
0.375852
0.375021
0.37414
0.373209
0.372226
0.37119
0.370102
0.368962
0.36777
0.366527
0.365236
0.363899
0.362517
0.361097
0.359646
0.358172
0.356682
0.355186
0.353692
0.35221
0.350748
0.349315
0.34792
0.34657
0.345272
0.344035
0.342864
0.341765
0.340743
0.339802
0.338946
0.338177
0.337502
0.336922
0.33643
0.336028
0.335716
0.335494
0.335363
0.335327
0.335386
0.335537
0.335783
0.336123
0.336553
0.337073
0.337682
0.338377
0.339159
0.340028
0.340984
0.342028
0.343162
0.344389
0.34571
0.347131
0.348655
0.350288
0.352037
0.353907
0.355903
0.358027
0.360276
0.362565
0.377904
0.378147
0.378249
0.378215
0.378064
0.377812
0.377471
0.377053
0.376565
0.376013
0.375399
0.374727
0.373996
0.373206
0.372355
0.371442
0.370466
0.369426
0.368321
0.367151
0.365918
0.364621
0.363264
0.36185
0.360382
0.358864
0.357299
0.355696
0.354061
0.352404
0.350734
0.349058
0.347386
0.345726
0.344086
0.342473
0.340894
0.339356
0.337864
0.336423
0.335038
0.333713
0.332452
0.331257
0.33013
0.329072
0.328084
0.327165
0.326317
0.325541
0.324833
0.324191
0.323612
0.323095
0.322641
0.322249
0.32192
0.321652
0.321445
0.321298
0.32121
0.321183
0.321215
0.321308
0.321463
0.321681
0.321966
0.322318
0.322743
0.32324
0.323811
0.324458
0.325184
0.325991
0.326827
0.376475
0.376705
0.376833
0.376828
0.376708
0.376488
0.37618
0.375794
0.375337
0.374814
0.374229
0.373583
0.372876
0.372108
0.371278
0.370383
0.369423
0.368396
0.367302
0.36614
0.36491
0.363614
0.362254
0.360832
0.359351
0.357816
0.356229
0.354596
0.352923
0.351219
0.349492
0.34775
0.346003
0.344258
0.342523
0.340806
0.339114
0.337452
0.335827
0.334243
0.332705
0.331215
0.329776
0.32839
0.32706
0.325787
0.324576
0.323426
0.322337
0.321311
0.320344
0.319436
0.318584
0.317788
0.317044
0.316348
0.3157
0.315098
0.31454
0.314026
0.313553
0.313122
0.312733
0.312384
0.312078
0.311815
0.311598
0.311428
0.311308
0.311242
0.311233
0.311283
0.311394
0.311579
0.311753
0.375917
0.376126
0.37622
0.376183
0.37603
0.375776
0.375431
0.375006
0.374507
0.373939
0.373305
0.372608
0.371847
0.371023
0.370135
0.369182
0.368164
0.36708
0.365929
0.364712
0.363431
0.362087
0.360681
0.359218
0.357701
0.356132
0.354517
0.352861
0.351171
0.349456
0.347725
0.345985
0.344246
0.342515
0.340799
0.339108
0.337446
0.33582
0.334237
0.332699
0.331211
0.329776
0.328397
0.327074
0.32581
0.32461
0.323474
0.322404
0.321399
0.32046
0.319585
0.318771
0.318014
0.317312
0.316662
0.316065
0.315518
0.315017
0.314562
0.31415
0.31378
0.313451
0.313163
0.312916
0.312711
0.31255
0.312436
0.312372
0.31236
0.312404
0.312508
0.312675
0.312907
0.313217
0.313524
0.376173
0.37631
0.376298
0.376155
0.375895
0.375532
0.375075
0.374534
0.373916
0.373226
0.372468
0.371644
0.370757
0.369806
0.368793
0.367718
0.366582
0.365386
0.364131
0.362818
0.361451
0.360032
0.358565
0.357051
0.355495
0.353902
0.35228
0.350636
0.34898
0.347319
0.345662
0.344017
0.342393
0.340797
0.339238
0.337721
0.336253
0.334841
0.333489
0.332202
0.330985
0.329841
0.328773
0.327785
0.326882
0.32606
0.325316
0.32465
0.324061
0.323548
0.323111
0.322751
0.322466
0.322253
0.32211
0.322033
0.32202
0.322069
0.322176
0.322342
0.322565
0.322848
0.323189
0.32359
0.324051
0.324573
0.325155
0.325799
0.32651
0.327293
0.328153
0.329096
0.330127
0.331246
0.332402
0.377466
0.377353
0.377096
0.376712
0.376217
0.375623
0.374943
0.374185
0.373356
0.372463
0.371511
0.370502
0.369441
0.368328
0.367167
0.365958
0.364705
0.363408
0.362072
0.360698
0.359288
0.357846
0.356378
0.354891
0.353391
0.351887
0.350386
0.348898
0.347432
0.345997
0.3446
0.343251
0.341958
0.340726
0.339564
0.338477
0.337472
0.336557
0.335741
0.33502
0.334398
0.333876
0.333458
0.333146
0.332941
0.332849
0.332871
0.333005
0.333248
0.333597
0.334048
0.334598
0.335244
0.33598
0.336808
0.337725
0.338727
0.339812
0.340979
0.342227
0.343551
0.344937
0.346384
0.347893
0.349471
0.351123
0.352855
0.354675
0.356593
0.358617
0.360757
0.363022
0.365417
0.367942
0.370517
0.379654
0.379281
0.378776
0.378158
0.377441
0.376642
0.375771
0.374838
0.373852
0.372819
0.371745
0.370634
0.369492
0.36832
0.367122
0.365901
0.364658
0.363394
0.362116
0.360829
0.359541
0.35826
0.356992
0.355746
0.35453
0.353352
0.352222
0.351148
0.350139
0.349203
0.348353
0.347601
0.346948
0.3464
0.345964
0.345646
0.345453
0.345391
0.345467
0.345695
0.346082
0.346632
0.347349
0.348232
0.34928
0.350484
0.351824
0.3533
0.354915
0.356665
0.358546
0.360555
0.362686
0.364936
0.367296
0.369762
0.37233
0.374996
0.377759
0.380615
0.383564
0.386607
0.389745
0.392982
0.396322
0.39977
0.403332
0.407015
0.410827
0.414777
0.418875
0.423128
0.42754
0.432103
0.436692
0.384695
0.384265
0.383708
0.383047
0.382304
0.381496
0.380636
0.379737
0.378806
0.377851
0.37688
0.375898
0.374909
0.37392
0.372933
0.371952
0.370981
0.370026
0.369095
0.368193
0.36733
0.366514
0.365754
0.365067
0.364457
0.363929
0.363494
0.363163
0.362944
0.36285
0.362891
0.363084
0.36345