/*--------------------------------*- C++ -*----------------------------------*\
  =========                 |
  \\      /  F ield         | OpenFOAM: The Open Source CFD Toolbox
   \\    /   O peration     | Website:  https://openfoam.org
    \\  /    A nd           | Version:  13
     \\/     M anipulation  |
\*---------------------------------------------------------------------------*/
FoamFile
{
    format      ascii;
    class       volScalarField;
    location    "100";
    object      nut;
}
// * * * * * * * * * * * * * * * * * * * * * * * * * * * * * * * * * * * * * //

dimensions      [0 2 -1 0 0 0 0];

internalField   nonuniform List<scalar> 
173327
(
0.0184134
0.018401
0.0183889
0.018377
0.0183654
0.0183541
0.018343
0.0183323
0.0183218
0.0183116
0.0183016
0.0182918
0.0182823
0.0182729
0.0182637
0.0182547
0.0182457
0.0182369
0.0182281
0.0182195
0.0182109
0.0182024
0.0181939
0.0181854
0.0181771
0.0181687
0.0181605
0.0181523
0.0181442
0.0181362
0.0181283
0.0181206
0.018113
0.0181056
0.0180985
0.0180915
0.0180848
0.0180784
0.0180724
0.0180666
0.0180613
0.0180564
0.0180519
0.018048
0.0180445
0.0180415
0.0180391
0.0180373
0.0180361
0.0180356
0.0180357
0.0180364
0.0180379
0.01804
0.0180429
0.0180465
0.0180508
0.0180559
0.0180617
0.0180682
0.0180754
0.0180834
0.0180921
0.0181015
0.0181116
0.0181225
0.018134
0.0181462
0.018159
0.0181725
0.0181866
0.0182013
0.0182166
0.0182324
0.0182487
0.0182654
0.0182819
0.0184157
0.0184034
0.0183914
0.0183796
0.0183681
0.0183568
0.0183459
0.0183353
0.0183249
0.0183148
0.0183049
0.0182953
0.0182858
0.0182766
0.0182675
0.0182585
0.0182497
0.018241
0.0182324
0.0182238
0.0182153
0.0182069
0.0181986
0.0181903
0.018182
0.0181739
0.0181657
0.0181577
0.0181498
0.0181419
0.0181342
0.0181267
0.0181193
0.0181121
0.0181051
0.0180984
0.0180919
0.0180858
0.0180799
0.0180745
0.0180694
0.0180648
0.0180606
0.0180569
0.0180538
0.0180511
0.0180491
0.0180476
0.0180468
0.0180466
0.0180471
0.0180483
0.0180502
0.0180528
0.0180561
0.0180602
0.018065
0.0180706
0.0180769
0.0180839
0.0180917
0.0181002
0.0181094
0.0181194
0.0181301
0.0181415
0.0181535
0.0181662
0.0181796
0.0181935
0.0182081
0.0182232
0.0182389
0.0182551
0.0182717
0.0182888
0.0183056
0.0184201
0.0184079
0.018396
0.0183844
0.018373
0.018362
0.0183512
0.0183407
0.0183305
0.0183206
0.0183108
0.0183014
0.0182921
0.018283
0.0182741
0.0182653
0.0182566
0.018248
0.0182396
0.0182312
0.0182229
0.0182146
0.0182064
0.0181982
0.0181902
0.0181821
0.0181742
0.0181663
0.0181585
0.0181508
0.0181433
0.0181359
0.0181287
0.0181217
0.0181149
0.0181083
0.0181021
0.0180961
0.0180905
0.0180853
0.0180804
0.018076
0.0180721
0.0180687
0.0180658
0.0180635
0.0180617
0.0180606
0.0180601
0.0180603
0.0180612
0.0180627
0.018065
0.018068
0.0180717
0.0180762
0.0180815
0.0180875
0.0180942
0.0181017
0.01811
0.018119
0.0181287
0.0181392
0.0181504
0.0181623
0.0181748
0.018188
0.0182018
0.0182163
0.0182313
0.0182469
0.018263
0.0182796
0.0182966
0.0183141
0.0183312
0.018427
0.018415
0.0184034
0.0183919
0.0183808
0.01837
0.0183594
0.0183491
0.0183392
0.0183294
0.0183199
0.0183106
0.0183015
0.0182926
0.0182839
0.0182753
0.0182668
0.0182584
0.0182501
0.0182419
0.0182337
0.0182256
0.0182176
0.0182096
0.0182017
0.0181938
0.018186
0.0181783
0.0181707
0.0181632
0.0181558
0.0181486
0.0181416
0.0181347
0.0181281
0.0181218
0.0181157
0.01811
0.0181046
0.0180996
0.018095
0.0180908
0.0180872
0.0180841
0.0180815
0.0180795
0.018078
0.0180772
0.0180771
0.0180776
0.0180789
0.0180808
0.0180835
0.0180869
0.0180911
0.018096
0.0181017
0.0181081
0.0181153
0.0181233
0.018132
0.0181415
0.0181517
0.0181626
0.0181742
0.0181865
0.0181996
0.0182132
0.0182275
0.0182424
0.0182579
0.0182739
0.0182904
0.0183074
0.0183249
0.0183427
0.0183602
0.0184369
0.0184253
0.0184139
0.0184028
0.0183919
0.0183814
0.0183711
0.0183611
0.0183514
0.018342
0.0183327
0.0183237
0.0183149
0.0183062
0.0182977
0.0182893
0.018281
0.0182729
0.0182648
0.0182567
0.0182488
0.0182409
0.018233
0.0182252
0.0182174
0.0182097
0.0182021
0.0181946
0.0181871
0.0181798
0.0181726
0.0181655
0.0181587
0.018152
0.0181456
0.0181395
0.0181336
0.0181281
0.018123
0.0181182
0.0181139
0.01811
0.0181066
0.0181038
0.0181015
0.0180997
0.0180987
0.0180982
0.0180984
0.0180993
0.0181009
0.0181032
0.0181063
0.0181101
0.0181147
0.0181201
0.0181262
0.0181331
0.0181407
0.0181492
0.0181583
0.0181682
0.0181789
0.0181902
0.0182023
0.0182151
0.0182286
0.0182427
0.0182574
0.0182727
0.0182886
0.0183051
0.018322
0.0183394
0.0183572
0.0183754
0.0183931
0.0184505
0.0184393
0.0184283
0.0184176
0.0184071
0.018397
0.0183871
0.0183775
0.0183681
0.018359
0.0183501
0.0183414
0.0183328
0.0183245
0.0183162
0.0183081
0.0183001
0.0182922
0.0182843
0.0182765
0.0182687
0.018261
0.0182533
0.0182457
0.0182381
0.0182306
0.0182232
0.0182158
0.0182086
0.0182014
0.0181944
0.0181875
0.0181809
0.0181744
0.0181682
0.0181623
0.0181566
0.0181513
0.0181464
0.0181419
0.0181378
0.0181342
0.0181311
0.0181285
0.0181265
0.0181251
0.0181244
0.0181242
0.0181248
0.0181261
0.018128
0.0181307
0.0181342
0.0181384
0.0181434
0.0181492
0.0181557
0.018163
0.0181711
0.0181799
0.0181895
0.0181999
0.018211
0.0182228
0.0182353
0.0182485
0.0182624
0.0182769
0.0182921
0.0183078
0.018324
0.0183408
0.0183581
0.0183759
0.018394
0.0184125
0.0184305
0.0184689
0.0184581
0.0184476
0.0184374
0.0184274
0.0184178
0.0184083
0.0183992
0.0183902
0.0183815
0.018373
0.0183647
0.0183565
0.0183485
0.0183406
0.0183327
0.018325
0.0183173
0.0183097
0.0183022
0.0182946
0.0182871
0.0182797
0.0182723
0.0182649
0.0182576
0.0182503
0.0182432
0.0182361
0.0182291
0.0182223
0.0182156
0.0182092
0.0182029
0.0181969
0.0181912
0.0181858
0.0181807
0.018176
0.0181717
0.0181679
0.0181645
0.0181617
0.0181594
0.0181577
0.0181566
0.0181562
0.0181564
0.0181573
0.0181589
0.0181612
0.0181643
0.0181682
0.0181728
0.0181782
0.0181843
0.0181913
0.018199
0.0182075
0.0182167
0.0182267
0.0182375
0.018249
0.0182612
0.0182742
0.0182878
0.018302
0.018317
0.0183325
0.0183485
0.0183652
0.0183823
0.0183999
0.0184179
0.0184364
0.0184551
0.0184734
0.0184936
0.0184835
0.0184736
0.0184639
0.0184545
0.0184454
0.0184365
0.0184278
0.0184194
0.0184111
0.0184031
0.0183952
0.0183874
0.0183797
0.0183722
0.0183647
0.0183573
0.0183499
0.0183426
0.0183352
0.018328
0.0183207
0.0183135
0.0183063
0.0182991
0.018292
0.0182849
0.0182779
0.018271
0.0182642
0.0182576
0.0182511
0.0182448
0.0182388
0.018233
0.0182275
0.0182223
0.0182174
0.018213
0.0182089
0.0182053
0.0182023
0.0181997
0.0181977
0.0181963
0.0181955
0.0181954
0.0181959
0.0181972
0.0181991
0.0182018
0.0182053
0.0182095
0.0182145
0.0182203
0.0182268
0.0182342
0.0182423
0.0182512
0.0182608
0.0182712
0.0182824
0.0182943
0.0183069
0.0183202
0.0183342
0.0183489
0.0183641
0.01838
0.0183964
0.0184133
0.0184308
0.0184487
0.018467
0.0184856
0.0185046
0.0185231
0.0185269
0.0185175
0.0185083
0.0184993
0.0184906
0.0184821
0.0184738
0.0184657
0.0184578
0.0184501
0.0184425
0.018435
0.0184277
0.0184204
0.0184132
0.0184061
0.0183989
0.0183919
0.0183848
0.0183777
0.0183707
0.0183636
0.0183566
0.0183496
0.0183426
0.0183357
0.0183288
0.0183219
0.0183152
0.0183086
0.0183021
0.0182958
0.0182897
0.0182838
0.0182782
0.0182729
0.0182679
0.0182633
0.018259
0.0182552
0.0182519
0.0182491
0.0182468
0.0182451
0.0182439
0.0182435
0.0182436
0.0182445
0.0182461
0.0182484
0.0182514
0.0182553
0.0182598
0.0182652
0.0182714
0.0182783
0.018286
0.0182945
0.0183038
0.0183138
0.0183246
0.0183362
0.0183484
0.0183614
0.0183751
0.0183895
0.0184045
0.0184201
0.0184362
0.018453
0.0184702
0.0184879
0.018506
0.0185246
0.0185434
0.0185626
0.0185812
0.0185723
0.0185637
0.0185553
0.0185471
0.018539
0.0185312
0.0185235
0.018516
0.0185087
0.0185015
0.0184943
0.0184873
0.0184804
0.0184735
0.0184666
0.0184597
0.0184529
0.018446
0.0184392
0.0184323
0.0184255
0.0184186
0.0184117
0.0184048
0.018398
0.0183912
0.0183844
0.0183777
0.0183711
0.0183646
0.0183582
0.018352
0.0183461
0.0183403
0.0183349
0.0183297
0.0183249
0.0183204
0.0183164
0.0183128
0.0183096
0.0183071
0.018305
0.0183036
0.0183027
0.0183025
0.018303
0.0183042
0.0183061
0.0183087
0.0183121
0.0183162
0.0183212
0.0183269
0.0183334
0.0183407
0.0183488
0.0183577
0.0183674
0.0183778
0.0183889
0.0184008
0.0184134
0.0184268
0.0184408
0.0184555
0.0184708
0.0184867
0.0185031
0.0185201
0.0185376
0.0185555
0.0185738
0.0185926
0.0186116
0.0186309
0.0186496
0.0186343
0.0186266
0.018619
0.0186116
0.0186043
0.0185971
0.01859
0.018583
0.0185762
0.0185694
0.0185627
0.018556
0.0185493
0.0185427
0.018536
0.0185294
0.0185227
0.018516
0.0185092
0.0185024
0.0184956
0.0184888
0.018482
0.0184751
0.0184683
0.0184615
0.0184547
0.0184481
0.0184415
0.018435
0.0184287
0.0184226
0.0184166
0.018411
0.0184056
0.0184005
0.0183958
0.0183915
0.0183876
0.0183841
0.0183812
0.0183788
0.0183769
0.0183757
0.0183751
0.0183751
0.0183759
0.0183773
0.0183795
0.0183824
0.0183861
0.0183906
0.0183959
0.0184019
0.0184088
0.0184164
0.0184249
0.0184341
0.0184441
0.0184548
0.0184663
0.0184785
0.0184915
0.0185051
0.0185194
0.0185344
0.0185499
0.0185661
0.0185828
0.0186
0.0186176
0.0186357
0.0186542
0.0186731
0.0186923
0.0187117
0.0187304
0.0187187
0.0187119
0.0187051
0.0186984
0.0186917
0.018685
0.0186784
0.0186718
0.0186652
0.0186587
0.0186521
0.0186456
0.018639
0.0186324
0.0186258
0.0186191
0.0186123
0.0186055
0.0185987
0.0185918
0.0185848
0.0185779
0.0185709
0.0185639
0.0185569
0.01855
0.0185431
0.0185363
0.0185296
0.018523
0.0185166
0.0185104
0.0185044
0.0184987
0.0184932
0.0184882
0.0184835
0.0184792
0.0184753
0.0184719
0.0184691
0.0184668
0.0184651
0.018464
0.0184636
0.0184638
0.0184648
0.0184664
0.0184688
0.018472
0.018476
0.0184807
0.0184863
0.0184926
0.0184998
0.0185077
0.0185164
0.0185259
0.0185362
0.0185473
0.018559
0.0185715
0.0185847
0.0185986
0.0186132
0.0186283
0.0186441
0.0186605
0.0186773
0.0186947
0.0187125
0.0187308
0.0187494
0.0187683
0.0187875
0.0188069
0.0188257
0.0188314
0.0188253
0.0188191
0.0188129
0.0188065
0.0188
0.0187935
0.0187869
0.0187803
0.0187737
0.018767
0.0187602
0.0187533
0.0187464
0.0187394
0.0187324
0.0187252
0.018718
0.0187108
0.0187035
0.0186961
0.0186887
0.0186813
0.0186739
0.0186665
0.0186592
0.018652
0.0186448
0.0186378
0.0186309
0.0186242
0.0186177
0.0186115
0.0186056
0.0186
0.0185948
0.0185899
0.0185856
0.0185816
0.0185782
0.0185754
0.0185731
0.0185715
0.0185704
0.0185701
0.0185704
0.0185715
0.0185733
0.0185759
0.0185793
0.0185834
0.0185884
0.0185941
0.0186007
0.0186081
0.0186163
0.0186252
0.018635
0.0186455
0.0186568
0.0186688
0.0186815
0.0186949
0.018709
0.0187237
0.0187391
0.018755
0.0187715
0.0187885
0.0188059
0.0188239
0.0188421
0.0188608
0.0188797
0.018899
0.0189184
0.0189371
0.0189744
0.0189689
0.0189629
0.0189567
0.0189502
0.0189435
0.0189367
0.0189296
0.0189225
0.0189152
0.0189078
0.0189003
0.0188927
0.018885
0.0188772
0.0188694
0.0188615
0.0188535
0.0188454
0.0188373
0.0188292
0.0188211
0.0188129
0.0188049
0.0187968
0.0187888
0.018781
0.0187732
0.0187656
0.0187583
0.0187511
0.0187442
0.0187376
0.0187313
0.0187254
0.0187198
0.0187148
0.0187101
0.018706
0.0187025
0.0186995
0.0186972
0.0186954
0.0186944
0.0186941
0.0186944
0.0186956
0.0186975
0.0187001
0.0187036
0.0187079
0.018713
0.0187189
0.0187257
0.0187332
0.0187416
0.0187508
0.0187607
0.0187714
0.0187829
0.0187951
0.018808
0.0188216
0.0188358
0.0188506
0.0188661
0.0188821
0.0188987
0.0189158
0.0189334
0.0189513
0.0189697
0.0189883
0.0190073
0.0190264
0.0190458
0.0190644
0.0191375
0.0191321
0.0191261
0.0191195
0.0191124
0.0191049
0.019097
0.019089
0.0190807
0.0190723
0.0190637
0.019055
0.0190462
0.0190373
0.0190284
0.0190194
0.0190103
0.0190013
0.0189922
0.018983
0.018974
0.0189649
0.0189559
0.0189469
0.0189381
0.0189294
0.0189208
0.0189124
0.0189042
0.0188962
0.0188885
0.0188811
0.018874
0.0188673
0.018861
0.0188552
0.0188498
0.018845
0.0188406
0.0188369
0.0188338
0.0188313
0.0188295
0.0188284
0.0188281
0.0188284
0.0188296
0.0188316
0.0188343
0.0188379
0.0188423
0.0188476
0.0188537
0.0188606
0.0188684
0.018877
0.0188863
0.0188965
0.0189075
0.0189192
0.0189316
0.0189448
0.0189585
0.018973
0.018988
0.0190037
0.0190199
0.0190366
0.0190538
0.0190715
0.0190896
0.019108
0.0191268
0.0191458
0.019165
0.0191844
0.019203
0.0192736
0.0192683
0.0192618
0.0192544
0.0192464
0.0192376
0.0192284
0.0192189
0.0192093
0.0191995
0.0191897
0.0191798
0.0191698
0.0191599
0.01915
0.0191401
0.0191303
0.0191205
0.0191107
0.019101
0.0190915
0.019082
0.0190726
0.0190633
0.0190542
0.0190453
0.0190365
0.019028
0.0190197
0.0190117
0.019004
0.0189966
0.0189896
0.0189829
0.0189767
0.018971
0.0189658
0.0189611
0.018957
0.0189535
0.0189506
0.0189484
0.0189469
0.0189461
0.018946
0.0189467
0.0189483
0.0189506
0.0189538
0.0189578
0.0189627
0.0189684
0.0189749
0.0189824
0.0189907
0.0189998
0.0190097
0.0190205
0.0190321
0.0190444
0.0190574
0.0190712
0.0190856
0.0191007
0.0191163
0.0191325
0.0191493
0.0191666
0.0191844
0.0192026
0.0192212
0.0192401
0.0192594
0.0192788
0.0192985
0.0193183
0.0193372
0.0192128
0.0192061
0.0191983
0.0191898
0.0191809
0.0191717
0.0191626
0.0191536
0.0191447
0.0191361
0.0191277
0.0191194
0.0191114
0.0191036
0.0190961
0.0190888
0.0190817
0.0190748
0.0190681
0.0190615
0.0190551
0.0190487
0.0190426
0.0190365
0.0190306
0.0190248
0.0190191
0.0190137
0.0190084
0.0190033
0.0189984
0.0189939
0.0189896
0.0189856
0.018982
0.0189788
0.018976
0.0189737
0.0189719
0.0189707
0.01897
0.01897
0.0189706
0.0189719
0.018974
0.0189767
0.0189803
0.0189847
0.0189899
0.0189959
0.0190028
0.0190105
0.0190191
0.0190285
0.0190389
0.01905
0.019062
0.0190749
0.0190885
0.0191029
0.0191181
0.019134
0.0191505
0.0191677
0.0191855
0.0192039
0.0192228
0.0192421
0.0192619
0.019282
0.0193024
0.0193232
0.0193442
0.0193655
0.0193869
0.0194084
0.0194289
0.0183721
0.0183682
0.0183655
0.0183646
0.0183654
0.0183679
0.0183721
0.0183778
0.018385
0.0183933
0.0184028
0.0184131
0.0184241
0.0184356
0.0184474
0.0184594
0.0184715
0.0184835
0.0184955
0.0185073
0.0185188
0.0185299
0.0185407
0.0185511
0.0185612
0.018571
0.0185805
0.0185896
0.0185984
0.0186069
0.0186152
0.0186233
0.0186312
0.018639
0.0186467
0.0186545
0.0186622
0.0186701
0.0186781
0.0186864
0.0186949
0.0187038
0.0187131
0.0187229
0.0187331
0.018744
0.0187554
0.0187675
0.0187803
0.0187937
0.018808
0.018823
0.0188388
0.0188553
0.0188727
0.0188909
0.0189098
0.0189295
0.01895
0.0189712
0.018993
0.0190156
0.0190387
0.0190624
0.0190867
0.0191115
0.0191366
0.0191622
0.0191881
0.0192142
0.0192406
0.0192672
0.0192938
0.0193205
0.0193472
0.0193738
0.0193994
0.0155367
0.0155784
0.0156276
0.0156832
0.0157444
0.0158102
0.0158795
0.0159516
0.0160255
0.0161007
0.0161765
0.0162523
0.0163277
0.0164024
0.016476
0.0165483
0.016619
0.016688
0.0167553
0.0168208
0.0168842
0.0169457
0.0170051
0.0170625
0.0171178
0.0171711
0.0172224
0.0172718
0.0173194
0.0173653
0.0174094
0.0174521
0.0174933
0.0175331
0.0175718
0.0176094
0.0176461
0.0176819
0.017717
0.0177514
0.0177855
0.0178192
0.0178527
0.0178862
0.0179196
0.0179532
0.0179869
0.0180209
0.0180553
0.01809
0.0181252
0.0181608
0.0181969
0.0182336
0.0182708
0.0183085
0.0183467
0.0183854
0.0184245
0.0184641
0.0185041
0.0185445
0.0185851
0.018626
0.0186671
0.0187083
0.0187495
0.0187908
0.0188319
0.018873
0.0189139
0.0189545
0.0189948
0.0190347
0.0190741
0.019112
0.0106344
0.0107365
0.0108531
0.0109825
0.0111227
0.0112719
0.0114275
0.0115881
0.0117522
0.0119184
0.0120858
0.0122532
0.0124199
0.0125853
0.0127488
0.0129098
0.013068
0.0132231
0.0133749
0.013523
0.0136673
0.0138079
0.0139444
0.014077
0.0142056
0.0143302
0.0144508
0.0145676
0.0146807
0.0147901
0.014896
0.0149986
0.015098
0.0151944
0.0152882
0.0153793
0.0154682
0.015555
0.0156398
0.0157229
0.0158045
0.0158848
0.0159639
0.0160421
0.0161196
0.0161964
0.0162727
0.0163486
0.0164243
0.0164998
0.0165753
0.0166507
0.0167261
0.0168017
0.0168772
0.0169528
0.0170284
0.017104
0.0171796
0.0172551
0.0173305
0.0174057
0.0174807
0.0175553
0.0176294
0.017703
0.017776
0.0178483
0.0179199
0.0179905
0.0180602
0.0181289
0.0181966
0.0182631
0.0183283
0.018391
0.00640206
0.00649436
0.00660397
0.00672913
0.00686797
0.00701852
0.00717892
0.00734752
0.00752283
0.00770348
0.0078883
0.00807621
0.00826628
0.00845772
0.00864986
0.00884207
0.00903379
0.00922455
0.00941391
0.0096015
0.00978699
0.00997009
0.0101505
0.0103282
0.0105027
0.0106742
0.0108423
0.0110072
0.0111687
0.011327
0.0114819
0.0116337
0.0117824
0.0119282
0.0120711
0.0122114
0.0123492
0.0124848
0.0126182
0.0127499
0.0128801
0.013009
0.0131368
0.0132636
0.0133898
0.0135153
0.0136405
0.0137655
0.0138903
0.0140151
0.0141399
0.014265
0.0143902
0.0145158
0.0146416
0.0147676
0.0148938
0.0150199
0.015146
0.015272
0.0153978
0.015523
0.0156476
0.0157713
0.0158939
0.0160152
0.0161352
0.0162536
0.0163704
0.0164855
0.0165987
0.01671
0.0168193
0.0169265
0.0170316
0.0171329
0.00423191
0.00428172
0.00434775
0.00442889
0.0045237
0.0046305
0.0047478
0.00487441
0.00500924
0.00515124
0.0052994
0.00545281
0.00561063
0.00573426
0.00586449
0.00600542
0.00615584
0.0063146
0.00648057
0.00665274
0.00683012
0.00701193
0.00719746
0.00738625
0.0075781
0.00777264
0.00794623
0.00810896
0.00826986
0.00842894
0.00858619
0.00874165
0.00889536
0.00904738
0.0091978
0.00934678
0.00949447
0.00964109
0.00978683
0.00993193
0.0100766
0.0102212
0.0103658
0.0105107
0.0106562
0.0108024
0.0109495
0.0110978
0.0112474
0.0113984
0.011551
0.0117053
0.0118613
0.0120191
0.0121786
0.0123399
0.0125027
0.0126669
0.0128321
0.0129981
0.0131644
0.0133307
0.0134968
0.0136623
0.013827
0.0139907
0.0141533
0.0143147
0.0144746
0.014633
0.0147898
0.0149446
0.0150974
0.0152481
0.0153966
0.0155411
0.00368688
0.00367517
0.00351676
0.00336647
0.00325739
0.0032076
0.00320346
0.00322776
0.00327471
0.00333971
0.00341999
0.00351345
0.00361808
0.00373237
0.0038553
0.00398582
0.00412171
0.00426283
0.00440896
0.00455975
0.00471471
0.00487341
0.00503528
0.00519987
0.0053669
0.0055358
0.00570578
0.00587607
0.00604613
0.00621557
0.0063839
0.00655062
0.00671524
0.00687732
0.0070364
0.00719203
0.00734382
0.00749143
0.00763458
0.00777303
0.00790658
0.00803512
0.00815853
0.00827675
0.00838974
0.00849753
0.00860018
0.00869781
0.00879062
0.00887885
0.00896278
0.0090428
0.00911932
0.00919281
0.00926378
0.00933279
0.00940047
0.00946748
0.00953453
0.00960235
0.00967194
0.00974431
0.00981971
0.00989897
0.00998292
0.0100719
0.0101662
0.0102674
0.0103762
0.0104932
0.0106193
0.0107536
0.0108948
0.0110398
0.0111741
0.011369
0.00327602
0.00338999
0.00364004
0.0038275
0.00405029
0.00427983
0.0044968
0.00470507
0.00490525
0.00509482
0.00527907
0.00545906
0.00563629
0.00581243
0.00598962
0.00616987
0.0063505
0.00653106
0.0067113
0.00689134
0.00707123
0.00725142
0.00742607
0.00759289
0.00775325
0.00790925
0.00806269
0.00821357
0.00836185
0.00850734
0.00864989
0.00878831
0.00892241
0.0090523
0.00917781
0.00929888
0.00941548
0.00952746
0.00963455
0.00973651
0.0098331
0.00992406
0.0100092
0.0100883
0.0101615
0.0102288
0.0102903
0.0103461
0.0103962
0.0104409
0.0104805
0.0105152
0.0105456
0.0105718
0.0105943
0.0106136
0.0106303
0.0106448
0.0106578
0.01067
0.010682
0.0106944
0.0107081
0.0107239
0.0107423
0.0107641
0.0107895
0.0108194
0.0108541
0.0108939
0.0109384
0.0109865
0.0110345
0.0110666
0.011157
0.00806352
0.0112985
0.0108933
0.0108835
0.0111034
0.0110883
0.0110983
0.0110119
0.0108737
0.0105784
0.0102826
0.00998059
0.00969243
0.00942603
0.00918325
0.00938623
0.00962992
0.00981447
0.00996545
0.0100955
0.0102149
0.0103321
0.0104471
0.0105572
0.010666
0.0107748
0.0108837
0.0109933
0.0111046
0.0112182
0.0113336
0.0114515
0.0115712
0.011692
0.0118134
0.0119344
0.0120542
0.0121722
0.0122882
0.0124015
0.0125115
0.0126184
0.0127223
0.0128232
0.012921
0.0130156
0.0131067
0.0131942
0.0132777
0.0133568
0.013431
0.0135003
0.0135641
0.0136221
0.0136742
0.0137205
0.0137613
0.0137969
0.0138277
0.0138543
0.0138773
0.0138974
0.0139153
0.0139319
0.0139474
0.0139619
0.013976
0.0139905
0.0140061
0.0140228
0.0140406
0.014058
0.014071
0.0140584
0.0141115
0.0126795
0.0133858
0.0132822
0.0131419
0.0131847
0.0133213
0.0135371
0.0137588
0.0139754
0.0141287
0.0143084
0.0144899
0.0146707
0.0148485
0.0150188
0.0151789
0.0153271
0.015466
0.0155979
0.0157247
0.0158868
0.0160828
0.0162727
0.0164415
0.0166062
0.0156356
0.0148544
0.0142387
0.0137525
0.013364
0.0135753
0.0137656
0.0139395
0.0141015
0.0142584
0.0144103
0.0145542
0.0146956
0.0148391
0.0149873
0.0151412
0.0153013
0.015468
0.0156411
0.0158198
0.0160032
0.0161902
0.0163791
0.0165679
0.0167545
0.0169361
0.0171112
0.0172791
0.0174384
0.0175885
0.017729
0.0178599
0.0179818
0.0180957
0.0182024
0.0183029
0.0183976
0.0184866
0.0185703
0.0186481
0.0187185
0.0187732
0.0187685
0.018765
0.0187632
0.0187638
0.0187675
0.0187749
0.0187872
0.0188057
0.00996587
0.0102644
0.0105162
0.0107697
0.0110604
0.0113128
0.0115889
0.0118416
0.012095
0.0123512
0.0126192
0.0129057
0.0131891
0.0134878
0.01378
0.0140455
0.0143021
0.0145584
0.0148174
0.0150765
0.0153352
0.0155895
0.015843
0.0160968
0.0163507
0.0166009
0.0168428
0.0170748
0.0172963
0.0175064
0.0177031
0.0178889
0.018065
0.0182328
0.0183942
0.0185499
0.018696
0.0188352
0.01897
0.0191021
0.0192324
0.0193612
0.0194889
0.0196153
0.0197401
0.0198641
0.0199887
0.0201106
0.0202279
0.0203392
0.0204437
0.0205418
0.020633
0.0207171
0.0207948
0.0208673
0.0209355
0.0210004
0.0210626
0.0211221
0.0211789
0.0212322
0.0212808
0.021323
0.0213553
0.0213673
0.0213576
0.0213314
0.0212936
0.0212483
0.0212
0.0211518
0.021106
0.0210648
0.0210288
0.00848434
0.00893079
0.00933355
0.00970578
0.0100843
0.0103663
0.0106373
0.0109045
0.0111692
0.011428
0.0116806
0.0119282
0.0121707
0.0124046
0.0126289
0.0128444
0.0130556
0.0132683
0.0134863
0.013711
0.0139426
0.0141802
0.014428
0.0146826
0.0149426
0.015205
0.0154675
0.0157281
0.0159818
0.0162216
0.0164512
0.0166727
0.0168883
0.0171025
0.017319
0.0175327
0.0177412
0.0179447
0.0181429
0.0183365
0.0185261
0.0187124
0.0188948
0.0190733
0.0192476
0.0194179
0.0195843
0.0197468
0.0199052
0.0200595
0.0202093
0.0203547
0.0204958
0.0206329
0.0207662
0.0208965
0.0210242
0.02115
0.0212742
0.021397
0.021518
0.0216366
0.0217517
0.0218619
0.0219653
0.0220594
0.0221422
0.0222127
0.0222708
0.0223167
0.02235
0.0223713
0.0223823
0.0223853
0.022386
0.00745897
0.00785548
0.00820027
0.00855761
0.00932243
0.00962867
0.00991058
0.0101832
0.0104503
0.010707
0.0109547
0.0111955
0.011431
0.0116617
0.0118873
0.0121027
0.0123143
0.0125259
0.0127394
0.0129558
0.0131745
0.0133945
0.0136149
0.013835
0.0140545
0.014273
0.01449
0.0147055
0.0149172
0.0151241
0.0153265
0.015525
0.0157201
0.015913
0.0161046
0.0162951
0.0164846
0.0166737
0.0168623
0.0170498
0.0172359
0.0174206
0.0176033
0.0177839
0.0179621
0.0181376
0.0183106
0.0184812
0.0186497
0.0188161
0.0189809
0.0191444
0.0193066
0.0194679
0.0196284
0.0197882
0.0199474
0.0201062
0.0202644
0.020422
0.0205787
0.0207339
0.0208868
0.0210366
0.0211818
0.0213188
0.0214452
0.0215626
0.0216724
0.0217765
0.0218769
0.021976
0.0220771
0.0221799
0.022283
0.0084016
0.00854561
0.00884268
0.00925781
0.00933363
0.00949482
0.00967178
0.00985665
0.00990022
0.0102064
0.0103626
0.010524
0.0106967
0.0108825
0.0110797
0.0112854
0.0114964
0.0117108
0.0119277
0.0121457
0.0123635
0.0125791
0.0127914
0.0129998
0.0132043
0.0134049
0.0136003
0.0137914
0.0139798
0.0141663
0.014351
0.0145341
0.0147158
0.014896
0.0150752
0.0152533
0.0154308
0.0156077
0.0157842
0.0159605
0.0161364
0.016312
0.016487
0.0166613
0.0168348
0.0170071
0.0171781
0.0173475
0.0175152
0.017681
0.0178451
0.0180073
0.018168
0.0183273
0.0184852
0.0186421
0.018798
0.0189531
0.0191076
0.0192616
0.019415
0.0195679
0.0197201
0.0198714
0.0200217
0.0201704
0.0203172
0.0204613
0.020602
0.020739
0.0208716
0.0209998
0.0211239
0.0212452
0.0213649
0.021478
0.00334049
0.00382184
0.00434508
0.00495438
0.00549826
0.00606694
0.00662149
0.00714885
0.00764665
0.00813188
0.00859074
0.00902089
0.00941915
0.0097875
0.010146
0.0104775
0.0107841
0.0110793
0.0113535
0.0116071
0.0118415
0.0120582
0.0122592
0.0124463
0.012622
0.0127885
0.0129485
0.0131046
0.0132586
0.0134115
0.0135639
0.0137168
0.0138708
0.0140266
0.0141843
0.014344
0.014506
0.0146706
0.0148381
0.0150081
0.0151805
0.0153549
0.0155307
0.0157076
0.015885
0.0160624
0.0162392
0.0164147
0.0165884
0.0167598
0.0169289
0.0170956
0.01726
0.0174222
0.0175825
0.017741
0.0178979
0.0180535
0.0182078
0.0183611
0.0185136
0.0186654
0.0188166
0.0189673
0.0191176
0.0192674
0.0194167
0.0195655
0.0197138
0.0198613
0.0200079
0.0201535
0.0202979
0.0204414
0.020584
0.0207195
0.00465112
0.00441727
0.00437755
0.00439471
0.0044801
0.0046191
0.00480246
0.0050205
0.00526917
0.0055413
0.00582975
0.00612682
0.00642605
0.00671918
0.00700132
0.00726991
0.00752428
0.00776437
0.00800821
0.00825364
0.00849951
0.00874556
0.0089912
0.00923595
0.00948
0.00972287
0.0099644
0.0102012
0.0104343
0.0106656
0.0108963
0.0111268
0.0113582
0.0115908
0.0118239
0.0120586
0.0122957
0.0125362
0.0127808
0.0130304
0.0132856
0.0135468
0.0138139
0.0140869
0.0143655
0.0146488
0.014936
0.0152252
0.0155215
0.0157709
0.0159632
0.0161497
0.0163312
0.0165086
0.0166822
0.0168527
0.0170206
0.0171863
0.0173501
0.0175124
0.0176734
0.0178336
0.0179931
0.0181521
0.018311
0.0184698
0.0186286
0.0187874
0.0189463
0.0191054
0.0192647
0.0194242
0.0195841
0.0197443
0.0199049
0.0200592
0.00921912
0.00900727
0.00868017
0.00797785
0.00746793
0.00710887
0.00685326
0.00666496
0.00654297
0.00649968
0.0065541
0.0066322
0.00673203
0.00685383
0.006995
0.00714923
0.00731516
0.00748727
0.00764787
0.00779803
0.00793679
0.00806359
0.00817837
0.00828153
0.00837438
0.00846144
0.0085489
0.00865028
0.00876412
0.00889047
0.00902825
0.00917694
0.00933636
0.00950581
0.0096821
0.009865
0.0100545
0.0102505
0.0104528
0.0106618
0.0108758
0.0110948
0.0113186
0.0115471
0.0117802
0.0120179
0.0122598
0.0125062
0.0127569
0.0130121
0.0132715
0.0135348
0.013802
0.0140729
0.0143475
0.0146254
0.0149065
0.0151906
0.0154775
0.0157672
0.016059
0.0163524
0.0166466
0.0169453
0.0172603
0.0175725
0.0178795
0.0180846
0.0182651
0.0184437
0.0186208
0.0187972
0.0189731
0.0191489
0.0193247
0.0194951
0.0132868
0.0130596
0.0128635
0.012693
0.0125406
0.0124019
0.0122729
0.0121525
0.0120403
0.0119368
0.0118413
0.0116688
0.0115103
0.0113823
0.0112828
0.0112085
0.011158
0.011131
0.0111244
0.0111336
0.0111554
0.0111874
0.0112277
0.0112731
0.0113217
0.0113591
0.0113766
0.0113772
0.011362
0.0113332
0.0112936
0.0112459
0.0111978
0.011164
0.0111442
0.0111387
0.0111474
0.0111696
0.0112035
0.0112474
0.0113016
0.0113662
0.0114412
0.0115262
0.0116208
0.0117247
0.0118378
0.0119605
0.0120925
0.0122337
0.0123835
0.0125417
0.0127077
0.0128811
0.0130617
0.0132491
0.013443
0.0136437
0.0138507
0.0140639
0.0142828
0.0145074
0.0147377
0.0149733
0.0152133
0.0154571
0.0157037
0.0159523
0.0162016
0.0164504
0.0166973
0.0169405
0.0171771
0.0174192
0.0177762
0.0167006
0.0165474
0.0164022
0.0162631
0.0161279
0.0159951
0.0158637
0.0157332
0.0156032
0.0154742
0.0153465
0.015221
0.0150985
0.01498
0.0148664
0.0147587
0.0146578
0.0145645
0.0144793
0.0144027
0.014335
0.0142764
0.0142269
0.0141863
0.0141544
0.014131
0.0141155
0.0141078
0.0141076
0.0141144
0.0141281
0.014148
0.014174
0.0142058
0.0142435
0.0142872
0.0143368
0.0143925
0.014454
0.0145196
0.0145894
0.0146636
0.0147424
0.014826
0.0149148
0.015009
0.0151088
0.0151473
0.0150652
0.0149915
0.0149269
0.0148719
0.0148272
0.0147939
0.0147726
0.0147636
0.0147673
0.0147835
0.0148122
0.0148536
0.0149079
0.014975
0.0150546
0.0151463
0.0152497
0.0153644
0.0154899
0.0156251
0.0157691
0.0159204
0.0160781
0.0162414
0.0164117
0.0165986
0.0168578
0.018606
0.0185312
0.0184557
0.0183793
0.0183018
0.0182227
0.018142
0.0180594
0.0179749
0.0178887
0.0178009
0.0177116
0.0176213
0.0175303
0.0174391
0.0173481
0.017258
0.0171691
0.0170821
0.0169975
0.0169157
0.0168372
0.0167624
0.0166918
0.0166255
0.0165638
0.0165069
0.0164549
0.016408
0.0163663
0.0163298
0.0162986
0.0162728
0.0162522
0.0162369
0.016227
0.0162225
0.0162232
0.0162287
0.0162391
0.0162543
0.0162745
0.0162998
0.0163302
0.0163653
0.0164048
0.0164488
0.0164975
0.0165509
0.0166093
0.0166727
0.0167414
0.0168152
0.0168943
0.0169786
0.0170682
0.017163
0.0172631
0.0173683
0.0174788
0.0175944
0.0177151
0.0178409
0.0179717
0.0181074
0.0182479
0.0183931
0.0185429
0.018697
0.0187461
0.0187575
0.0187799
0.0188221
0.0189104
0.0190605
0.0194189
0.0193953
0.0193686
0.0193391
0.0193071
0.0192727
0.0192362
0.0191975
0.0191569
0.0191142
0.0190697
0.0190233
0.0189751
0.0189252
0.0188736
0.0188206
0.0187663
0.0187108
0.0186544
0.0185972
0.0185395
0.0184815
0.0184236
0.0183661
0.0183093
0.0182535
0.0181989
0.018146
0.0180949
0.018046
0.0179994
0.0179556
0.0179145
0.0178765
0.0178417
0.0178103
0.0177825
0.0177585
0.0177381
0.0177214
0.0177086
0.0176997
0.0176947
0.0176938
0.0176968
0.0177036
0.0177144
0.0177291
0.017748
0.0177708
0.0177974
0.017828
0.0178624
0.0179008
0.0179432
0.0179898
0.0180405
0.0180955
0.0181549
0.0182187
0.018287
0.0183599
0.0184375
0.0185198
0.0186069
0.0186988
0.0187956
0.0188973
0.0190039
0.0191155
0.019232
0.0193533
0.0194791
0.0196091
0.0197383
0.0195481
0.0195554
0.0195591
0.0195597
0.0195576
0.0195532
0.0195467
0.0195382
0.019528
0.0195159
0.0195021
0.0194866
0.0194693
0.0194502
0.0194292
0.0194064
0.0193817
0.0193552
0.0193268
0.0192967
0.0192649
0.0192315
0.0191966
0.0191604
0.0191231
0.0190849
0.0190461
0.0190069
0.0189675
0.0189284
0.0188898
0.0188518
0.0188149
0.0187792
0.0187451
0.0187126
0.018682
0.0186536
0.0186275
0.0186037
0.0185826
0.0185641
0.0185485
0.0185358
0.0185261
0.0185192
0.0185153
0.0185144
0.0185165
0.0185216
0.0185296
0.0185405
0.0185541
0.0185706
0.0185898
0.0186118
0.0186367
0.0186644
0.0186951
0.0187288
0.0187655
0.0188053
0.0188484
0.0188948
0.0189446
0.0189979
0.0190549
0.0191157
0.0191803
0.0192489
0.0193217
0.0193987
0.0194799
0.0195653
0.0196512
0.0187516
0.0193536
0.0193715
0.0193867
0.0193996
0.0194106
0.0194198
0.0194274
0.0194335
0.0194381
0.0194413
0.019443
0.0194432
0.0194417
0.0194385
0.0194334
0.0194265
0.0194175
0.0194066
0.0193937
0.0193787
0.0193618
0.019343
0.0193223
0.0192999
0.0192759
0.0192504
0.0192237
0.019196
0.0191675
0.0191385
0.0191092
0.01908
0.019051
0.0190225
0.0189948
0.018968
0.0189423
0.018918
0.0188952
0.0188741
0.0188548
0.0188374
0.018822
0.0188087