/*--------------------------------*- C++ -*----------------------------------*\
  =========                 |
  \\      /  F ield         | OpenFOAM: The Open Source CFD Toolbox
   \\    /   O peration     | Website:  https://openfoam.org
    \\  /    A nd           | Version:  13
     \\/     M anipulation  |
\*---------------------------------------------------------------------------*/
FoamFile
{
    format      ascii;
    class       volScalarField;
    location    "100";
    object      omega;
}
// * * * * * * * * * * * * * * * * * * * * * * * * * * * * * * * * * * * * * //

dimensions      [0 0 -1 0 0 0 0];

internalField   nonuniform List<scalar> 
173327
(
14.9477
14.8932
14.8392
14.7859
14.7331
14.681
14.6294
14.5785
14.528
14.4781
14.4286
14.3797
14.3312
14.2831
14.2354
14.188
14.141
14.0943
14.0479
14.0017
13.9558
13.9101
13.8646
13.8193
13.7743
13.7294
13.6846
13.6401
13.5958
13.5517
13.5077
13.464
13.4204
13.3771
13.334
13.2911
13.2484
13.2061
13.164
13.1222
13.0806
13.0395
12.9986
12.9581
12.9179
12.8781
12.8387
12.7996
12.761
12.7228
12.685
12.6477
12.6107
12.5743
12.5383
12.5027
12.4676
12.433
12.3989
12.3652
12.3319
12.2992
12.267
12.2352
12.204
12.1733
12.1431
12.1134
12.0842
12.0556
12.0275
12
11.973
11.9466
11.9207
11.8954
11.8708
14.9497
14.8953
14.8414
14.7882
14.7355
14.6835
14.632
14.5811
14.5308
14.4809
14.4316
14.3827
14.3343
14.2863
14.2387
14.1914
14.1445
14.0978
14.0515
14.0054
13.9596
13.9139
13.8685
13.8233
13.7783
13.7335
13.6888
13.6443
13.6
13.5559
13.512
13.4683
13.4247
13.3814
13.3383
13.2954
13.2528
13.2104
13.1683
13.1264
13.0849
13.0437
13.0028
12.9623
12.9221
12.8822
12.8428
12.8037
12.7651
12.7269
12.6891
12.6518
12.6149
12.5784
12.5425
12.507
12.472
12.4375
12.4034
12.3699
12.3368
12.3043
12.2723
12.2408
12.2098
12.1793
12.1494
12.12
12.0911
12.0628
12.035
12.0078
11.9812
11.9551
11.9295
11.9046
11.8803
14.9533
14.899
14.8453
14.7922
14.7397
14.6878
14.6364
14.5856
14.5354
14.4857
14.4365
14.3877
14.3394
14.2915
14.244
14.1969
14.15
14.1035
14.0572
14.0112
13.9654
13.9199
13.8745
13.8294
13.7844
13.7397
13.695
13.6506
13.6064
13.5623
13.5184
13.4747
13.4311
13.3878
13.3447
13.3018
13.2592
13.2168
13.1747
13.1328
13.0913
13.0501
13.0092
12.9686
12.9284
12.8885
12.8491
12.81
12.7714
12.7332
12.6954
12.6581
12.6212
12.5848
12.5489
12.5134
12.4785
12.444
12.4101
12.3766
12.3437
12.3113
12.2794
12.2481
12.2172
12.187
12.1572
12.128
12.0994
12.0713
12.0438
12.0168
11.9904
11.9646
11.9394
11.9147
11.8907
14.959
14.9049
14.8514
14.7985
14.7461
14.6944
14.6432
14.5926
14.5426
14.493
14.4439
14.3953
14.3472
14.2994
14.252
14.2049
14.1582
14.1117
14.0655
14.0196
13.9739
13.9284
13.8831
13.838
13.7931
13.7484
13.7038
13.6594
13.6152
13.5711
13.5272
13.4835
13.44
13.3967
13.3536
13.3107
13.2681
13.2257
13.1836
13.1418
13.1002
13.059
13.0181
12.9775
12.9373
12.8975
12.8581
12.819
12.7804
12.7423
12.7045
12.6672
12.6304
12.5941
12.5582
12.5228
12.488
12.4536
12.4198
12.3864
12.3536
12.3212
12.2895
12.2582
12.2275
12.1974
12.1678
12.1388
12.1103
12.0824
12.0551
12.0283
12.0021
11.9765
11.9515
11.9271
11.9034
14.9672
14.9134
14.8601
14.8075
14.7554
14.7039
14.6529
14.6026
14.5527
14.5034
14.4545
14.4061
14.3581
14.3104
14.2632
14.2162
14.1696
14.1233
14.0772
14.0313
13.9857
13.9403
13.895
13.85
13.8051
13.7604
13.7158
13.6715
13.6272
13.5832
13.5393
13.4956
13.4521
13.4088
13.3657
13.3228
13.2802
13.2378
13.1957
13.1539
13.1123
13.0711
13.0302
12.9896
12.9495
12.9097
12.8702
12.8312
12.7927
12.7545
12.7168
12.6796
12.6428
12.6065
12.5708
12.5355
12.5007
12.4664
12.4326
12.3994
12.3666
12.3344
12.3028
12.2716
12.2411
12.2111
12.1816
12.1527
12.1244
12.0967
12.0695
12.0429
12.0169
11.9915
11.9667
11.9425
11.9189
14.9786
14.9251
14.8721
14.8198
14.768
14.7169
14.6662
14.6161
14.5665
14.5174
14.4688
14.4206
14.3728
14.3253
14.2782
14.2314
14.1849
14.1387
14.0927
14.0469
14.0014
13.956
13.9108
13.8658
13.8209
13.7763
13.7317
13.6874
13.6431
13.5991
13.5552
13.5115
13.468
13.4246
13.3815
13.3386
13.296
13.2536
13.2114
13.1696
13.128
13.0868
13.0459
13.0053
12.9652
12.9254
12.886
12.847
12.8084
12.7703
12.7327
12.6955
12.6587
12.6225
12.5868
12.5515
12.5168
12.4826
12.4489
12.4157
12.3831
12.351
12.3194
12.2884
12.258
12.2281
12.1988
12.17
12.1419
12.1143
12.0872
12.0608
12.035
12.0097
11.985
11.961
11.9376
14.994
14.9409
14.8884
14.8364
14.785
14.7342
14.6839
14.6342
14.5849
14.5361
14.4877
14.4397
14.3921
14.3449
14.298
14.2513
14.205
14.1588
14.1129
14.0673
14.0218
13.9764
13.9313
13.8863
13.8415
13.7968
13.7522
13.7079
13.6636
13.6195
13.5756
13.5319
13.4883
13.445
13.4018
13.3589
13.3162
13.2737
13.2316
13.1897
13.1481
13.1068
13.0659
13.0253
12.9851
12.9453
12.9059
12.8669
12.8284
12.7903
12.7526
12.7155
12.6788
12.6426
12.6069
12.5717
12.537
12.5029
12.4692
12.4361
12.4036
12.3715
12.3401
12.3092
12.2788
12.249
12.2198
12.1912
12.1631
12.1357
12.1088
12.0825
12.0567
12.0316
12.0071
11.9831
11.9599
15.0147
14.9621
14.9101
14.8586
14.8077
14.7573
14.7074
14.658
14.609
14.5605
14.5125
14.4647
14.4174
14.3703
14.3236
14.2771
14.2308
14.1848
14.139
14.0934
14.0479
14.0026
13.9575
13.9125
13.8676
13.8229
13.7784
13.7339
13.6896
13.6455
13.6015
13.5577
13.5141
13.4707
13.4274
13.3844
13.3417
13.2991
13.2569
13.2149
13.1733
13.132
13.091
13.0504
13.0101
12.9703
12.9308
12.8918
12.8533
12.8151
12.7775
12.7403
12.7036
12.6674
12.6318
12.5966
12.562
12.5279
12.4943
12.4612
12.4287
12.3967
12.3653
12.3345
12.3042
12.2745
12.2454
12.2168
12.1889
12.1615
12.1347
12.1085
12.0829
12.0578
12.0334
12.0096
11.9864
15.0426
14.9906
14.9391
14.8882
14.8377
14.7878
14.7383
14.6893
14.6407
14.5925
14.5447
14.4972
14.4501
14.4032
14.3566
14.3102
14.2641
14.2181
14.1723
14.1267
14.0813
14.0359
13.9908
13.9457
13.9008
13.856
13.8113
13.7668
13.7224
13.6782
13.6341
13.5901
13.5464
13.5028
13.4595
13.4163
13.3735
13.3308
13.2885
13.2464
13.2046
13.1632
13.1221
13.0814
13.0411
13.0012
12.9617
12.9226
12.884
12.8458
12.8081
12.7709
12.7342
12.698
12.6623
12.6271
12.5925
12.5584
12.5248
12.4918
12.4593
12.4273
12.396
12.3652
12.3349
12.3053
12.2762
12.2477
12.2198
12.1925
12.1658
12.1396
12.1141
12.0891
12.0648
12.041
12.0179
15.0804
15.029
14.9781
14.9277
14.8778
14.8283
14.7792
14.7305
14.6823
14.6343
14.5867
14.5395
14.4924
14.4457
14.3991
14.3528
14.3066
14.2607
14.2148
14.1691
14.1236
14.0781
14.0328
13.9876
13.9426
13.8976
13.8528
13.808
13.7635
13.719
13.6747
13.6306
13.5866
13.5429
13.4993
13.456
13.4129
13.3701
13.3276
13.2853
13.2434
13.2018
13.1606
13.1197
13.0793
13.0392
12.9996
12.9604
12.9216
12.8834
12.8456
12.8083
12.7715
12.7353
12.6995
12.6643
12.6296
12.5955
12.5619
12.5288
12.4963
12.4643
12.433
12.4022
12.3719
12.3423
12.3132
12.2847
12.2569
12.2295
12.2028
12.1767
12.1512
12.1263
12.1019
12.0782
12.0551
15.132
15.0813
15.0309
14.981
14.9315
14.8823
14.8336
14.7852
14.7371
14.6893
14.6418
14.5945
14.5475
14.5007
14.454
14.4076
14.3613
14.3151
14.2691
14.2231
14.1773
14.1316
14.086
14.0405
13.9951
13.9499
13.9047
13.8597
13.8148
13.77
13.7254
13.6809
13.6367
13.5926
13.5487
13.5051
13.4617
13.4186
13.3758
13.3333
13.2911
13.2493
13.2078
13.1667
13.126
13.0857
13.0459
13.0065
12.9676
12.9292
12.8912
12.8538
12.8169
12.7805
12.7446
12.7093
12.6745
12.6403
12.6066
12.5734
12.5408
12.5088
12.4774
12.4465
12.4162
12.3865
12.3574
12.3289
12.3009
12.2736
12.2468
12.2207
12.1951
12.1702
12.1458
12.122
12.0989
15.2034
15.1532
15.1033
15.0536
15.0043
14.9553
14.9066
14.8582
14.81
14.7621
14.7144
14.6668
14.6195
14.5724
14.5253
14.4785
14.4317
14.3851
14.3386
14.2922
14.2458
14.1996
14.1535
14.1074
14.0615
14.0157
13.97
13.9244
13.879
13.8337
13.7886
13.7436
13.6988
13.6543
13.61
13.5659
13.522
13.4785
13.4353
13.3923
13.3498
13.3075
13.2657
13.2243
13.1832
13.1426
13.1025
13.0628
13.0236
12.9849
12.9467
12.909
12.8719
12.8352
12.7992
12.7636
12.7287
12.6942
12.6604
12.6271
12.5943
12.5621
12.5305
12.4995
12.4691
12.4392
12.41
12.3813
12.3532
12.3258
12.2989
12.2726
12.247
12.2219
12.1974
12.1735
12.1504
15.3039
15.2539
15.204
15.1543
15.1048
15.0554
15.0063
14.9573
14.9085
14.8599
14.8115
14.7632
14.7151
14.667
14.6191
14.5714
14.5237
14.4761
14.4287
14.3813
14.3341
14.2869
14.2398
14.1929
14.146
14.0993
14.0527
14.0063
13.96
13.9139
13.8679
13.8222
13.7766
13.7313
13.6863
13.6415
13.597
13.5528
13.5089
13.4654
13.4222
13.3794
13.337
13.295
13.2535
13.2124
13.1718
13.1317
13.092
13.0529
13.0143
12.9762
12.9387
12.9017
12.8653
12.8294
12.7941
12.7593
12.7252
12.6916
12.6585
12.6261
12.5942
12.5629
12.5322
12.5021
12.4726
12.4437
12.4154
12.3877
12.3606
12.3341
12.3082
12.2829
12.2582
12.2341
12.2107
15.4497
15.3993
15.3489
15.2983
15.2477
15.1972
15.1467
15.0962
15.0459
14.9956
14.9455
14.8955
14.8456
14.7958
14.7462
14.6966
14.6472
14.5979
14.5487
14.4997
14.4507
14.4019
14.3533
14.3048
14.2564
14.2082
14.1601
14.1123
14.0646
14.0171
13.9699
13.9229
13.8761
13.8297
13.7835
13.7376
13.692
13.6468
13.6019
13.5574
13.5133
13.4696
13.4264
13.3836
13.3412
13.2994
13.258
13.2172
13.1769
13.1371
13.0978
13.0591
13.021
12.9834
12.9464
12.91
12.8741
12.8389
12.8042
12.7701
12.7366
12.7036
12.6713
12.6395
12.6083
12.5778
12.5478
12.5185
12.4898
12.4617
12.4342
12.4073
12.381
12.3554
12.3303
12.3059
12.2821
15.674
15.6223
15.5699
15.5171
15.4638
15.4103
15.3566
15.3029
15.2491
15.1954
15.1418
15.0882
15.0349
14.9816
14.9285
14.8756
14.8229
14.7704
14.718
14.6659
14.614
14.5623
14.5108
14.4596
14.4085
14.3578
14.3073
14.257
14.207
14.1573
14.108
14.0589
14.0101
13.9617
13.9136
13.8659
13.8186
13.7717
13.7252
13.6792
13.6336
13.5884
13.5438
13.4996
13.456
13.4128
13.3702
13.3282
13.2867
13.2458
13.2054
13.1657
13.1265
13.0879
13.0499
13.0126
12.9758
12.9396
12.9041
12.8691
12.8347
12.801
12.7678
12.7352
12.7032
12.6719
12.6412
12.6111
12.5816
12.5528
12.5246
12.4971
12.4702
12.4439
12.4182
12.3931
12.3688
16.0542
15.9993
15.9428
15.885
15.8261
15.7662
15.7058
15.6451
15.5842
15.5232
15.4624
15.4017
15.3412
15.2809
15.221
15.1614
15.1022
15.0433
14.9848
14.9267
14.869
14.8118
14.7549
14.6985
14.6425
14.5869
14.5318
14.477
14.4228
14.369
14.3156
14.2627
14.2103
14.1583
14.1069
14.0559
14.0054
13.9554
13.906
13.8571
13.8087
13.7609
13.7137
13.667
13.6209
13.5754
13.5305
13.4862
13.4426
13.3995
13.3571
13.3153
13.2741
13.2336
13.1937
13.1545
13.1159
13.0779
13.0407
13.004
12.968
12.9326
12.8979
12.8638
12.8303
12.7974
12.7652
12.7337
12.7028
12.6727
12.6432
12.6143
12.5862
12.5587
12.5318
12.5057
12.4802
16.8122
16.7495
16.6826
16.6125
16.5397
16.4651
16.3891
16.3122
16.2348
16.1573
16.0799
16.0025
15.9256
15.8493
15.7738
15.6989
15.625
15.5518
15.4796
15.4082
15.3377
15.2681
15.1995
15.1317
15.0648
14.9988
14.9336
14.8693
14.8058
14.7431
14.6813
14.6202
14.56
14.5005
14.4418
14.3838
14.3266
14.2702
14.2145
14.1595
14.1053
14.0518
13.9991
13.947
13.8957
13.8451
13.7953
13.7461
13.6977
13.65
13.6031
13.5568
13.5113
13.4665
13.4225
13.3792
13.3366
13.2947
13.2536
13.2132
13.1736
13.1346
13.0965
13.059
13.0223
12.9863
12.951
12.9164
12.8826
12.8495
12.8171
12.7855
12.7547
12.7246
12.6953
12.6668
12.639
18.6584
18.5675
18.4665
18.3574
18.2421
18.1222
17.9994
17.8748
17.7495
17.6242
17.4995
17.376
17.2541
17.1339
17.0158
16.8999
16.7863
16.6751
16.5662
16.4598
16.3557
16.2539
16.1543
16.057
15.962
15.8691
15.7783
15.6896
15.6028
15.5179
15.4349
15.3535
15.2739
15.1959
15.1194
15.0444
14.9708
14.8986
14.8277
14.7581
14.6897
14.6225
14.5564
14.4914
14.4276
14.3648
14.303
14.2422
14.1825
14.1237
14.0659
14.009
13.9531
13.8982
13.8442
13.7911
13.739
13.6878
13.6376
13.5883
13.5399
13.4925
13.4461
13.4006
13.3561
13.3125
13.2699
13.2283
13.1876
13.1479
13.1092
13.0714
13.0347
12.9989
12.964
12.9301
12.8974
23.6237
23.3797
23.1166
22.8401
22.5553
22.2665
21.977
21.6895
21.406
21.128
20.8566
20.5926
20.3364
20.0884
19.8486
19.6171
19.3939
19.1786
18.9712
18.7714
18.579
18.3936
18.2151
18.0431
17.8773
17.7176
17.5634
17.4147
17.271
17.1321
16.9978
16.8677
16.7417
16.6194
16.5007
16.3853
16.273
16.1636
16.057
15.9529
15.8512
15.7518
15.6546
15.5595
15.4664
15.3751
15.2857
15.198
15.1119
15.0276
14.9448
14.8635
14.7838
14.7056
14.6289
14.5537
14.48
14.4078
14.3371
14.2679
14.2002
14.134
14.0693
14.0062
13.9446
13.8845
13.826
13.7691
13.7137
13.6598
13.6075
13.5567
13.5075
13.4598
13.4135
13.3692
36.969
36.2608
35.5077
34.7284
33.9385
33.1499
32.3698
31.6051
30.8609
30.1405
29.4464
28.78
28.1418
27.5319
26.9502
26.3959
25.8683
25.3665
24.8895
24.436
24.0051
23.5956
23.2064
22.8364
22.4844
22.1494
21.8304
21.5263
21.2363
20.9593
20.6945
20.4411
20.1982
19.9651
19.741
19.5252
19.3172
19.1164
18.9221
18.734
18.5516
18.3744
18.2021
18.0343
17.8707
17.7112
17.5553
17.403
17.254
17.1081
16.9654
16.8256
16.6888
16.5547
16.4235
16.2949
16.169
16.0458
15.9253
15.8077
15.6928
15.5807
15.4714
15.365
15.2614
15.1607
15.0629
14.968
14.8759
14.7868
14.7006
14.6172
14.5367
14.459
14.384
14.3127
62.0018
60.5654
59.0212
57.412
55.7733
54.1319
52.5071
50.9138
49.3626
47.8612
46.4147
45.026
43.6967
42.4274
41.2174
40.0659
38.9714
37.9323
36.9468
36.0126
35.1277
34.2896
33.4962
32.7451
32.0339
31.3604
30.7223
30.1173
29.5432
28.998
28.4798
27.9865
27.5163
27.0675
26.6383
26.2272
25.8325
25.4528
25.087
24.734
24.3928
24.0624
23.7417
23.4298
23.1261
22.8297
22.5402
22.257
21.9797
21.7079
21.4413
21.1797
20.9228
20.6705
20.4228
20.1797
19.9411
19.707
19.4776
19.2531
19.0333
18.8185
18.6085
18.4035
18.2035
18.0087
17.819
17.6348
17.4561
17.283
17.1156
16.954
16.7982
16.6482
16.504
16.3675
93.182
91.2385
89.1496
86.9736
84.7595
82.5374
80.3277
78.1479
76.0113
73.9268
71.9006
69.9361
68.0355
66.2002
64.4307
62.7274
61.0904
59.5193
58.0137
56.5728
55.1955
53.8804
52.6262
51.4308
50.2922
49.2082
48.1762
47.1937
46.2579
45.3662
44.5158
43.704
42.9278
42.1845
41.4713
40.7856
40.1247
39.4861
38.8673
38.2662
37.6805
37.1083
36.5477
35.997
35.4546
34.9193
34.3898
33.865
33.3442
32.8267
32.312
31.7999
31.29
30.7826
30.2776
29.7754
29.2763
28.781
28.2898
27.8034
27.3226
26.848
26.3805
25.9208
25.4698
25.0282
24.5966
24.1757
23.7662
23.3687
22.9839
22.6122
22.254
21.9095
21.5791
21.2671
149.22
149.467
147.98
146.17
144.554
143.01
141.409
139.685
137.8
135.74
133.507
131.114
128.585
125.948
123.233
120.469
117.689
114.917
112.174
109.479
106.846
104.287
101.81
99.4212
97.1253
94.924
92.8179
90.8065
88.8881
87.0597
85.3174
83.6568
82.0731
80.5608
79.1143
77.728
76.3958
75.1119
73.8705
72.6658
71.4923
70.3447
69.2178
68.107
67.0077
65.9159
64.828
63.7408
62.6515
61.5578
60.4578
59.3502
58.2341
57.1093
55.9757
54.8341
53.6853
52.5308
51.3724
50.2123
49.0529
47.8967
46.7464
45.605
44.4752
43.3599
42.262
41.1841
40.1288
39.0985
38.0953
37.1215
36.1791
35.2699
34.3965
33.5674
297.215
308.65
315.652
319.352
319.18
315.616
309.638
302.033
293.423
284.338
275.079
265.85
256.782
247.952
239.4
231.109
223.095
215.377
207.969
200.885
194.134
187.717
181.649
175.938
170.578
165.555
160.851
156.446
152.323
148.461
144.842
141.45
138.266
135.273
132.454
129.792
127.272
124.877
122.594
120.408
118.307
116.278
114.311
112.394
110.518
108.673
106.852
105.047
103.251
101.458
99.6637
97.8633
96.0535
94.2319
92.3968
90.5472
88.683
86.8047
84.9135
83.0113
81.1003
79.1835
77.2639
75.3454
73.4317
71.5271
69.6362
67.7635
65.9135
64.0911
62.3009
60.5481
58.8386
57.1812
55.5914
359.646
254.604
208.528
179.516
161.941
157.117
155.796
156.157
157.636
160.517
164.529
169.578
175.527
182.246
189.44
193.462
194.997
195.168
194.55
193.438
191.999
190.34
188.271
185.73
182.897
179.909
176.862
173.799
170.75
167.738
164.772
161.855
158.997
156.204
153.483
150.836
148.263
145.765
143.34
140.986
138.698
136.472
134.304
132.189
130.12
128.093
126.103
124.145
122.213
120.303
118.411
116.532
114.664
112.803
110.947
109.094
107.243
105.393
103.542
101.69
99.8366
97.9819
96.1259
94.2692
92.4126
90.5575
88.7053
86.8578
85.017
83.1856
81.3666
79.5641
77.7837
76.0372
74.3425
127.789
120.916
117.648
114.271
111.403
108.808
106.438
103.994
101.635
99.2301
97.4357
95.9108
94.5938
93.5103
92.6595
91.9363
91.2587
90.624
90.0411
89.4998
89.3531
89.62
90.6875
92.6557
95.1822
97.9675
100.819
103.654
106.401
108.991
110.854
112.154
112.986
113.435
113.562
113.418
113.003
112.386
111.615
110.727
109.746
108.698
107.603
106.481
105.347
104.212
103.086
101.976
100.887
99.8227
98.7843
97.7737
96.7911
95.8358
94.9059
93.9988
93.1117
92.2418
91.3862
90.5425
89.7082
88.8809
88.0579
87.2365
86.4133
85.5842
84.7455
83.8937
83.0265
82.1423
81.24
80.3195
79.3814
78.4327
77.4807
119.376
119.544
119.069
117.705
115.085
111.971
108.311
104.902
101.702
98.6768
95.8581
93.3092
90.8054
88.6201
86.6881
84.7721
82.9986
81.4081
80.0019
78.7543
77.6434
76.6195
75.7099
74.9309
74.2798
73.7333
73.2646
72.8598
72.5054
72.185
71.8768
71.5779
71.2791
70.9741
70.662
70.3407
70.0592
69.7847
69.501
69.2037
68.8929
68.5672
68.2267
67.8732
67.5095
67.1462
66.7992
66.4615
66.1313
65.8087
65.4949
65.1968
64.9179
64.6628
64.4385
64.254
64.1189
64.0422
64.0312
64.0913
64.2255
64.4335
64.7117
65.0522
65.4393
65.8167
66.1558
66.4564
66.7178
66.9374
67.1071
67.223
67.2882
67.3085
67.272
146.53
145.29
142.755
139.789
134.924
130.386
126.091
122.062
118.249
114.596
111.101
107.772
104.609
101.593
98.7179
95.971
93.3623
90.9083
88.6156
86.4824
84.5046
82.677
81.0125
79.4953
78.1225
76.876
75.74
74.7003
73.7195
72.742
71.7888
70.8697
69.991
69.1781
68.4505
67.771
67.1204
66.4956
65.8906
65.3028
64.7306
64.1732
63.6276
63.0916
62.564
62.0444
61.5329
61.0295
60.5343
60.0475
59.5688
59.0995
58.6407
58.1938
57.7604
57.3425
56.9425
56.5629
56.2062
55.8744
55.5689
55.2907
55.0398
54.8155
54.6163
54.4389
54.28
54.138
54.0138
53.9117
53.8422
53.811
53.816
53.8568
53.9422
170.181
168.328
165.67
162.452
156.914
151.497
146.457
141.803
137.376
133.111
129.03
125.156
121.497
118.05
114.803
111.666
108.69
105.898
103.29
100.867
98.621
96.5335
94.5893
92.775
91.078
89.4845
87.9816
86.559
85.2006
83.8973
82.6434
81.435
80.2686
79.144
78.0601
77.014
76.0026
75.0239
74.0748
73.1522
72.2536
71.3769
70.52
69.6812
68.859
68.0526
67.2612
66.4843
65.7218
64.9735
64.2396
63.5204
62.8161
62.1271
61.4536
60.7959
60.1544
59.5292
58.9205
58.3281
57.7517
57.1908
56.6441
56.1098
55.5849
55.0581
54.5201
53.9748
53.4269
52.8828
52.3503
51.8388
51.3627
50.9234
50.5344
141.892
163.375
175.257
183.473
180.423
177.705
174.703
171.869
169.056
164.992
160.322
155.541
150.862
146.386
142.143
138.133
134.339
130.748
127.371
124.214
121.271
118.532
115.983
113.607
111.387
109.305
107.323
105.43
103.623
101.895
100.235
98.6355
97.0878
95.5846
94.1208
92.6923
91.2962
89.9306
88.5939
87.2849
86.003
84.7476
83.5182
82.3146
81.1365
79.9837
78.856
77.7536
76.6765
75.6244
74.5972
73.5947
72.6167
71.6628
70.7326
69.8256
68.9412
68.0789
67.238
66.4179
65.6178
64.8368
64.0742
63.329
62.6001
61.8865
61.1867
60.4991
59.8218
59.1533
58.4914
57.8348
57.183
56.5367
55.8977
55.2647
321.036
329.003
331.207
326.617
317.949
306.376
292.885
278.399
264.024
250.293
237.552
225.925
215.411
205.93
197.331
189.512
182.374
175.848
169.878
164.4
159.347
154.664
150.304
146.224
142.389
138.77
135.344
132.092
128.996
126.044
123.223
120.524
117.937
115.455
113.069
110.767
108.549
106.412
104.353
102.368
100.454
98.6059
96.8217
95.0984
93.4331
91.8236
90.2679
88.7644
87.3116
85.908
84.5523
83.2431
81.9788
80.7581
79.5793
78.4409
77.3415
76.2795
75.2533
74.2614
73.3021
72.3739
71.475
70.6039
69.7587
68.9379
68.1397
67.3625
66.6045
65.8641
65.1393
64.4284
63.7295
63.0415
62.364
61.6954
148.009
157.243
165.383
172.753
179.39
185.195
190.035
193.821
196.502
198.08
198.616
198.221
197.031
195.102
192.595
189.667
186.454
183.074
179.567
175.981
172.361
168.742
165.153
161.615
158.146
154.757
151.41
148.038
144.672
141.335
138.045
134.819
131.667
128.602
125.63
122.757
119.984
117.313
114.744
112.274
109.902
107.625
105.44
103.344
101.333
99.4039
97.5539
95.7801
94.0783
92.4442
90.8754
89.3692
87.923
86.534
85.1995
83.9169
82.6836
81.4973
80.3556
79.2563
78.1972
77.1764
76.192
75.2423
74.3257
73.4402
72.5842
71.7562
70.9544
70.1775
69.4238
68.6921
67.981
67.2891
66.6153
65.957
62.3553
65.3425
68.0088
70.4975
72.9361
75.395
77.9003
80.4552
83.0348
85.5861
88.025
90.3144
92.4184
94.3014
95.9357
97.3051
98.4012
99.2296
99.8069
100.147
100.274
100.215
99.997
99.6472
99.1901
98.6447
98.0601
97.5102
96.9897
96.4935
96.0177
95.5592
95.1146
94.6669
94.1664
93.6191
93.0304
92.4056
91.749
91.0638
90.3537
89.6219
88.8714
88.1047
87.3242
86.5321
85.7304
84.9212
84.1063
83.2876
82.4671
81.6466
80.8279
80.0125
79.202
78.3974
77.6002
76.8112
76.0313
75.2614
74.5019
73.7537
73.0172
72.2919
71.5759
70.8708
70.1777
69.4978
68.8318
68.1804
67.5441
66.9232
66.3184
65.7302
65.1597
64.6078
34.7575
35.569
36.3088
37.0268
37.7499
38.4973
39.2763
40.0946
40.9539
41.8506
42.7718
43.7063
44.6405
45.5605
46.4523
47.3027
48.1004
48.8358
49.5015
50.0923
50.6057
51.0411
51.3995
51.6842
51.9017
52.0605
52.1699
52.2383
52.2736
52.2833
52.2742
52.2521
52.2337
52.2653
52.3436
52.4654
52.6274
52.8263
53.0575
53.3021
53.5587
53.8252
54.0991
54.3776
54.6574
54.9353
55.2076
55.4718
55.725
55.964
56.1858
56.3879
56.5681
56.7246
56.8562
56.9618
57.0409
57.0931
57.1186
57.1179
57.0917
57.0411
56.9673
56.8715
56.7554
56.6202
56.4678
56.3002
56.1196
55.9285
55.7293
55.5245
55.3168
55.1075
54.8934
24.7045
24.9665
25.2094
25.4418
25.6711
25.9032
26.1423
26.3917
26.6532
26.9279
27.2152
27.5137
27.8216
28.1365
28.4555
28.7753
29.0927
29.4043
29.707
29.9979
30.2746
30.5349
30.7774
31.0008
31.2046
31.389
31.5543
31.7014
31.8315
31.946
32.0468
32.1377
32.2223
32.3036
32.3844
32.4671
32.5539
32.6464
32.7474
32.8729
33.0216
33.1923
33.3836
33.5942
33.8202
34.0583
34.3074
34.5652
34.8296
35.0994
35.3731
35.6493
35.9262
36.2023
36.4759
36.7456
37.0098
37.2673
37.5167
37.7571
37.9877
38.2075
38.4162
38.6134
38.799
38.9729
39.1355
39.2872
39.4287
39.5607
39.6845
39.8015
39.9126
40.0184
40.117
21.1129
21.1966
21.2723
21.3427
21.41
21.4763
21.5431
21.6116
21.6827
21.7569
21.8347
21.9159
22.0004
22.0879
22.1779
22.2697
22.3626
22.456
22.5489
22.6407
22.7306
22.818
22.9023
22.9833
23.0607
23.1343
23.2042
23.2705
23.3333
23.393
23.4501
23.5051
23.5584
23.6107
23.6624
23.7143
23.7666
23.8198
23.8756
23.9351
23.9989
24.0674
24.1409
24.2195
24.3058
24.4015
24.5062
24.6188
24.7387
24.8642
24.9945
25.1292
25.2677
25.4097
25.5545
25.7017
25.8505
26.0007
26.1515
26.3026
26.4536
26.6041
26.7541
26.9032
27.0514
27.1988
27.3454
27.4914
27.6371
27.7829
27.929
28.0756
28.2232
28.3717
28.5188
19.8087
19.8296
19.8453
19.857
19.8656
19.8721
19.8773
19.8817
19.8858
19.8899
19.8942
19.8989
19.9039
19.9093
19.9149
19.9206
19.9263
19.9318
19.9369
19.9415
19.9452
19.9481
19.95
19.951
19.9511
19.9503
19.9487
19.9465
19.9437
19.9407
19.9375
19.9344
19.9317
19.9297
19.9285
19.9285
19.93
19.9333
19.9385
19.9457
19.9551
19.9667
19.9808
19.9975
20.0173
20.041
20.0683
20.0993
20.1339
20.1728
20.2161
20.2636
20.3142
20.3674
20.4229
20.4804
20.5398
20.6009
20.6634
20.7274
20.7925
20.8589
20.9263
20.995
21.0648
21.136
21.2086
21.283
21.3594
21.438
21.5193
21.6033
21.6903
21.7803
21.8715
19.4671
19.4655
19.4591
19.4489
19.4353
19.4191
19.4007
19.3805
19.3589
19.3362
19.3124
19.2877
19.2622
19.2358
19.2086
19.1805
19.1515
19.1216
19.0907
19.0587
19.0257
18.9916
18.9564
18.9201
18.8828
18.8445
18.8055
18.766
18.726
18.6858
18.6455
18.6055
18.5659
18.5268
18.4886
18.4514
18.4153
18.3806
18.3474
18.3158
18.286
18.2581
18.2321
18.2082
18.1864
18.1665
18.1486
18.1327
18.1187
18.1066
18.0968
18.0894
18.0842
18.0814
18.081
18.0828
18.0866
18.0923
18.0998
18.109
18.1199
18.1323
18.1463
18.1617
18.1787
18.1972
18.2174
18.2392
18.2629
18.2886
18.3165
18.3467
18.3793
18.4141
18.45
19.5469
19.5389
19.5261
19.509
19.4882
19.4642
19.4375
19.4084
19.3771
19.3441
19.3094
19.2731
19.2353
19.1961
19.1556
19.1136
19.0702
19.0254
18.9791
18.9315
18.8824
18.832
18.7802
18.7271
18.6728
18.6172
18.5606
18.503
18.4445
18.3855
18.3261
18.2665
18.2068
18.1474
18.0884
18.0299
17.9721
17.9152
17.8594
17.8047
17.7512
17.6991
17.6485
17.5995
17.552
17.506
17.4618
17.4191
17.378
17.3387
17.3009
17.2646
17.2297
17.1962
17.1641
17.1336
17.1047
17.0772
17.0512
17.0266
17.0033
16.9813
16.9605
16.9411
16.9228
16.9059
16.8902
16.8759
16.863
16.8516
16.8415
16.8329
16.8257
16.8201
16.8154
19.7398
19.73
19.7151
19.6956
19.672
19.6448
19.6145
19.5814
19.5458
19.508
19.4682
19.4265
19.383
19.3378
19.2909
19.2424
19.1922
19.1404
19.087
19.032
18.9754
18.9173
18.8577
18.7967
18.7343
18.6706
18.6057
18.5397
18.4727
18.4049
18.3366
18.2678
18.1989
18.1299
18.0612
17.9929
17.9251
17.8581
17.7918
17.7266
17.6624
17.5993
17.5374
17.4767
17.4173
17.3593
17.3027
17.2476
17.1939
17.1417
17.091
17.0416
16.9936
16.9469
16.9013
16.8569
16.8137
16.7716
16.7305
16.6905
16.6514
16.6132
16.5758
16.5393
16.5036
16.4688
16.4349
16.4019
16.3699
16.339
16.3092
16.2806
16.2532
16.2274
16.2013
19.7067
19.6952
19.6786
19.6575
19.6322
19.6033
19.5712
19.5363
19.499
19.4593
19.4177
19.3741
19.3287
19.2817
19.233
19.1827
19.1309
19.0775
19.0226
18.9662
18.9084
18.8492
18.7886
18.7268
18.6638
18.5996
18.5344
18.4683
18.4013
18.3338
18.2659
18.1978
18.1298
18.0619
17.9944
17.9275
17.8613
17.796
17.7317
17.6686
17.6066
17.5458
17.4864
17.4283
17.3716
17.3164
17.2628
17.2106
17.1601
17.1111
17.0636
17.0175
16.9728
16.9292
16.8869
16.8459
16.8061
16.7673
16.7296
16.6927
16.6568
16.6216
16.5873
16.5537
16.5208
16.4888
16.4578
16.4277
16.3986
16.3707
16.344
16.3186
16.2945
16.2722
16.2499
19.4455
19.4339
19.4177
19.3975
19.3737
19.3467
19.317
19.2849
19.2506
19.2144
19.1764
19.1369
19.0959
19.0534
19.0096
18.9645
18.9182
18.8705
18.8217
18.7717
18.7206
18.6684
18.6152
18.561
18.5059
18.45
18.3934
18.3363
18.2789
18.2214
18.1639
18.1068
18.0501
17.9941
17.9389
17.8848
17.8318
17.78
17.7298
17.681
17.634
17.5886
17.5451
17.5035
17.4639
17.4263
17.3905
17.3565
17.3243
17.2937
17.2649
17.2381
17.2132
17.1901
17.1686
17.1486
17.13
17.1127
17.0966
17.0816
17.0678
17.0551
17.0435
17.0331
17.0239
17.0158
17.0087
17.0027
16.998
16.9945
16.9926
16.9922
16.9936
16.9967
17.0011
19.3025
19.2947
19.2831
19.2681
19.2502
19.2299
19.2075
19.1834
19.1579
19.1311
19.1033
19.0744
19.0447
19.0142
18.9828
18.9507
18.9178
18.8842
18.8498
18.8147
18.7788
18.7422
18.705
18.6673
18.6292
18.5908
18.5525
18.5142
18.4764
18.4391
18.4026
18.3671
18.3328
18.2998
18.2684
18.2387
18.2109
18.1853
18.162
18.1412
18.1227
18.1067
18.0934
18.0826
18.0746
18.0697
18.0682
18.0699
18.0746
18.0822
18.0924
18.1051
18.1199
18.1367
18.1555
18.176
18.1981
18.2216
18.2464
18.2723
18.299
18.3258
18.3527
18.3796
18.4068
18.4343
18.4624
18.4913
18.5213
18.5529
18.5862
18.6217
18.6596
18.6998
18.7416
19.5547
19.5641
19.5699
19.5727
19.5732
19.572
19.5695
19.5661
19.562
19.5575
19.5528
19.5478
19.5426
19.5372
19.5316
19.5257
19.5194
19.5126
19.5053
19.4976
19.4894
19.481
19.4724
19.4637
19.4551
19.4469
19.4392
19.4323
19.4264
19.4219
19.419
19.4182
19.4196
19.4232
19.4295
19.4384
19.4503
19.4654
19.484
19.5073
19.5357
19.5691
19.6076
19.6512
19.6994
19.7519
19.8076
19.8665
19.9289
19.9944
20.0627
20.1333
20.2059
20.2801
20.3552
20.431
20.5071
20.5833
20.6593
20.7349
20.81
20.8845
20.9583
21.0316
21.1044
21.177
21.2496
21.3225
21.3962
21.4711
21.5476
21.6264
21.7076
21.7913
21.8766
20.6378
20.6896
20.7363
20.7793
20.8198
20.8589
20.8974
20.9359
20.9745
21.0135
21.053
21.0928
21.1328
21.1729
21.2129
21.2524
21.2913
21.3295
21.3669
21.4034
21.4392
21.4742
21.5086
21.5429
21.5771
21.6114
21.6461
21.6815
21.7181
21.7563
21.7965
21.8397
21.8877
21.9413
22.0009
22.0667
22.1389
22.2174
22.3013
22.3911
22.4868
22.5902
22.7025
22.8235
22.9528
23.0899
23.2344
23.3852
23.541
23.7014
23.8654
24.0326
24.2016
24.3709
24.5395
24.7064
24.8709
25.0321
25.1897
25.343
25.4919
25.6359
25.7751
25.9094
26.0389
26.164
26.2848
26.402
26.5161
26.6279
26.7382
26.8479
26.9578
27.068
27.1785
23.4488
23.5933
23.7263
23.8517
23.9727
24.0919
24.2105
24.3296
24.4493
24.5697
24.6903
24.8105
24.9297
25.047
25.1618
25.2733
25.3811
25.4846
25.5836
25.6778
25.7673
25.8521
25.9329
26.0105
26.0877
26.1654
26.2441
26.3247
26.4072
26.4934
26.585
26.6833
26.7895
26.9047
27.0299
27.1704
27.3301
27.5082
27.7042
27.9179
28.1485
28.3941
28.6527
28.9236
29.206
29.499
29.801
30.1094
30.4218
30.7359
31.0491
31.3592
31.6629
31.9575
32.242
32.5152
32.7764
33.0245
33.259
33.4792
33.6847
33.8754
34.0513
34.2125
34.3594
34.4928
34.6134
34.7224
34.8208
34.9102
34.9919
35.0676
35.1389
35.2071
35.2736
30.3502
30.7272
31.0656
31.3788
31.6774
31.9686
32.2549
32.5383
32.8187
33.0944
33.3637
33.6246
33.8739
34.1088
34.3273
34.5295
34.7151
34.8831
35.0331
35.1655
35.282
35.3857
35.4797
35.5669
35.6502
35.7324
35.8161
35.9037
36.0003
36.1307
36.2947
36.4927
36.7249
36.9913
37.2917
37.6215
37.9762
38.3542
38.753
39.17
39.6024
40.0473
40.5011
40.9607
41.4224
41.8824
42.337
42.7825
43.2154
43.6324
44.0303
44.4064
44.7585
45.085
45.3838
45.6532
45.8921
46.0998
46.276
46.4211
46.5356
46.6203
46.6766
46.7059
46.71
46.6907
46.6502
46.5908
46.5148
46.4244
46.3225
46.2115
46.0931
45.9702
45.8464
49.3821
50.4513
51.3643
52.1796
52.9362
53.6573
54.3499
55.0151
55.6474
56.2369
56.7733
57.2421
57.6411
57.9691
58.2265
58.4155
58.5397
58.6046
58.6156
58.5782
58.5104
58.4896
58.515
58.5857
58.7002
58.8574
59.0565
59.297
59.5746
59.8633
60.1627
60.4721
60.7899
61.1141
61.4416
61.7684
62.0907
62.4054
62.7089
62.9968
63.2648
63.5092
63.7266
63.914
64.0689
64.1895
64.2744
64.3226
64.3339
64.3083
64.2461
64.1481
64.0151
63.8481
63.6481
63.4167
63.1561
62.8686
62.5564
62.222
61.8679
61.4964
61.1099
60.7101
60.2975
59.8745
59.4442
59.0094
58.5722
58.1349
57.7003
57.2709
56.8488
56.4367
56.038
110.54
114.155
117.226
119.943
122.404
124.636
126.617
128.295
129.567
130.423
130.876
131.009
130.922
130.628
130.15
129.513
128.739
127.853
126.877
125.83
124.717
123.47
122.111
120.662
119.142
117.568
115.954
114.312
112.652
110.985
109.318
107.659
106.013
104.386
102.782
101.204
99.6562
98.1397
96.6567
95.2081
93.7944
92.4157
91.072
89.763
88.4884
87.2477
86.04
84.8645
83.7201
82.606
81.5193
80.4576
79.4205
78.4075
77.4184
76.4531
75.5116
74.5936
73.6987
72.8268
71.9772
71.1497
70.3438
69.559
68.7949
68.0511
67.3274
66.6242
65.941
65.2776
64.6337
64.0087