/*--------------------------------*- C++ -*----------------------------------*\
  =========                 |
  \\      /  F ield         | OpenFOAM: The Open Source CFD Toolbox
   \\    /   O peration     | Website:  https://openfoam.org
    \\  /    A nd           | Version:  13
     \\/     M anipulation  |
\*---------------------------------------------------------------------------*/
FoamFile
{
    format      ascii;
    class       volScalarField;
    location    "100";
    object      p;
}
// * * * * * * * * * * * * * * * * * * * * * * * * * * * * * * * * * * * * * //

dimensions      [0 2 -2 0 0 0 0];

internalField   nonuniform List<scalar> 
173327
(
-11.9584
-12.0167
-12.0411
-12.0328
-11.9939
-11.9262
-11.8322
-11.714
-11.5737
-11.4131
-11.2343
-11.0392
-10.8299
-10.6083
-10.3762
-10.1352
-9.88671
-9.63196
-9.37241
-9.10937
-8.84395
-8.5771
-8.3096
-8.04217
-7.77553
-7.51015
-7.24658
-6.98526
-6.72681
-6.47181
-6.22073
-5.97387
-5.73144
-5.49365
-5.26075
-5.03277
-4.80978
-4.59179
-4.37905
-4.17192
-3.97061
-3.77516
-3.58533
-3.40099
-3.22212
-3.04886
-2.88146
-2.72003
-2.56466
-2.41506
-2.27109
-2.1324
-1.99899
-1.87066
-1.74755
-1.62943
-1.51625
-1.40772
-1.30382
-1.20465
-1.11025
-1.02061
-0.935268
-0.853878
-0.775874
-0.701085
-0.629195
-0.560252
-0.494037
-0.430582
-0.369553
-0.310799
-0.253811
-0.198257
-0.14365
-0.0898357
-0.038464
-12.0004
-12.0575
-12.0801
-12.0699
-12.0288
-11.9588
-11.8622
-11.7414
-11.5985
-11.4355
-11.2544
-11.057
-10.8454
-10.6217
-10.3876
-10.1447
-9.89444
-9.6381
-9.37707
-9.11263
-8.84591
-8.57784
-8.30923
-8.04082
-7.77327
-7.50713
-7.24286
-6.98094
-6.72193
-6.46638
-6.21476
-5.96737
-5.72447
-5.48629
-5.25302
-5.02479
-4.8016
-4.5835
-4.37069
-4.16345
-3.96202
-3.76643
-3.57655
-3.39223
-3.21344
-3.04029
-2.87294
-2.71158
-2.55618
-2.40666
-2.26275
-2.12428
-1.99104
-1.86301
-1.7401
-1.62227
-1.50933
-1.40111
-1.29753
-1.19864
-1.10451
-1.01503
-0.929919
-0.848739
-0.771098
-0.696655
-0.625227
-0.556668
-0.490905
-0.427795
-0.367167
-0.308723
-0.252123
-0.196939
-0.142855
-0.0897119
-0.0385246
-12.0853
-12.1396
-12.159
-12.1449
-12.0994
-12.0248
-11.9234
-11.7976
-11.6498
-11.4819
-11.2961
-11.0942
-10.8783
-10.6505
-10.4124
-10.1658
-9.91203
-9.65253
-9.38859
-9.12145
-8.8522
-8.58178
-8.31102
-8.04063
-7.77128
-7.50351
-7.23781
-6.97463
-6.71447
-6.45785
-6.2052
-5.95684
-5.71304
-5.47404
-5.24005
-5.01119
-4.78751
-4.56906
-4.35599
-4.14852
-3.94684
-3.751
-3.56092
-3.37653
-3.19777
-3.02472
-2.85748
-2.69617
-2.54083
-2.39135
-2.24758
-2.10931
-1.97638
-1.8487
-1.7262
-1.6088
-1.49637
-1.38873
-1.28579
-1.18753
-1.09395
-1.00494
-0.920245
-0.839508
-0.762358
-0.6885
-0.61771
-0.549845
-0.484779
-0.422374
-0.362421
-0.304639
-0.24868
-0.194217
-0.140862
-0.0884153
-0.0376991
-12.214
-12.2642
-12.2783
-12.2583
-12.2061
-12.1244
-12.0157
-11.8824
-11.7271
-11.5519
-11.3589
-11.1501
-10.9277
-10.6936
-10.4496
-10.1973
-9.9384
-9.67413
-9.40579
-9.13459
-8.86159
-8.58769
-8.31371
-8.04039
-7.76835
-7.49816
-7.23029
-6.96518
-6.70329
-6.44507
-6.19092
-5.94115
-5.69605
-5.45587
-5.22082
-4.99103
-4.76659
-4.54756
-4.33403
-4.12616
-3.92411
-3.72791
-3.53757
-3.35303
-3.17426
-3.00128
-2.83417
-2.67298
-2.51774
-2.36841
-2.22484
-2.08688
-1.95436
-1.82717
-1.70523
-1.58846
-1.47674
-1.36991
-1.26784
-1.17047
-1.07772
-0.989454
-0.905448
-0.825397
-0.748991
-0.675958
-0.606084
-0.539201
-0.475158
-0.413787
-0.354862
-0.298094
-0.243173
-0.189773
-0.137568
-0.0862421
-0.0367126
-12.3879
-12.4322
-12.4392
-12.4108
-12.3496
-12.2582
-12.1394
-11.996
-11.8305
-11.6454
-11.4427
-11.2248
-10.9935
-10.751
-10.499
-10.2394
-9.97354
-9.70291
-9.42873
-9.15214
-8.87416
-8.59569
-8.3175
-8.04032
-7.76477
-7.49138
-7.22062
-6.95292
-6.68869
-6.42833
-6.1722
-5.92062
-5.67386
-5.43216
-5.19574
-4.96475
-4.73929
-4.51941
-4.3052
-4.09677
-3.89421
-3.69759
-3.50691
-3.32215
-3.14331
-2.97039
-2.8034
-2.64238
-2.48734
-2.33824
-2.19499
-2.05744
-1.92546
-1.7989
-1.67768
-1.5617
-1.45084
-1.34496
-1.24392
-1.14759
-1.05586
-0.968578
-0.88553
-0.806457
-0.731091
-0.659187
-0.590532
-0.524944
-0.462248
-0.402251
-0.344715
-0.289352
-0.235863
-0.183943
-0.13325
-0.0834705
-0.0355377
-12.6091
-12.6457
-12.6432
-12.604
-12.5309
-12.427
-12.2952
-12.1388
-11.9603
-11.7624
-11.5475
-11.3178
-11.0753
-10.8222
-10.5603
-10.2913
-10.0169
-9.73826
-9.45676
-9.17345
-8.8893
-8.60515
-8.32177
-8.03983
-7.75992
-7.48257
-7.20822
-6.93727
-6.6701
-6.40707
-6.14851
-5.89471
-5.64592
-5.40239
-5.16431
-4.93185
-4.70512
-4.48416
-4.26906
-4.05989
-3.8567
-3.65956
-3.46849
-3.28348
-3.10453
-2.93163
-2.76478
-2.60398
-2.44922
-2.30048
-2.15768
-2.02068
-1.88936
-1.76358
-1.64323
-1.5282
-1.41838
-1.31361
-1.21374
-1.11864
-1.02814
-0.942099
-0.860297
-0.78251
-0.708498
-0.638035
-0.57091
-0.506929
-0.445897
-0.387607
-0.331818
-0.27825
-0.226603
-0.176565
-0.127785
-0.0799589
-0.0340395
-12.8801
-12.9069
-12.8923
-12.8394
-12.7513
-12.6316
-12.4837
-12.311
-12.1164
-11.9029
-11.6729
-11.4287
-11.1726
-10.9067
-10.6328
-10.3526
-10.0678
-9.77968
-9.48942
-9.19808
-8.90656
-8.61568
-8.32614
-8.03857
-7.75351
-7.47146
-7.19284
-6.91802
-6.64735
-6.38115
-6.1197
-5.86328
-5.61212
-5.36645
-5.12645
-4.89227
-4.66403
-4.44178
-4.22559
-4.01551
-3.81158
-3.61384
-3.42232
-3.23702
-3.05794
-2.88506
-2.71836
-2.55783
-2.40344
-2.25517
-2.11294
-1.97663
-1.84611
-1.72125
-1.60192
-1.48801
-1.37939
-1.2759
-1.17739
-1.08371
-0.994681
-0.910136
-0.829875
-0.753683
-0.681339
-0.612628
-0.547339
-0.485268
-0.426211
-0.369956
-0.316262
-0.264858
-0.215443
-0.167687
-0.121224
-0.0757646
-0.0322756
-13.2043
-13.2186
-13.189
-13.119
-13.0124
-12.8733
-12.7056
-12.5131
-12.2991
-12.0667
-11.8186
-11.5573
-11.285
-11.0039
-10.7158
-10.4226
-10.1257
-9.82647
-9.52602
-9.22536
-8.92533
-8.62667
-8.33002
-8.03596
-7.74498
-7.45753
-7.174
-6.89472
-6.62
-6.35013
-6.08537
-5.82595
-5.57208
-5.32397
-5.08178
-4.84566
-4.61569
-4.39196
-4.17451
-3.96337
-3.75859
-3.56018
-3.36816
-3.18254
-3.00331
-2.83044
-2.66392
-2.50371
-2.34979
-2.20209
-2.06055
-1.92506
-1.79549
-1.6717
-1.55356
-1.44094
-1.33369
-1.23168
-1.13473
-1.04267
-0.955351
-0.872571
-0.794139
-0.719847
-0.649483
-0.582834
-0.51969
-0.45984
-0.403081
-0.349199
-0.297954
-0.249081
-0.202281
-0.157207
-0.113481
-0.0708191
-0.0302001
-13.5858
-13.5846
-13.5363
-13.4452
-13.316
-13.1533
-12.9618
-12.7456
-12.5085
-12.2537
-11.9843
-11.7029
-11.4117
-11.113
-10.8087
-10.5005
-10.1897
-9.87782
-9.5658
-9.25457
-8.94489
-8.63745
-8.33279
-8.03143
-7.73379
-7.44028
-7.15122
-6.86692
-6.58766
-6.31367
-6.04518
-5.78239
-5.5255
-5.27467
-5.03004
-4.79174
-4.55986
-4.33447
-4.11561
-3.9033
-3.69756
-3.49842
-3.30586
-3.11989
-2.94051
-2.76767
-2.60136
-2.44153
-2.28814
-2.14113
-2.00042
-1.86589
-1.73741
-1.61484
-1.49805
-1.38689
-1.28122
-1.18088
-1.08569
-0.995501
-0.910126
-0.829377
-0.753059
-0.680965
-0.612885
-0.548606
-0.487915
-0.430607
-0.376476
-0.325307
-0.276864
-0.230891
-0.187088
-0.145097
-0.104531
-0.0651103
-0.0278093
-14.0297
-14.0092
-13.9378
-13.821
-13.6643
-13.4734
-13.2534
-13.0091
-12.7447
-12.4638
-12.1696
-11.8649
-11.5521
-11.2334
-10.9105
-10.5853
-10.259
-9.93286
-9.60788
-9.28487
-8.96448
-8.64728
-8.33375
-8.02431
-7.71933
-7.41912
-7.12398
-6.83415
-6.54986
-6.27133
-5.99873
-5.73224
-5.47201
-5.21818
-4.97088
-4.73021
-4.49624
-4.26904
-4.04863
-3.83504
-3.62827
-3.42833
-3.2352
-3.04888
-2.86934
-2.69657
-2.53051
-2.37113
-2.21836
-2.07214
-1.93237
-1.79893
-1.6717
-1.55053
-1.43526
-1.32574
-1.22184
-1.12338
-1.0302
-0.942106
-0.858932
-0.780484
-0.706561
-0.636956
-0.57146
-0.509856
-0.451934
-0.397493
-0.346324
-0.298209
-0.252925
-0.210221
-0.169799
-0.131297
-0.0943229
-0.0585992
-0.0250835
-14.5422
-14.4977
-14.3981
-14.2499
-14.0601
-13.8352
-13.5814
-13.304
-13.0078
-12.6966
-12.3739
-12.0426
-11.7052
-11.3638
-11.0201
-10.6759
-10.3323
-9.9905
-9.65127
-9.31531
-8.98318
-8.65533
-8.33213
-8.0139
-7.70093
-7.39345
-7.09169
-6.79586
-6.50612
-6.22266
-5.9456
-5.67509
-5.41124
-5.15417
-4.90398
-4.66075
-4.42453
-4.19539
-3.97333
-3.75836
-3.5505
-3.34971
-3.15599
-2.96931
-2.78965
-2.61696
-2.45122
-2.29235
-2.14029
-1.99497
-1.85627
-1.72408
-1.59826
-1.47864
-1.36508
-1.25741
-1.15548
-1.05913
-0.96818
-0.882441
-0.801729
-0.725849
-0.654601
-0.587776
-0.525157
-0.466532
-0.411696
-0.360444
-0.312568
-0.267853
-0.226083
-0.187019
-0.150368
-0.115766
-0.082821
-0.0512587
-0.0220101
-15.1311
-15.0568
-14.9223
-14.736
-14.5063
-14.2411
-13.9473
-13.6312
-13.2979
-12.9519
-12.5966
-12.2352
-11.87
-11.5032
-11.1365
-10.7713
-10.4087
-10.0497
-9.69493
-9.34494
-9.00012
-8.66078
-8.32716
-7.99949
-7.67793
-7.36265
-7.05381
-6.75154
-6.45597
-6.16721
-5.88538
-5.61055
-5.34284
-5.0823
-4.82902
-4.58306
-4.34446
-4.11325
-3.88944
-3.67303
-3.46401
-3.26235
-3.06803
-2.881
-2.70124
-2.5287
-2.36333
-2.20506
-2.05382
-1.90951
-1.77202
-1.64122
-1.51697
-1.39909
-1.28742
-1.18181
-1.08208
-0.988063
-0.899589
-0.816454
-0.738465
-0.665426
-0.597133
-0.533372
-0.473928
-0.418589
-0.36715
-0.319408
-0.275155
-0.234184
-0.196284
-0.16123
-0.128738
-0.0984514
-0.0699801
-0.0430517
-0.0185675
-15.8056
-15.6942
-15.5168
-15.2842
-15.0066
-14.6933
-14.3524
-13.9911
-13.6151
-13.229
-12.8368
-12.4413
-12.0452
-11.6502
-11.258
-10.8699
-10.4867
-10.1091
-9.73763
-9.3726
-9.01422
-8.66264
-8.31795
-7.98024
-7.64958
-7.32604
-7.0097
-6.70062
-6.39887
-6.10451
-5.81762
-5.53824
-5.26642
-5.00222
-4.74569
-4.49685
-4.25574
-4.02236
-3.79673
-3.57882
-3.36861
-3.16607
-2.97114
-2.78379
-2.60397
-2.43163
-2.26671
-2.10914
-1.95882
-1.81565
-1.67951
-1.55026
-1.42775
-1.31179
-1.20223
-1.09888
-1.00157
-0.91013
-0.824373
-0.744101
-0.669105
-0.599183
-0.534126
-0.473717
-0.417743
-0.365995
-0.318266
-0.274352
-0.234049
-0.197159
-0.163484
-0.132805
-0.104859
-0.0793046
-0.0557572
-0.0339464
-0.01474
-16.5777
-16.4199
-16.1898
-15.9008
-15.5655
-15.195
-14.7988
-14.3848
-13.9595
-13.5278
-13.0936
-12.6601
-12.2294
-11.8035
-11.3835
-10.9705
-10.565
-10.1676
-9.77832
-9.39734
-9.02463
-8.66014
-8.3038
-7.95554
-7.61532
-7.28311
-6.95888
-6.64264
-6.3344
-6.03417
-5.74196
-5.45779
-5.18167
-4.91363
-4.65368
-4.40184
-4.15812
-3.9225
-3.69498
-3.47553
-3.26411
-3.06068
-2.86517
-2.67753
-2.49771
-2.32565
-2.16127
-2.00448
-1.85521
-1.71332
-1.57868
-1.45114
-1.33054
-1.2167
-1.10944
-1.00857
-0.913924
-0.825299
-0.74251
-0.665357
-0.593628
-0.527104
-0.465571
-0.408808
-0.3566
-0.308741
-0.265027
-0.225255
-0.189225
-0.156747
-0.127637
-0.101695
-0.0786792
-0.0582696
-0.040095
-0.0238965
-0.0105016
-17.4607
-17.2449
-16.9496
-16.5919
-16.1873
-15.749
-15.2879
-14.8128
-14.3307
-13.847
-13.3657
-12.8897
-12.421
-11.9611
-11.5109
-11.0711
-10.6419
-10.2234
-9.81538
-9.41767
-9.02999
-8.65206
-8.28362
-7.92442
-7.57429
-7.23308
-6.90069
-6.57704
-6.26207
-5.95574
-5.65801
-5.36887
-5.0883
-4.81628
-4.5528
-4.29786
-4.05144
-3.81352
-3.58407
-3.36306
-3.15042
-2.94611
-2.75005
-2.56218
-2.38242
-2.21071
-2.04697
-1.89109
-1.74299
-1.60251
-1.46953
-1.34387
-1.22537
-1.11383
-1.00908
-0.91091
-0.819144
-0.733582
-0.654019
-0.58025
-0.512059
-0.449223
-0.391512
-0.338697
-0.290562
-0.246893
-0.207489
-0.172154
-0.140701
-0.112952
-0.0887377
-0.0678817
-0.0501696
-0.0353097
-0.0229527
-0.0128779
-0.0058358
-18.4736
-18.1848
-17.8086
-17.3672
-16.8792
-16.3603
-15.8228
-15.2766
-14.7294
-14.1867
-13.6524
-13.1293
-12.6189
-12.1221
-11.6395
-11.1711
-10.7167
-10.2759
-9.84827
-9.43313
-9.0299
-8.63804
-8.25706
-7.88653
-7.52613
-7.1756
-6.83474
-6.5034
-6.18144
-5.86878
-5.56534
-5.27105
-4.98587
-4.70974
-4.44263
-4.1845
-3.93533
-3.69508
-3.46369
-3.24112
-3.0273
-2.82215
-2.6256
-2.43757
-2.25797
-2.08673
-1.92374
-1.76892
-1.62213
-1.48324
-1.3521
-1.22851
-1.11231
-1.00329
-0.901258
-0.806015
-0.717361
-0.635093
-0.559
-0.488867
-0.424476
-0.365599
-0.311998
-0.26344
-0.219695
-0.180538
-0.145759
-0.11517
-0.0885963
-0.0658775
-0.046866
-0.0314187
-0.0193563
-0.0104211
-0.00430481
-0.000877434
-0.000731629
-19.6376
-19.2562
-18.7797
-18.2359
-17.6474
-17.0321
-16.4044
-15.7755
-15.1534
-14.5437
-13.9501
-13.3749
-12.8189
-12.2824
-11.7651
-11.2666
-10.7859
-10.3222
-9.87437
-9.44145
-9.02245
-8.61651
-8.2229
-7.84101
-7.47032
-7.11041
-6.76098
-6.4218
-6.09271
-5.77356
-5.46424
-5.16466
-4.87472
-4.59436
-4.32351
-4.06211
-3.81012
-3.56746
-3.33409
-3.10993
-2.89491
-2.68894
-2.49193
-2.30379
-2.12443
-1.95375
-1.79164
-1.63799
-1.49267
-1.35553
-1.2264
-1.10508
-0.991391
-0.885117
-0.786051
-0.693983
-0.6087
-0.52999
-0.457635
-0.391412
-0.331092
-0.276438
-0.227211
-0.183174
-0.144092
-0.109736
-0.0798914
-0.0543616
-0.0329758
-0.0155923
-0.00209557
0.00762587
0.0137136
0.0163731
0.0158555
0.012247
0.00499023
-20.9879
-20.4893
-19.8878
-19.2184
-18.5078
-17.7771
-17.0427
-16.3171
-15.6087
-14.9229
-14.2626
-13.6293
-13.0232
-12.4435
-11.889
-11.3584
-10.8501
-10.3624
-9.89367
-9.44233
-9.00704
-8.58661
-8.18005
-7.78651
-7.40529
-7.03583
-6.67768
-6.33054
-5.99421
-5.66849
-5.35324
-5.04831
-4.75359
-4.46897
-4.19437
-3.92971
-3.67491
-3.42991
-3.19464
-2.96901
-2.75293
-2.54629
-2.34897
-2.16086
-1.98188
-1.8119
-1.65082
-1.49851
-1.35483
-1.21961
-1.09268
-0.973839
-0.862869
-0.759555
-0.663675
-0.575006
-0.493327
-0.41842
-0.350058
-0.288011
-0.232036
-0.181887
-0.137311
-0.0980604
-0.0638927
-0.034579
-0.00990773
0.0103105
0.0262394
0.0380077
0.0457085
0.04942
0.0492399
0.0453109
0.0377989
0.0267523
0.0115504
-21.9
-21.1447
-20.3224
-19.4645
-18.5955
-17.7348
-16.8961
-16.0881
-15.3157
-14.5809
-13.884
-13.224
-12.5988
-12.0061
-11.4432
-10.9074
-10.396
-9.90673
-9.43736
-8.98603
-8.55118
-8.13151
-7.72599
-7.33381
-6.95432
-6.58705
-6.23162
-5.88774
-5.55518
-5.23374
-4.92324
-4.62353
-4.33449
-4.056
-3.78797
-3.53029
-3.28288
-3.04568
-2.81859
-2.60149
-2.39424
-2.19669
-2.00872
-1.83024
-1.66112
-1.50123
-1.35044
-1.20859
-1.0755
-0.950991
-0.834845
-0.726847
-0.626767
-0.53437
-0.44942
-0.371677
-0.300896
-0.236838
-0.17926
-0.127918
-0.0825572
-0.0429172
-0.00873834
0.0202303
0.0442245
0.0634596
0.0781258
0.088383
0.0943503
0.0960995
0.093672
0.0871066
0.0764589
0.0617816
0.0429735
0.0193581
-23.5428
-22.5949
-21.5843
-20.5466
-19.5108
-18.5002
-17.53
-16.608
-15.7373
-14.9183
-14.1497
-13.4289
-12.7528
-12.1177
-11.5194
-10.9541
-10.418
-9.90772
-9.42025
-8.95308
-8.50413
-8.07173
-7.65459
-7.25172
-6.86241
-6.48611
-6.1224
-5.77096
-5.43152
-5.10384
-4.78773
-4.483
-4.18952
-3.90713
-3.63572
-3.37516
-3.12535
-2.88619
-2.65758
-2.4394
-2.23152
-2.03382
-1.84613
-1.66833
-1.50027
-1.3418
-1.19278
-1.05302
-0.922335
-0.800521
-0.687357
-0.582618
-0.486063
-0.397448
-0.316527
-0.243038
-0.176711
-0.117283
-0.0645007
-0.0181181
0.0221228
0.0564968
0.0852761
0.108726
0.127092
0.140597
0.149436
0.15376
0.153673
0.149236
0.140467
0.127367
0.109922
0.0880404
0.0613896
0.0291477
-25.4485
-24.2548
-23.005
-21.7396
-20.4942
-19.2995
-18.1737
-17.1231
-16.1471
-15.2421
-14.403
-13.6244
-12.9004
-12.2254
-11.5937
-11.0001
-10.4398
-9.90861
-9.40286
-8.91949
-8.456
-8.01037
-7.58108
-7.16701
-6.76735
-6.38151
-6.00907
-5.64966
-5.30298
-4.96876
-4.64675
-4.33674
-4.03856
-3.75204
-3.47704
-3.21341
-2.96106
-2.71986
-2.48971
-2.27047
-2.062
-1.86417
-1.67683
-1.49979
-1.33291
-1.17601
-1.02892
-0.89146
-0.76341
-0.644549
-0.534634
-0.433413
-0.340621
-0.255995
-0.179273
-0.110196
-0.0485048
0.0060582
0.0537706
0.0949212
0.129795
0.158673
0.181834
0.19955
0.212078
0.219658
0.222503
0.220767
0.214548
0.203916
0.188881
0.16943
0.145512
0.1169
0.082955
0.0425759
-27.7341
-26.2438
-24.7
-23.1532
-21.6531
-20.2373
-18.9216
-17.7085
-16.5961
-15.5793
-14.6509
-13.8026
-13.0246
-12.3076
-11.6428
-11.0226
-10.4404
-9.89052
-9.3685
-8.87049
-8.39349
-7.93519
-7.4939
-7.06844
-6.65807
-6.2623
-5.88078
-5.51319
-5.1592
-4.81848
-4.49073
-4.17567
-3.87309
-3.58277
-3.30455
-3.03825
-2.78377
-2.541
-2.30982
-2.09005
-1.8815
-1.68403
-1.49745
-1.3216
-1.15629
-1.00136
-0.856616
-0.721841
-0.596813
-0.481285
-0.374996
-0.277667
-0.189016
-0.10876
-0.036621
0.0276739
0.0843899
0.133798
0.176182
0.211847
0.241091
0.26421
0.281493
0.293219
0.299659
0.301066
0.297673
0.289679
0.277235
0.260444
0.239358
0.214002
0.184337
0.150128
0.110584
0.0641236
-30.3468
-28.4512
-26.5152
-24.5637
-22.7339
-21.0897
-19.6162
-18.2824
-17.0684
-15.9628
-14.958
-14.0455
-13.2149
-12.4545
-11.7542
-11.1044
-10.4971
-9.92587
-9.38524
-8.87051
-8.37796
-7.9048
-7.44907
-7.00948
-6.58541
-6.17665
-5.78305
-5.40446
-5.04054
-4.69087
-4.35505
-4.03275
-3.72368
-3.42761
-3.14434
-2.87368
-2.61554
-2.36984
-2.13643
-1.91511
-1.70568
-1.5079
-1.32157
-1.14646
-0.982399
-0.829208
-0.686674
-0.554541
-0.432543
-0.3204
-0.217819
-0.124493
-0.0401103
0.0356316
0.10304
0.162404
0.214002
0.258124
0.29506
0.325108
0.348581
0.365787
0.377038
0.382643
0.382897
0.37807
0.36841
0.354155
0.335514
0.312673
0.285824
0.25519
0.221013
0.183514
0.142652
0.0987541
-30.9816
-28.7419
-26.3148
-23.9642
-21.9075
-20.15
-18.63
-17.2983
-16.1188
-15.0684
-14.1293
-13.2827
-12.5119
-11.8034
-11.146
-10.5307
-9.95102
-9.4017
-8.87806
-8.37616
-7.89298
-7.42651
-6.97541
-6.53944
-6.11896
-5.71425
-5.32547
-4.95236
-4.59444
-4.25123
-3.92227
-3.60722
-3.30576
-3.01752
-2.74232
-2.48015
-2.23107
-1.99491
-1.77141
-1.56033
-1.36141
-1.17434
-0.998902
-0.834989
-0.682483
-0.541169
-0.410755
-0.290928
-0.181372
-0.081757
0.00826877
0.0890523
0.160928
0.224222
0.279225
0.326196
0.365417
0.3972
0.421878
0.439796
0.451281
0.456665
0.456283
0.450459
0.439512
0.423747
0.403455
0.378909
0.350394
0.318299
0.283201
0.24602
0.208254
0.172543
0.148231
-30.9765
-28.9232
-26.847
-24.7037
-22.736
-20.9278
-19.285
-17.824
-16.5286
-15.3858
-14.3819
-13.4897
-12.6861
-11.9538
-11.28
-10.6523
-10.06
-9.49732
-8.96009
-8.44431
-7.94681
-7.46507
-6.99794
-6.5467
-6.11288
-5.69623
-5.29598
-4.91166
-4.54306
-4.18991
-3.85185
-3.52878
-3.2203
-2.92577
-2.64483
-2.37763
-2.12444
-1.88511
-1.65928
-1.44672
-1.24705
-1.0596
-0.884007
-0.720213
-0.568186
-0.427768
-0.298685
-0.180624
-0.0732596
0.0237855
0.110953
0.188648
0.257256
0.31718
0.368701
0.412007
0.447356
0.475093
0.495597
0.509228
0.516305
0.517159
0.512125
0.50153
0.485708
0.465026
0.439831
0.41043
0.377208
0.340748
0.302036
0.262797
0.226201
0.198597
0.201721
-32.1002
-29.4761
-27.1679
-25.0108
-23.0032
-21.1387
-19.4583
-17.959
-16.6225
-15.4481
-14.4241
-13.5145
-12.6953
-11.948
-11.258
-10.6146
-10.0096
-9.43734
-8.89346
-8.37462
-7.87885
-7.40601
-6.95494
-6.52002
-6.096
-5.68196
-5.27963
-4.89124
-4.51804
-4.16037
-3.81841
-3.49145
-3.17892
-2.88099
-2.59768
-2.3283
-2.07222
-1.8295
-1.60034
-1.38452
-1.18211
-0.993382
-0.817948
-0.654811
-0.502957
-0.36201
-0.232011
-0.112942
-0.0047228
0.0929643
0.180618
0.258587
0.327282
0.387224
0.43852
0.48106
0.515057
0.54094
0.559181
0.570179
0.574283
0.571918
0.563425
0.549132
0.529404
0.504712
0.475478
0.442003
0.404723
0.364317
0.322
0.279982
0.242547
0.21856
0.237959
-32.426
-29.7386
-27.2667
-25.0119
-22.9417
-21.058
-19.3797
-17.8907
-16.5825
-15.4384
-14.4322
-13.5335
-12.7196
-11.974
-11.2843
-10.6412
-10.0375
-9.46709
-8.92474
-8.40645
-7.90986
-7.43335
-6.97459
-6.53067
-6.09918
-5.67933
-5.27206
-4.87896
-4.50097
-4.13856
-3.79193
-3.46061
-3.14427
-2.8429
-2.55647
-2.28445
-2.02637
-1.78214
-1.55176
-1.33504
-1.13191
-0.942273
-0.765535
-0.600921
-0.447835
-0.305857
-0.174708
-0.0544433
0.0548566
0.153379
0.24133
0.319033
0.38677
0.444648
0.49317
0.533135
0.565099
0.589373
0.606289
0.616123
0.619187
0.615838
0.606508
0.591624
0.5715
0.546262
0.515936
0.480766
0.441178
0.397823
0.351916
0.305599
0.263128
0.233685
0.246312
-31.7604
-28.7831
-26.1473
-23.8865
-21.8902
-20.1193
-18.586
-17.2415
-16.0607
-15.0195
-14.0929
-13.2565
-12.4915
-11.7864
-11.1322
-10.5189
-9.93919
-9.38779
-8.85977
-8.35185
-7.86242
-7.39038
-6.9344
-6.49253
-6.06319
-5.64582
-5.24096
-4.84953
-4.47234
-4.11004
-3.76293
-3.43091
-3.11378
-2.81139
-2.52369
-2.25048
-1.99133
-1.74604
-1.51452
-1.29666
-1.09225
-0.90094
-0.722191
-0.555576
-0.400794
-0.257447
-0.125121
-0.0036725
0.106895
0.206753
0.295929
0.374685
0.443463
0.502455
0.55226
0.593741
0.627263
0.653017
0.671156
0.681913
0.6857
0.682854
0.673686
0.658661
0.638157
0.611968
0.579921
0.542253
0.49913
0.451102
0.399219
0.345279
0.29231
0.246783
0.230364
-31.8647
-28.3603
-25.1641
-22.4235
-20.243
-18.4947
-17.0671
-15.8727
-14.8541
-13.97
-13.1892
-12.4861
-11.8413
-11.2409
-10.6747
-10.1345
-9.61501
-9.1127
-8.62436
-8.14855
-7.68498
-7.23364
-6.79405
-6.36556
-5.94776
-5.54044
-5.14399
-4.75922
-4.38702
-4.02865
-3.68497
-3.35596
-3.04143
-2.74109
-2.45451
-2.1816
-1.92225
-1.67637
-1.44429
-1.22611
-1.0214
-0.829721
-0.650714
-0.483988
-0.329268
-0.186114
-0.0542378
0.0664758
0.176327
0.275559
0.364359
0.443008
0.511828
0.571111
0.6213
0.662897
0.696212
0.721517
0.73903
0.749058
0.751917
0.747869
0.737152
0.720141
0.697242
0.668569
0.634233
0.59442
0.549217
0.498795
0.443485
0.384034
0.321453
0.257935
0.203234
-36.1369
-33.5014
-29.8601
-26.1414
-22.8709
-20.3337
-18.3643
-16.7796
-15.4637
-14.3579
-13.4176
-12.6081
-11.899
-11.2639
-10.6834
-10.1434
-9.63442
-9.14899
-8.67916
-8.21912
-7.76848
-7.32898
-6.90092
-6.48354
-6.07643
-5.67948
-5.29224
-4.91462
-4.54744
-4.19175
-3.84868
-3.51884
-3.20219
-2.89848
-2.60736
-2.32829
-2.0612
-1.80631
-1.56397
-1.33459
-1.11848
-0.91554
-0.725461
-0.547898
-0.382534
-0.229114
-0.0874055
0.0427796
0.161671
0.269677
0.367177
0.454413
0.531621
0.599079
0.657099
0.705946
0.745912
0.777414
0.800817
0.816422
0.824495
0.825188
0.818609
0.804997
0.784572
0.757693
0.724803
0.686205
0.64195
0.592299
0.537169
0.476327
0.409761
0.337166
0.258274
0.173735
-35.945
-32.9622
-29.4953
-26.0187
-23.0591
-20.7414
-18.87
-17.2771
-15.8943
-14.6911
-13.6399
-12.7161
-11.8995
-11.1719
-10.5176
-9.92466
-9.38616
-8.89333
-8.42514
-7.96606
-7.51575
-7.07601
-6.64711
-6.22872
-5.82103
-5.42475
-5.04006
-4.66624
-4.3034
-3.95217
-3.61385
-3.28896
-2.97739
-2.67883
-2.39284
-2.11891
-1.857
-1.60741
-1.3704
-1.14634
-0.935626
-0.738293
-0.553976
-0.38221
-0.222601
-0.0748684
0.0611879
0.185786
0.299179
0.401793
0.494157
0.576569
0.649272
0.71252
0.766529
0.811473
0.847613
0.87537
0.895132
0.907164
0.911633
0.908676
0.898452
0.881189
0.857085
0.826368
0.789238
0.745821
0.696157
0.64024
0.577981
0.509131
0.433285
0.349377
0.25528
0.148278
-32.9656
-30.3039
-27.4924
-24.7406
-22.2791
-20.1861
-18.4108
-16.8922
-15.5911
-14.4727
-13.5031
-12.6522
-11.8965
-11.2139
-10.5841
-9.99404
-9.43059
-8.88064
-8.34418
-7.82716
-7.32948
-6.85014
-6.3886
-5.94483
-5.51975
-5.11596
-4.73144
-4.36117
-4.00365
-3.65958
-3.32942
-3.01279
-2.70933
-2.41861
-2.13997
-1.87309
-1.61809
-1.37527
-1.14493
-0.927291
-0.722501
-0.530586
-0.35138
-0.184576
-0.0298172
0.113145
0.244491
0.364395
0.473086
0.570958
0.658431
0.735712
0.803004
0.860615
0.908821
0.947864
0.978029
0.999684
1.01318
1.01881
1.01682
1.00747
0.990972
0.967589
0.937531
0.900976
0.858107
0.808875
0.753152
0.690723
0.621241
0.544149
0.458585
0.36296
0.25411
0.126594
-30.692
-28.4814
-26.2038
-23.9549
-21.8525
-19.9744
-18.3307
-16.8951
-15.6367
-14.5269
-13.5405
-12.6558
-11.8554
-11.1235
-10.4465
-9.81397
-9.21781
-8.65253
-8.11637
-7.60719
-7.12106
-6.65472
-6.20607
-5.77353
-5.35524
-4.94755
-4.55006
-4.16615
-3.79729
-3.44374
-3.10464
-2.77967
-2.46915
-2.17338
-1.89167
-1.62323
-1.36797
-1.1258
-0.896833
-0.681333
-0.479391
-0.291005
-0.115992
0.0459855
0.195318
0.332442
0.457767
0.571628
0.674368
0.766241
0.847411
0.918133
0.978716
1.02952
1.07088
1.10314
1.12663
1.1417
1.14867
1.14783
1.13946
1.12376
1.10084
1.07092
1.03427
0.990967
0.941022
0.884354
0.820733
0.749767
0.670928
0.583462
0.486223
0.377377
0.253139
0.1052
-27.0251
-25.0738
-23.1501
-21.3264
-19.656
-18.1547
-16.8115
-15.6082
-14.5268
-13.5507
-12.6645
-11.854
-11.1069
-10.4124
-9.76197
-9.14827
-8.56598
-8.0113
-7.48123
-6.97328
-6.48551
-6.01652
-5.56525
-5.13076
-4.71224
-4.31022
-3.92567
-3.55865
-3.20843
-2.87405
-2.5547
-2.24944
-1.95718
-1.67803
-1.41267
-1.16117
-0.9235
-0.699431
-0.488739
-0.291348
-0.107081
0.0642369
0.222834
0.369077
0.50338
0.626024
0.737273
0.837425
0.926688
1.00526
1.07337
1.13128
1.17923
1.21752
1.24644
1.26628
1.27736
1.28009
1.27483
1.26189
1.24148
1.21376
1.17883
1.13681
1.0877
1.03142
0.967867
0.896783
0.817663
0.729778
0.6321
0.523176
0.400751
0.260499
0.0909227
-25.9874
-24.2778
-22.596
-20.9867
-19.4831
-18.0985
-16.8316
-15.6741
-14.6155
-13.645
-12.7514
-11.9242
-11.1544
-10.4339
-9.7562
-9.11562
-8.50777
-7.92939
-7.37804
-6.85174
-6.34879
-5.86771
-5.40735
-4.96651
-4.54408
-4.13941
-3.7521
-3.38167
-3.02751
-2.68909
-2.36593
-2.05761
-1.76383
-1.48468
-1.22033
-0.970684
-0.735446
-0.514118
-0.306134
-0.111197
0.070676
0.239535
0.395576
0.538917
0.669655
0.788083
0.894583
0.989529
1.07332
1.14641
1.20922
1.26207
1.30523
1.33891
1.36336
1.37887
1.38574
1.38431
1.3749
1.35786
1.33344
1.30179
1.26301
1.21711
1.16401
1.10354
1.0354
0.959123
0.873996
0.779067
0.673106
0.55444
0.420611
0.267558
0.0855248
-25.1835
-23.6485
-22.1357
-20.6758
-19.2914
-17.9948
-16.7888
-15.6706
-14.6345
-13.6735
-12.7801
-11.9467
-11.1665
-10.4332
-9.74134
-9.08631
-8.46424
-7.87211
-7.30756
-6.76866
-6.25383
-5.76165
-5.29096
-4.84066
-4.40981
-3.99765
-3.60367
-3.22742
-2.86844
-2.52628
-2.20053
-1.89078
-1.59667
-1.318
-1.05461
-0.806283
-0.572588
-0.353001
-0.147105
0.0452989
0.224297
0.390028
0.542716
0.682576
0.809877
0.924977
1.02822
1.11994
1.20058
1.2705
1.32996
1.37927
1.41876
1.44873
1.46949
1.4814
1.48478
1.47995
1.46721
1.44684
1.41904
1.38392
1.34153
1.29183
1.2347
1.16987
1.09695
1.01532
0.924097
0.822166
0.708153
0.580411
0.43693
0.275015
0.0901224
-24.5769
-23.1665
-21.7737
-20.4215
-19.1269
-17.9002
-16.7455
-15.6629
-14.6493
-13.7004
-12.8112
-11.9762
-11.1901
-10.4481
-9.74569
-9.07916
-8.44528
-7.8414
-7.26541
-6.71559
-6.19047
-5.68876
-5.20935
-4.75121
-4.31345
-3.89533
-3.49619
-3.11549
-2.75271
-2.40739
-2.07907
-1.76735
-1.47183
-1.19221
-0.92828
-0.679713
-0.446105
-0.227007
-0.0220356
0.169083
0.346565
0.510638
0.66158
0.79968
0.925228
1.03853
1.1399
1.22967
1.30817
1.37573
1.43262
1.47915
1.5158
1.543
1.56108
1.57028
1.57089
1.56323
1.54758
1.52422
1.49334
1.45507
1.40945
1.35643
1.2958
1.22722
1.15014
1.06387
0.967392
0.859477
0.738671
0.603449
0.452384
0.284415
0.09983
-24.1074
-22.7844
-21.4757
-20.1998
-18.9702
-17.7958
-16.681
-15.6271
-14.6329
-13.696
-12.8127
-11.9793
-11.1915
-10.4455
-9.7377
-9.06491
-8.42437
-7.81377
-7.23113
-6.67482
-6.14345
-5.6358
-5.1508
-4.68751
-4.24505
-3.82265
-3.41963
-3.03547
-2.66966
-2.32174
-1.99126
-1.67782
-1.38102
-1.1005
-0.835933
-0.586943
-0.35314
-0.134127
0.0704605
0.260942
0.437595
0.600649
0.750365
0.887138
1.01135
1.1233
1.22328
1.31161
1.38859
1.45458
1.5099
1.5549
1.58995
1.61545
1.63172
1.63907
1.63779
1.62822
1.61061
1.58519
1.55216
1.51164
1.46365
1.40811
1.3448
1.27329
1.193
1.1031
1.00251
0.889898
0.76383
0.622947
0.466374
0.294407
0.110265
-23.7868
-22.518
-21.2622
-20.0352
-18.8483
-17.7093
-16.6226
-15.5899
-14.611
-13.6843
-12.8073
-11.9769
-11.1899
-10.443
-9.733
-9.05726
-8.41329
-7.79897
-7.21249
-6.6523
-6.11708
-5.60568
-5.1171
-4.65043
-4.20485
-3.77963
-3.37409
-2.98768
-2.61988
-2.27021
-1.93822
-1.62348
-1.3256
-1.04421
-0.778909
-0.529339
-0.295119
-0.0758828
0.128727
0.319036
0.495355
0.65798
0.807222
0.943436
1.06698
1.17816
1.2773
1.36473
1.44069
1.50556
1.55976
1.60364
1.63757
1.66189
1.67697
1.68313
1.68069
1.66994
1.65112
1.62448
1.5902
1.54839
1.49906
1.44207
1.37715
1.30388
1.22164
1.12949
1.0263
0.910695
0.781274
0.636845
0.476931
0.302666
0.118652
-23.5919
-22.35
-21.1217
-19.9212
-18.7586
-17.6408
-16.5719
-15.5535
-14.5858
-13.6675
-12.7965
-11.9702
-11.1856
-10.44
-9.73042
-9.05446
-8.40984
-7.79457
-7.20696
-6.6455
-6.10892
-5.59611
-5.10608
-4.63798
-4.19101
-3.76445
-3.35766
-2.97006
-2.60111
-2.25036
-1.91737
-1.60173
-1.30309
-1.02104
-0.755215
-0.505227
-0.270715
-0.0513139
0.153326
0.343565
0.519741
0.682206
0.831325
0.967426
1.09083
1.20184
1.30079
1.38797
1.46369
1.52827
1.58209
1.62556
1.659
1.68275
1.69721
1.70276
1.69971
1.68834
1.6689
1.64166
1.60677
1.56431
1.51429
1.45659
1.3909
1.31681
1.23365
1.14049
1.03615
0.919276
0.788499
0.642704
0.481583
0.306149
0.122172
-23.55
-22.3071
-21.0803
-19.8833
-18.726
-17.6144
-16.5519
-15.54
-14.5782
-13.6653
-12.7988
-11.9764
-11.1951
-10.452
-9.74458
-9.07032
-8.42707
-7.81293
-7.2262
-6.66542
-6.12932
-5.61681
-5.12691
-4.65878
-4.21164
-3.7848
-3.37762
-2.98954
-2.62006
-2.26874
-1.93516
-1.61891
-1.31965
-1.037
-0.77058
-0.52001
-0.284922
-0.0649638
0.140207
0.330954
0.507622
0.670554
0.820074
0.956515
1.08023
1.19156
1.29081
1.3783
1.45433
1.51916
1.57318
1.61682
1.65045
1.6744
1.68906
1.69478
1.69187
1.68062
1.66129
1.63411
1.59927
1.55686
1.50689
1.44924
1.38366
1.30974
1.22682
1.13401
1.03016
0.913948
0.783997
0.63916
0.479064
0.304705
0.121403
-23.6524
-22.3815
-21.1312
-19.9162
-18.7461
-17.6264
-16.5597
-15.5465
-14.5855
-13.6747
-12.8114
-11.9925
-11.2148
-10.4755
-9.77172
-9.10095
-8.46099
-7.84991
-7.266
-6.70778
-6.17396
-5.66343
-5.17522
-4.70848
-4.26243
-3.83638
-3.4297
-3.04189
-2.67249
-2.32108
-1.98726
-1.67065
-1.3709
-1.0877
-0.820702
-0.569525
-0.333787
-0.113129
0.0928117
0.284383
0.461925
0.625738
0.77607
0.913245
1.03767
1.1497
1.24965
1.33782
1.41452
1.4801
1.5349
1.5793
1.61366
1.63834
1.65372
1.66015
1.65794
1.64738
1.62875
1.60225
1.56808
1.52634
1.47709
1.42027
1.35566
1.28287
1.2013
1.11011
1.00821
0.894284
0.766956
0.625017
0.467883
0.296461
0.114923
-23.8632
-22.5389
-21.2429
-19.9911
-18.793
-17.6534
-16.5739
-15.5535
-14.5898
-13.6795
-12.8189
-12.0041
-11.2315
-10.4978
-9.79976
-9.1348
-8.50056
-7.89499
-7.31633
-6.763
-6.23368
-5.72724
-5.24269
-4.77917
-4.33589
-3.91216
-3.5074
-3.12111
-2.75288
-2.40234
-2.06913
-1.75289
-1.45327
-1.16998
-0.902726
-0.651141
-0.414862
-0.193537
0.0132011
0.205696
0.384261
0.549188
0.700766
0.839302
0.965113
1.07851
1.17981
1.26931
1.34732
1.41422
1.47034
1.51604
1.55166
1.5776
1.59421
1.60187
1.60094
1.59172
1.57445
1.54932
1.51649
1.47611