/*--------------------------------*- C++ -*----------------------------------*\
  =========                 |
  \\      /  F ield         | OpenFOAM: The Open Source CFD Toolbox
   \\    /   O peration     | Website:  https://openfoam.org
    \\  /    A nd           | Version:  13
     \\/     M anipulation  |
\*---------------------------------------------------------------------------*/
FoamFile
{
    format      ascii;
    class       volScalarField;
    location    "900";
    object      k;
}
// * * * * * * * * * * * * * * * * * * * * * * * * * * * * * * * * * * * * * //

dimensions      [0 2 -2 0 0 0 0];

internalField   nonuniform List<scalar> 
171247
(
1.09488
0.0616928
0.60432
0.611575
0.620096
0.630608
0.644278
0.663022
0.687759
0.722699
0.730317
0.769915
0.843107
0.908148
1.06193
1.22602
1.45585
0.530082
0.517432
0.525366
0.534743
0.546104
0.559482
0.574922
0.595082
0.621587
0.65432
0.669017
0.709433
0.76299
0.832376
0.9559
1.11318
1.31428
1.47237
0.444589
0.449771
0.455782
0.462507
0.470839
0.481907
0.496326
0.514424
0.5355
0.554817
0.571721
0.60508
0.643649
0.696399
0.770206
0.863812
0.980363
1.00182
0.409972
0.413118
0.416737
0.421199
0.426701
0.433456
0.441645
0.451348
0.462362
0.473603
0.483065
0.492464
0.504018
0.519021
0.538587
0.563851
0.594538
0.64007
0.682031
0.723971
0.767845
0.815482
0.391502
0.393746
0.396291
0.399204
0.40255
0.406377
0.410723
0.415604
0.420983
0.426499
0.431457
0.436294
0.441445
0.447797
0.456125
0.466685
0.479415
0.494429
0.509589
0.52321
0.535564
0.547178
0.37917
0.380617
0.382131
0.383719
0.385416
0.387264
0.389301
0.391563
0.394084
0.396855
0.399672
0.402397
0.405023
0.407655
0.410512
0.414029
0.418457
0.423586
0.429265
0.435097
0.440507
0.445056
0.448788
0.451837
0.374526
0.375348
0.376105
0.376825
0.377574
0.378391
0.379355
0.380529
0.381946
0.383568
0.385329
0.387126
0.388826
0.390408
0.391961
0.393637
0.395548
0.397702
0.400027
0.402375
0.404549
0.406317
0.407632
0.408513
0.371037
0.371114
0.3711
0.371105
0.371282
0.371737
0.372499
0.373441
0.374551
0.3758
0.377137
0.3785
0.37983
0.381094
0.382287
0.383435
0.384575
0.385731
0.386897
0.388032
0.389066
0.389837
0.390318
0.390512
0.366534
0.3661
0.365726
0.365522
0.365617
0.366121
0.366915
0.3679
0.369032
0.370257
0.37152
0.372778
0.373996
0.37515
0.376229
0.377236
0.378185
0.379093
0.379964
0.380777
0.381501
0.382095
0.382442
0.382543
0.363251
0.362521
0.361933
0.36159
0.361642
0.362152
0.362908
0.363867
0.364972
0.366156
0.367367
0.368566
0.369724
0.370826
0.371856
0.372812
0.373704
0.37455
0.375355
0.376107
0.376781
0.377358
0.377814
0.378065
0.361466
0.360596
0.359916
0.35952
0.359551
0.359997
0.360694
0.361596
0.362636
0.363749
0.364881
0.365993
0.367064
0.368084
0.369039
0.369925
0.370753
0.371541
0.372298
0.37301
0.373656
0.374219
0.374686
0.375047
0.360953
0.36002
0.359297
0.358882
0.358913
0.359328
0.359998
0.360873
0.361884
0.362961
0.364044
0.365092
0.366089
0.367027
0.367898
0.368699
0.369444
0.370155
0.37084
0.371488
0.372076
0.372586
0.373009
0.373341
0.360818
0.359886
0.359164
0.358751
0.358784
0.359198
0.35987
0.36075
0.361768
0.362852
0.363938
0.364982
0.365962
0.366872
0.367702
0.368455
0.36915
0.369812
0.370452
0.371058
0.371606
0.37208
0.372467
0.372763
0.360117
0.359444
0.359056
0.359098
0.359546
0.360248
0.361162
0.362218
0.363344
0.364474
0.36556
0.366574
0.367501
0.368332
0.369071
0.369745
0.370384
0.371
0.371582
0.372106
0.372552
0.372904
0.373111
0.361734
0.361153
0.360816
0.360876
0.361387
0.362151
0.363126
0.364252
0.365449
0.366652
0.367805
0.368871
0.369831
0.37067
0.371395
0.372035
0.372621
0.373172
0.373678
0.374114
0.37443
0.374559
0.374504
0.365129
0.364753
0.364546
0.364641
0.365158
0.365963
0.366968
0.368123
0.369365
0.370619
0.371826
0.372936
0.373916
0.374743
0.37542
0.375952
0.376376
0.376745
0.377049
0.377244
0.377293
0.377178
0.376898
0.370127
0.370106
0.370103
0.370274
0.370737
0.371528
0.372484
0.373611
0.37487
0.3762
0.377513
0.378726
0.379775
0.380538
0.381052
0.381427
0.38176
0.382096
0.382404
0.382618
0.382683
0.382572
0.382283
0.375154
0.37587
0.376612
0.377433
0.378413
0.379615
0.381061
0.382711
0.384481
0.386213
0.387726
0.388926
0.389832
0.390562
0.391268
0.392071
0.392997
0.393937
0.394747
0.395331
0.39565
0.395713
0.381609
0.383203
0.38492
0.386805
0.388895
0.39123
0.393838
0.396644
0.399468
0.402168
0.40458
0.406627
0.408296
0.409977
0.411958
0.414406
0.417324
0.420299
0.422898
0.42495
0.426435
0.427438
0.394193
0.396801
0.399823
0.403331
0.407375
0.411983
0.417138
0.422742
0.428294
0.433258
0.437544
0.441175
0.444894
0.449213
0.454703
0.461726
0.470388
0.478948
0.486447
0.492599
0.497292
0.500984
0.415844
0.419691
0.42447
0.430362
0.437571
0.446209
0.456223
0.467247
0.478396
0.487834
0.495381
0.502877
0.511576
0.523243
0.53853
0.55719
0.586622
0.612958
0.63641
0.658434
0.680326
0.702541
0.456216
0.463031
0.4706
0.479294
0.490514
0.50467
0.52188
0.541326
0.561082
0.576648
0.575203
0.581708
0.597883
0.622681
0.657863
0.704219
0.875115
0.940817
1.01088
1.08912
1.17026
1.25694
0.527813
0.537068
0.548119
0.561441
0.576581
0.595227
0.619155
0.648744
0.651075
0.664104
0.690082
0.730624
0.792633
0.869526
0.967586
1.10095
1.2653
1.50703
1.55794
1.65646
1.78752
1.93533
0.599988
0.607565
0.616893
0.628984
0.645524
0.66806
0.700086
0.703153
0.725064
0.768082
0.832053
0.882431
1.02157
1.17437
1.44196
1.47651
1.31965
0.935396
0.914005
1.08489
1.34249
1.53899
0.611657
0.617028
0.625244
0.636376
0.651756
0.676515
0.720828
0.728575
0.779205
0.879589
0.960474
1.12728
1.13775
0.459859
0.417074
0.710077
0.792628
0.810914
0.874455
1.00857
1.10137
1.19314
0.533744
0.535734
0.53909
0.544772
0.555037
0.576027
0.588186
0.628563
0.714609
0.798301
1.01866
0.939976
0.330222
0.846223
0.962605
0.970719
1.00375
1.02338
1.06438
1.13107
0.470209
0.465668
0.46224
0.460088
0.461971
0.472641
0.497026
0.513138
0.581745
0.695057
0.819657
1.02131
1.12954
0.60407
0.653362
0.987006
1.09088
1.02865
1.1378
1.18901
1.26551
1.3969
0.410888
0.405697
0.401396
0.397636
0.395128
0.39581
0.405905
0.428139
0.44871
0.508082
0.576008
0.669813
0.809397
0.902439
1.0917
1.40803
1.68224
1.58589
1.68265
1.82378
2.03124
2.34329
0.354833
0.352801
0.355388
0.36449
0.377618
0.391277
0.4263
0.468555
0.516216
0.56593
0.620305
0.695647
0.671896
0.736417
0.817508
0.905429
0.9955
1.09508
0.383195
0.375597
0.370929
0.369107
0.369507
0.372833
0.37918
0.387521
0.396993
0.407042
0.417587
0.436259
0.453113
0.470244
0.487828
0.505399
0.522996
0.830652
0.839875
0.851271
0.866445
0.887841
0.917871
0.959986
0.978434
1.06239
1.20191
1.35265
1.16963
0.65484
0.671212
0.689797
0.711934
0.737021
0.766849
0.806745
0.862298
0.891293
0.976289
1.08088
1.15782
1.15531
1.09686
1.09247
1.13336
1.39426
0.48163
0.493526
0.506889
0.521673
0.540582
0.565906
0.598908
0.639793
0.684803
0.71514
0.775451
0.824565
0.85861
0.877983
0.893716
0.910284
0.945315
1.03279
0.419692
0.425051
0.431639
0.440181
0.451288
0.465572
0.483563
0.505298
0.529083
0.549353
0.565666
0.580894
0.59625
0.611924
0.628068
0.644757
0.662004
0.679984
0.703705
0.726187
0.750184
0.776889
0.396761
0.400116
0.40404
0.408744
0.414466
0.421405
0.429723
0.439415
0.449996
0.4589
0.466958
0.474881
0.483114
0.491816
0.50122
0.511589
0.52296
0.534754
0.545973
0.555662
0.564008
0.571444
0.384657
0.386732
0.388907
0.39122
0.393768
0.396644
0.39992
0.403641
0.407809
0.412296
0.416317
0.419639
0.422746
0.42593
0.429337
0.433142
0.437528
0.442677
0.44837
0.454089
0.459309
0.463828
0.467662
0.470902
0.382385
0.383667
0.384807
0.385867
0.386966
0.388203
0.389651
0.391359
0.393305
0.395432
0.39755
0.399329
0.400711
0.401829
0.402904
0.404046
0.405369
0.406992
0.408954
0.411109
0.413218
0.415131
0.416786
0.418181
0.380089
0.380501
0.380751
0.380994
0.381463
0.382189
0.383125
0.38425
0.385522
0.386886
0.388267
0.389568
0.390723
0.391653
0.39229
0.392765
0.393163
0.393592
0.39412
0.39473
0.395315
0.395806
0.396168
0.396394
0.374565
0.374255
0.374017
0.373994
0.374365
0.375094
0.376057
0.377202
0.378457
0.379756
0.381039
0.382263
0.383394
0.384406
0.385259
0.38596
0.386535
0.387008
0.387445
0.387808
0.388058
0.388167
0.388127
0.387943
0.369429
0.368667
0.36809
0.367812
0.367976
0.368556
0.369399
0.370444
0.371622
0.37286
0.374096
0.375288
0.376418
0.37747
0.378419
0.379254
0.379989
0.380654
0.381268
0.381818
0.382279
0.38262
0.382751
0.382691
0.366255
0.365233
0.364437
0.363957
0.363924
0.364325
0.364985
0.365851
0.366856
0.367927
0.369001
0.370037
0.371029
0.371975
0.372852
0.373648
0.37438
0.375077
0.37575
0.37638
0.376937
0.3774
0.377752
0.377936
0.365354
0.364168
0.363214
0.362586
0.362417
0.362702
0.363249
0.364006
0.364899
0.365852
0.366796
0.367687
0.368525
0.369322
0.370059
0.370731
0.371361
0.371979
0.372592
0.37318
0.37371
0.37416
0.374517
0.374764
0.365196
0.364006
0.36305
0.36242
0.362251
0.362531
0.363077
0.363837
0.364739
0.3657
0.366651
0.367541
0.368368
0.369137
0.369834
0.370458
0.371038
0.37161
0.372183
0.372733
0.373227
0.373643
0.373969
0.374176
0.364622
0.363833
0.363362
0.363342
0.363738
0.364401
0.365278
0.366301
0.367387
0.368466
0.369483
0.370421
0.371273
0.372024
0.372672
0.373253
0.373809
0.374353
0.374867
0.375316
0.375676
0.375922
0.375977
0.367677
0.367114
0.366848
0.367026
0.367607
0.368454
0.369516
0.370718
0.371977
0.373215
0.374374
0.375425
0.376358
0.377136
0.377749
0.378235
0.378651
0.379032
0.379364
0.379585
0.379652
0.379563
0.379327
0.373081
0.372852
0.372834
0.37321
0.373939
0.374918
0.376093
0.377392
0.378737
0.380052
0.381274
0.382355
0.38326
0.383931
0.384285
0.384374
0.384328
0.384296
0.384249
0.38415
0.383972
0.383706
0.383351
0.379359
0.379603
0.379838
0.380307
0.381037
0.381995
0.383168
0.384514
0.385969
0.387446
0.388838
0.390037
0.390857
0.391211
0.391268
0.391145
0.390983
0.390892
0.390927
0.390999
0.391064
0.391098
0.391093
0.383553
0.38462
0.385737
0.38701
0.388545
0.390377
0.392499
0.394847
0.397243
0.399341
0.400885
0.402003
0.402851
0.40349
0.404056
0.404714
0.405591
0.406691
0.407876
0.409031
0.410118
0.411135
0.387906
0.39027
0.392921
0.395967
0.3995
0.403578
0.408205
0.413244
0.41791
0.42163
0.425036
0.428214
0.431182
0.433984
0.436774
0.439814
0.443243
0.44679
0.450167
0.453225
0.455971
0.458467
0.400567
0.404769
0.409897
0.416217
0.423944
0.433219
0.443974
0.455628
0.465609
0.474099
0.48195
0.489503
0.49657
0.503178
0.509657
0.516339
0.523293
0.530008
0.535696
0.540289
0.54405
0.547241
0.430809
0.438176
0.447723
0.460035
0.475666
0.494958
0.517683
0.541978
0.562422
0.577712
0.591065
0.603307
0.614421
0.623991
0.63255
0.640893
0.649316
0.659452
0.667459
0.674415
0.681245
0.687945
0.508016
0.523026
0.539484
0.558933
0.584201
0.61614
0.654602
0.694308
0.691505
0.698098
0.71397
0.730242
0.74241
0.750483
0.756945
0.764972
0.781843
0.859403
0.898233
0.940486
0.988209
1.0354
0.669153
0.687394
0.708815
0.733814
0.762182
0.799328
0.850523
0.852078
0.880213
0.932279
0.98265
0.989644
0.976115
0.953838
0.941817
0.969108
1.09487
1.31062
1.75756
1.87152
1.97
2.05802
0.813274
0.824178
0.838481
0.858392
0.887248
0.92725
0.927373
0.979299
1.08646
1.1675
1.27554
1.2224
1.17575
1.17143
1.16129
1.26664
1.57049
1.32857
1.4085
1.53871
1.60243
1.57387
0.903546
0.905816
0.911922
0.924413
0.947964
0.996205
1.00367
1.09924
1.19965
1.30927
1.04671
0.495465
0.635679
0.598683
0.8573
1.13697
1.22354
0.908815
0.911233
0.915795
0.924062
0.939927
0.976001
0.985551
1.09722
1.22363
1.08259
0.66471
0.790283
1.15702
1.38252
1.46359
0.725007
0.729481
0.735667
0.745888
0.76383
0.792475
0.820338
0.913524
1.03685
1.09899
1.00854
0.944638
1.59895
1.76147
2.65793
2.95488
2.97032
0.509512
0.511166
0.515575
0.525055
0.541281
0.569838
0.60958
0.656138
0.769093
0.856733
0.976492
0.967135
0.925286
0.876696
0.876006
1.06921
1.40857
2.06536
1.72991
1.97103
2.19127
2.3974
0.439927
0.452644
0.475518
0.505071
0.537126
0.603749
0.654955
0.671807
0.664465
0.644754
0.621517
0.605971
0.610939
0.58
0.614325
0.6524
0.684569
0.724006
0.449598
0.452729
0.459341
0.467236
0.475998
0.483374
0.487471
0.488379
0.486467
0.48243
0.477612
0.473524
0.470518
0.46791
0.465133
0.46295
0.462311
1.03566
1.03013
1.02985
1.03504
1.04698
1.06798
1.1031
1.12794
1.19534
1.15725
1.06131
0.895821
0.906941
0.922485
0.943244
0.967479
0.999795
1.043
1.07439
1.16279
1.23795
1.26625
1.19958
1.14772
1.05869
0.985819
0.923922
0.937757
1.14921
0.593725
0.61695
0.641354
0.668105
0.703073
0.74812
0.803034
0.863635
0.908496
0.995558
1.03274
1.02341
1.00578
0.98295
0.951372
0.91327
0.879703
0.869464
0.44863
0.458529
0.469512
0.483705
0.502666
0.527975
0.560014
0.599058
0.643274
0.68371
0.716858
0.738888
0.752694
0.766165
0.771813
0.770183
0.763138
0.754703
0.747283
0.4143
0.419568
0.425652
0.433033
0.442514
0.45485
0.470533
0.489866
0.51242
0.535818
0.557466
0.576315
0.592404
0.606876
0.618765
0.630474
0.637217
0.639755
0.641895
0.643953
0.645673
0.647202
0.648924
0.402803
0.406156
0.409623
0.41348
0.418056
0.423639
0.430424
0.438474
0.447901
0.458267
0.469101
0.479266
0.488947
0.498291
0.506867
0.514374
0.520727
0.526198
0.531414
0.536442
0.540997
0.545124
0.548973
0.552734
0.403187
0.405282
0.40695
0.408502
0.410201
0.412277
0.414961
0.418003
0.421531
0.425522
0.429677
0.433639
0.437502
0.44135
0.445065
0.448364
0.451392
0.454338
0.457428
0.460757
0.464219
0.467542
0.470721
0.47382
0.401154
0.402018
0.402369
0.402636
0.403438
0.404562
0.406007
0.407611
0.40926
0.411007
0.41274
0.414306
0.415646
0.416849
0.417893
0.418658
0.419194
0.419724
0.420491
0.421604
0.422931
0.424348
0.425814
0.42731
0.391183
0.390987
0.390661
0.390593
0.391028
0.391984
0.393276
0.394749
0.39631
0.397874
0.39932
0.400609
0.401734
0.402691
0.403336
0.403639
0.403673
0.403617
0.403657
0.403858
0.404163
0.40447
0.404755
0.405016
0.379768
0.378817
0.378011
0.377511
0.377448
0.377954
0.378911
0.380129
0.381532
0.383002
0.384446
0.38577
0.386981
0.388086
0.389037
0.389778
0.390239
0.390593
0.39096
0.391345
0.391672
0.391886
0.391973
0.391944
0.372578
0.371107
0.369841
0.368871
0.368299
0.368295
0.368856
0.369697
0.370742
0.371881
0.373023
0.374082
0.375084
0.376046
0.376925
0.377686
0.378354
0.378993
0.379637
0.380275
0.380859
0.381305
0.381556
0.381628
0.371472
0.36958
0.367835
0.366354
0.365284
0.364807
0.364984
0.365541
0.366317
0.36719
0.368057
0.368824
0.369523
0.370202
0.370832
0.371388
0.371913
0.372464
0.373057
0.373671
0.374252
0.374753
0.375072
0.375203
0.371253
0.36936
0.367611
0.366128
0.365054
0.36456
0.364727
0.365278
0.366056
0.366938
0.367818
0.368596
0.3693
0.369962
0.37056
0.371074
0.371557
0.372072
0.372635
0.373222
0.373777
0.374253
0.374552
0.374668
0.370192
0.368938
0.367983
0.367423
0.367395
0.36793
0.36876
0.369808
0.370962
0.372122
0.373184
0.374151
0.375016
0.375761
0.376362
0.376833
0.377323
0.37787
0.378433
0.378954
0.379339
0.37956
0.379624
0.377275
0.376503
0.376037
0.376002
0.376509
0.377454
0.378664
0.380081
0.381584
0.383052
0.384394
0.385581
0.386599
0.38741
0.387815
0.387963
0.388072
0.388262
0.388548
0.38882
0.389018
0.389123
0.389142
0.389212
0.388934
0.388894
0.389337
0.390278
0.391562
0.393068
0.394698
0.396374
0.397963
0.399411
0.400679
0.401714
0.402329
0.402498
0.402331
0.402073
0.401936
0.401995
0.402219
0.402552
0.402922
0.403328
0.400659
0.400997
0.401212
0.401963
0.403036
0.404469
0.406154
0.407947
0.409947
0.412046
0.414197
0.416253
0.418006
0.419403
0.420348
0.420881
0.421317
0.421961
0.422957
0.424295
0.425861
0.427553
0.429375
0.405253
0.40679
0.408485
0.41064
0.413475
0.416856
0.420835
0.425517
0.430678
0.436069
0.441355
0.446428
0.451124
0.455085
0.458375
0.461483
0.464752
0.468232
0.471778
0.475254
0.478736
0.482279
0.407631
0.411734
0.416686
0.422814
0.430351
0.439445
0.450098
0.462246
0.475046
0.487613
0.499589
0.510885
0.52107
0.529643
0.536644
0.5424
0.547667
0.55239
0.556775
0.561049
0.565352
0.569726
0.427038
0.435421
0.446177
0.460087
0.477652
0.499098
0.523951
0.550407
0.575072
0.596546
0.614771
0.630743
0.643938
0.655927
0.662978
0.664235
0.664705
0.665232
0.665655
0.666395
0.667599
0.66934
0.482668
0.498378
0.519099
0.546321
0.580234
0.6207
0.665916
0.711859
0.747219
0.76797
0.779587
0.791731
0.796018
0.792158
0.78167
0.768633
0.755898
0.745011
0.735884
0.729766
0.726399
0.7257
0.638228
0.663928
0.69147
0.72626
0.770002
0.821972
0.878433
0.938455
0.935995
0.928159
0.916298
0.903486
0.889155
0.869955
0.845098
0.818368
0.794542
0.779614
0.761624
0.76665
0.777705
0.795761
0.890242
0.9054
0.925874
0.949325
0.980273
1.02226
1.03013
1.08187
1.14815
1.16018
1.11019
1.06297
1.01041
0.949122
0.887542
0.838627
0.822858
0.860377
0.99006
1.13172
1.19136
1.2616
1.00237
1.0031
1.00858
1.02109
1.04352
1.08229
1.10821
1.19919
1.25789
1.24507
1.2338
1.30563
1.27459
1.21265
1.17119
1.12963
1.31865
1.63939
1.80191
1.8486
1.42752
1.33232
1.01429
1.00115
0.994539
0.998259
1.00241
1.0118
1.06999
1.16215
1.09535
0.213914
0.458868
0.852243
1.06596
1.10303
0.818137
0.794894
0.775381
0.759418
0.744971
0.774053
0.849044
0.946317
0.828296
0.285916
0.784819
1.42337
1.97272
0.661953
0.655908
0.653673
0.658484
0.678022
0.71493
0.747405
0.850511
0.933988
0.8911
2.16858
2.49144
3.13299
3.27077
0.497418
0.496187
0.497786
0.503651
0.518682
0.548606
0.569464
0.653186
0.768004
0.843346
0.86576
0.97332
1.01362
1.01641
1.02392
0.998506
0.928613
0.844864
1.00347
0.939738
1.07582
1.22127
0.46178
0.474899
0.495575
0.505409
0.549123
0.598088
0.625329
0.627782
0.616354
0.596227
0.572362
0.553456
0.543931
0.542061
0.541224
0.548559
0.557816
0.570291
0.468807
0.472525
0.477767
0.483234
0.488173
0.490976
0.491784
0.490971
0.488627
0.484723
0.480777
0.478985
0.478796
0.478361
0.476912
0.47491
0.472881
0.931221
0.895034
0.859812
0.825599
0.796466
0.773979
0.757042
0.770499
0.852262
0.882532
0.963128
0.957768
0.954278
0.948773
0.94267
0.939248
0.926357
0.912458
0.916285
0.962105
1.0324
1.00119
0.944111
0.920141
0.890515
0.830215
0.767791
0.757297
0.755821
0.776193
0.798864
0.827097
0.863117
0.909449
0.940006
0.964158
0.971777
0.969568
0.940478
0.914678
0.896762
0.87646
0.849677
0.815464
0.778022
0.747346
0.525327
0.537605
0.555491
0.58255
0.619559
0.671286
0.724929
0.779694
0.832343
0.878576
0.905011
0.895802
0.876415
0.860485
0.835456
0.812127
0.788097
0.764238
0.721153
0.46498
0.472402
0.480647
0.492312
0.511536
0.539164
0.574496
0.616302
0.663989
0.71236
0.750416
0.773734
0.787071
0.798887
0.800019
0.785606
0.760213
0.738567
0.724755
0.715604
0.709831
0.707128
0.707334
0.44725
0.451765
0.45623
0.462017
0.470621
0.483142
0.500199
0.520935
0.547005
0.575697
0.603159
0.628051
0.649734
0.669071
0.683553
0.693268
0.694907
0.691205
0.686084
0.682041
0.67979
0.6795
0.681048
0.684268
0.454148
0.457102
0.458283
0.459782
0.462373
0.466684
0.473148
0.481781
0.492256
0.504604
0.518136
0.531898
0.545665
0.55921
0.571676
0.583044
0.590541
0.595346
0.598045
0.600597
0.603133
0.605841
0.608911
0.612408
0.454218
0.455358
0.454307
0.45337
0.453473
0.45486
0.457285
0.460732
0.46503
0.470034
0.475436
0.481012
0.487062
0.493327
0.499566
0.505185
0.509655
0.513296
0.516448
0.519302
0.52205
0.524789
0.527602
0.530557
0.429012
0.429743
0.429592
0.428123
0.427236
0.427896
0.429259
0.432013
0.434834
0.437837
0.440907
0.443821
0.446411
0.448989
0.451642
0.454309
0.456773
0.458824
0.460584
0.462271
0.46394
0.465589
0.467211
0.468822
0.470444
0.398808
0.398249
0.397564
0.396087
0.394795
0.395019
0.395965
0.397771
0.400409
0.403278
0.406193
0.408908
0.41122
0.413325
0.415321
0.417151
0.418601
0.419614
0.420535
0.421559
0.422794
0.424004
0.42514
0.42619
0.427163
0.382648
0.380762
0.378657
0.376327
0.374196
0.373049
0.372576
0.372904
0.374117
0.376028
0.37812
0.380173
0.381996
0.383662
0.38532
0.386824
0.387978
0.388873
0.38984
0.390958
0.39213
0.393262
0.394271
0.395091
0.395716
0.38634
0.383089
0.379468
0.376167
0.373864
0.372218
0.371407
0.371536
0.37253
0.373753
0.374915
0.375851
0.376507
0.377218
0.377855
0.378235
0.378493
0.378945
0.379591
0.380353
0.381119
0.38179
0.382291
0.382597
0.386104
0.382843
0.379212
0.375899
0.373591
0.371935
0.371092
0.371201
0.372201
0.373433
0.374618
0.375592
0.376374
0.377118
0.377681
0.377943
0.378103
0.378494
0.379114
0.379859
0.380613
0.381287
0.381801
0.382131
0.37938
0.377241
0.374875
0.372694
0.371537
0.370914
0.371071
0.372118
0.373899
0.375919
0.377964
0.379843
0.381618
0.383295
0.38467
0.385585
0.386303
0.387182
0.388276
0.389493
0.390693
0.391818
0.392792
0.393604
0.394653
0.393252
0.39194
0.392095
0.392889
0.394502
0.396945
0.399674
0.402541
0.40533
0.407834
0.410144
0.412637
0.414479
0.41572
0.416542
0.417395
0.418466
0.419883
0.421353
0.422786
0.424174
0.42553
0.425703
0.424462
0.423727
0.424501
0.425839
0.428531
0.431269
0.434236
0.437434
0.440722
0.443914
0.447157
0.45084
0.453937
0.456748
0.458998
0.460995
0.463174
0.465415
0.46768
0.469955
0.472263
0.474681
0.45447
0.453653
0.452585
0.452426
0.453244
0.455411
0.458685
0.463046
0.468503
0.474862
0.481781
0.489336
0.496993
0.504471
0.511206
0.516757
0.521426
0.52585
0.530024
0.534069
0.538141
0.542379
0.546874
0.457268
0.458526
0.461034
0.46532
0.471942
0.481063
0.492804
0.506972
0.522956
0.53965
0.556294
0.572454
0.587409
0.599082
0.609609
0.617034
0.622221
0.626735
0.631067
0.635667
0.640797
0.646574
0.454719
0.461646
0.471551
0.485513
0.504297
0.52724
0.556021
0.588361
0.620077
0.648999
0.674468
0.696903
0.713619
0.725101
0.72842
0.726669
0.722328
0.719239
0.718376
0.720168
0.724535
0.73044
0.488317
0.502235
0.523418
0.553243
0.590912
0.634937
0.68471
0.73469
0.774382
0.799403
0.813666
0.826468
0.827566
0.806613
0.775218
0.762123
0.748068
0.739105
0.734454
0.734294
0.73856
0.747223
0.576099
0.60451
0.643206
0.695194
0.748336
0.801131
0.850766
0.893807
0.917869
0.907503
0.884641
0.862914
0.833652
0.81207
0.789535
0.766683
0.718748
0.71258
0.710369
0.716282
0.730123
0.752562
0.775911
0.800278
0.830041
0.865204
0.90849
0.935789
0.955507
0.960199
0.965219
0.933763
0.896761
0.870832
0.845664
0.818268
0.789253
0.75976
0.73572
0.71683
0.703478
0.744768
0.815331
0.898497
0.931026
0.926979
0.92123
0.915679
0.913386
0.905675
0.92002
0.942009
0.954797
0.936287
0.922125
0.902913
0.874976
0.841882
0.79952
0.757826
0.739274
0.738747
0.767778
0.830632
1.69303
1.77807
0.875864
0.842632
0.812275
0.787526
0.76897
0.778479
0.812492
0.876473
0.943758
1.06886
1.1956
1.14123
1.12958
0.902863
0.747465
0.739925
0.677702
0.800468
1.35625
2.02129
1.37812
1.21114
0.780712
0.749272
0.720867
0.701326
0.684651
0.698919
0.746216
0.889403
0.579036
1.00469
1.07176
1.20617
0.693453
0.682612
0.674585
0.669496
0.668419
0.678062
0.722326
0.875379
0.278811
0.775669
1.05392
2.08409
0.575249
0.572969
0.573915
0.579454
0.593359
0.605228
0.648384
0.763865
1.34949
2.04453
1.65029
1.69786
0.500391
0.499269
0.500807
0.506325
0.520236
0.54448
0.549822
0.615642
0.737906
0.923792
1.08646
1.01906
0.942479
0.916758
0.867378
0.93039
1.06217
0.905225
0.763267
0.774303
0.722169
0.754664
0.489407
0.498687
0.510585
0.518537
0.549662
0.575734
0.580233
0.576326
0.56978
0.563164
0.557157
0.552526
0.549159
0.548786
0.548186
0.530201
0.53292
0.534876
0.47949
0.48236
0.48549
0.487524
0.488113
0.487386
0.485828
0.483407
0.479989
0.475672
0.472248
0.472588
0.474791
0.477164
0.479154
0.479914
0.479838
0.688321
0.651684
0.618447
0.589921
0.565387
0.548087
0.556632
0.602725
0.742731
0.842429
0.788214
0.734845
0.684564
0.63921
0.600649
0.579338
0.594811
0.660973
0.799829
0.833654
0.816825
0.855637
0.940622
1.05597
1.00836
0.948897
1.07069
0.816838
0.811471
0.790192
0.752778
0.712106
0.681214
0.643318
0.623749
0.640788
0.686735
0.72714
0.75154
0.758148
0.775198
0.796062
0.771804
0.750594
0.760567
0.50564
0.536222
0.574893
0.617814
0.656111
0.667288
0.69237
0.701668
0.697361
0.694534
0.711719
0.735288
0.742911
0.743912
0.740246
0.727383
0.712616
0.693906
0.690926
0.790382
0.466149
0.463387
0.465559
0.469598
0.502513
0.529101
0.585702
0.636802
0.67753
0.705954
0.706393
0.718054
0.724109
0.728376
0.737417
0.737148
0.727144
0.70831
0.696278
0.70887
0.720113
0.73204
0.746523
0.490669
0.482083
0.472579
0.467233
0.47299
0.485996
0.503474
0.519766
0.55284
0.583972
0.615163
0.641342
0.662447
0.680814
0.689069
0.691391
0.694507
0.690921
0.662755
0.666961
0.672841
0.680422
0.689869
0.701299
0.530213
0.531712
0.524868
0.516012
0.509493
0.504686
0.503141
0.51
0.521886
0.536927
0.554011
0.572403
0.590181
0.608044
0.626129
0.631555
0.637452
0.638217
0.625373
0.628489
0.632775
0.638475
0.645601
0.654078
0.624523
0.626964
0.621658
0.612718
0.603226
0.590965
0.577995
0.566315
0.556207
0.549796
0.548459
0.563396
0.567707
0.57473
0.583107
0.587977
0.589319
0.589161
0.590385
0.592229
0.594813
0.598456
0.603203
0.608982
0.578061
0.590466
0.601617
0.604478
0.601486
0.647917
0.640933
0.619776
0.592157
0.575488
0.565112
0.557045
0.573005
0.568038
0.564805
0.562946
0.561357
0.558547
0.555784
0.555277
0.555435
0.556076
0.557352
0.559333
0.561994
0.493605
0.499702
0.506052
0.506829
0.50384
0.542579
0.540287
0.538465
0.53654
0.535293
0.534482
0.532541
0.527882
0.522863
0.519392
0.516462
0.512974
0.508822
0.5052
0.503405
0.502999
0.502828
0.502913
0.503294
0.503971
0.403825
0.403743
0.40438
0.403131
0.400669
0.427617
0.42782
0.429243
0.432244
0.437017
0.442735
0.447215
0.449487
0.448897
0.448919
0.448806
0.447259
0.444757
0.442397
0.441261
0.441453
0.441664
0.44188
0.442118
0.44237
0.43548
0.43463
0.430259
0.423418
0.503989
0.495163
0.48764
0.48222
0.478865
0.477551
0.475926
0.47287
0.46727
0.462378
0.458006
0.452354
0.446073
0.440271
0.435909
0.43321
0.430835
0.428717
0.426829
0.425111
0.48055
0.481711
0.476893
0.467887
0.50821
0.499116
0.491212
0.48541
0.481734
0.480261
0.478529
0.475381
0.469917
0.465248
0.460696
0.454482
0.447675
0.441517
0.436881
0.433927
0.431347
0.429081
0.427105
0.425356
0.406354
0.404876
0.40129
0.396349
0.423716
0.422364
0.422998
0.425119
0.42909
0.434451
0.439003
0.441819
0.442605
0.444136
0.44418
0.442339
0.439676
0.437439
0.436562
0.437145
0.437812
0.438543
0.439359
0.44025
0.434277
0.434339
0.432434
0.525788
0.523934
0.522318
0.520435
0.519226
0.518904
0.518253
0.515929
0.513399
0.502095
0.504403
0.502203
0.499257
0.496996
0.496672
0.497831
0.499181
0.500742
0.502583
0.50473
0.541389
0.542745
0.540448
0.640414
0.635041
0.612339
0.580281
0.558957
0.545548
0.537258
0.574899
0.572624
0.559192
0.562722
0.563465
0.562491
0.561323
0.562338
0.56387
0.565739
0.568189
0.571388
0.575381
0.626765
0.630573
0.628034
0.624184
0.615966
0.605761
0.594537
0.583527
0.574401
0.568102
0.581804
0.588545
0.597731
0.606781
0.612458
0.614411
0.613597
0.613704
0.614576
0.616463
0.619788
0.624676
0.631105
0.576875
0.570804
0.565153
0.557313
0.549577
0.544763
0.540773
0.558454
0.579434
0.601495
0.620918
0.638199
0.654146
0.661477
0.65136
0.638585
0.643383
0.644885
0.648228
0.65376
0.661581
0.67172
0.493705
0.489637
0.489236
0.493449
0.503153
0.539603
0.574592
0.608198
0.640765
0.66675
0.685415
0.700089
0.704111
0.696759
0.690328
0.685514
0.666926
0.67033
0.67654
0.685793
0.698462
0.714955
0.463801
0.486974
0.519714
0.52182
0.546792
0.589066
0.635266
0.679776
0.722083
0.732106
0.733951
0.729693
0.733242
0.734223
0.727909
0.711232
0.697073
0.704554
0.720404
0.739771
0.764877
0.797374
0.584511
0.626484
0.664467
0.663614
0.687021
0.707395
0.720153
0.727539
0.743361
0.760142
0.759095
0.752417
0.738694
0.717935
0.700106
0.681799
0.674567
0.80474
0.823362
0.864612
0.918031
0.988685
0.799263
0.784416
0.752414
0.716337
0.704378
0.688409
0.673498
0.679958
0.706805
0.72937
0.730209
0.718492
0.713786
0.720468
0.70053
0.706477
0.736447
0.770176
0.802742
1.20783
1.32228
1.4599
0.784973
0.738107
0.692998
0.651195
0.609994
0.604875
0.618969
0.65908
0.706126
0.749348
0.778153
0.794614
0.86181
0.948324
0.869614
0.96288
1.08529
1.25112
1.45311
1.79623
1.59936
1.10772
0.677935
0.647018
0.618099
0.591464
0.569582
0.574776
0.61072
0.685801
0.847984
1.04018
1.07448
1.16612
1.2522
1.24873
0.825111
0.352062
0.366578
0.427069
0.822775
1.09151
1.26163
0.992067
0.603592
0.589528
0.577245
0.566628
0.562165
0.572517
0.634683
0.745619
0.260211
0.80298
0.866103
1.12694
0.570993
0.564021
0.560728
0.561192
0.570194
0.58271
0.635314
0.678304
1.49205
1.26602
0.553955
0.550795
0.550262
0.55495
0.57011
0.581829
0.654795
0.909271
1.05172
1.17735
1.20321
0.973782
0.533224
0.532688
0.534273
0.539658
0.550717
0.555311
0.58471
0.656168
0.919653
1.10155
1.13992
0.868494
0.818509
0.787256
0.793361
0.903981
1.09566
1.11107
0.805781
0.757458
0.660322
0.652717
0.528089
0.535135
0.536391
0.555686
0.584041
0.594087
0.59056
0.577718
0.565522
0.555295
0.548047
0.548209
0.551228
0.550713
0.549572
0.534987
0.535444
0.536531
0.502437
0.505514
0.507725
0.508969
0.509064
0.507812
0.504824
0.500794
0.495833
0.490639
0.487464
0.487847
0.489886
0.492117
0.493983
0.494909
0.49529
0.530646
0.518021
0.506842
0.496907
0.489484
0.488105
0.501913
0.581731
0.776796
0.575061
0.545729
0.522077
0.503051
0.487571
0.481322
0.47637
0.509808
0.594022
0.742211
0.87307
1.01159
1.2882
0.525308
0.498059
0.4983
0.886913
1.00566
0.821548
0.756863
0.697791
0.644952
0.597315
0.535119
0.498646
0.47958
0.495966
0.569325
0.6303
0.779961
0.959674
1.38916
1.3352
0.638164
1.33878
1.43159
1.50709
0.602365
0.638413
0.669277
0.662404
0.651363
0.625411
0.589248
0.566297
0.565667
0.56294
0.621082
0.658733
0.70726
0.849124
1.08331
1.0663
0.993455
1.14397
1.29669
1.08095
0.370497
0.401329
0.450841
0.508162
0.561189
0.602028
0.62677
0.632671
0.628791
0.63128
0.644199
0.693216
0.684151
0.691997
0.707364
0.706634
0.741802
0.761996
0.86998
0.823455
0.815689
0.81466
0.822684
0.385241
0.389106
0.391721
0.400587
0.429996
0.478298
0.530051
0.572008
0.591749
0.607895
0.616708
0.622002
0.633058
0.646752
0.649363
0.652003
0.641414
0.653536
0.680656
0.686679
0.692872
0.700792
0.711401
0.524819
0.494207
0.466581
0.444302
0.426784
0.42085
0.431926
0.45812
0.497756
0.532316
0.555831
0.545044
0.553762
0.567758
0.589177
0.599992
0.597322
0.597524
0.602198
0.612357
0.62103
0.62935
0.638204
0.628947
0.597484
0.562144
0.530622
0.513567
0.500817
0.491171
0.485618
0.48307
0.48647
0.494377
0.503945
0.517427
0.532551
0.545939
0.557091
0.564654
0.565147
0.568453
0.561623
0.569843
0.577433
0.584863
0.592466
0.820953
0.816531
0.808017
0.774648
0.736161
0.70645
0.682122
0.666069
0.651673
0.636849