/*--------------------------------*- C++ -*----------------------------------*\
  =========                 |
  \\      /  F ield         | OpenFOAM: The Open Source CFD Toolbox
   \\    /   O peration     | Website:  https://openfoam.org
    \\  /    A nd           | Version:  13
     \\/     M anipulation  |
\*---------------------------------------------------------------------------*/
FoamFile
{
    format      ascii;
    class       volScalarField;
    location    "900";
    object      omega;
}
// * * * * * * * * * * * * * * * * * * * * * * * * * * * * * * * * * * * * * //

dimensions      [0 0 -1 0 0 0 0];

internalField   nonuniform List<scalar> 
171247
(
831.961
340.712
76.8216
76.9403
77.3488
78.1762
79.6332
82.0822
85.5612
91.196
92.5134
101.123
120.804
144.379
325.073
678.595
1101.74
237.143
48.0902
49.4246
50.9939
52.8978
55.1136
57.6212
61.0759
65.8129
71.8136
74.7644
83.1447
96.0783
121.781
209.086
366.676
529.521
551.404
30.2787
31.2395
32.3475
33.5727
35.1063
37.1736
39.8622
43.2036
47.0637
50.6079
53.7169
60.0443
67.8419
82.0274
112.162
163.486
228.525
226.896
23.7124
24.14
24.6598
25.3488
26.2487
27.4047
28.8514
30.597
32.6002
34.6845
36.519
38.3897
40.514
43.2671
47.3461
53.7011
62.9778
80.1961
95.2781
108.307
119.747
130.111
21.1912
21.4212
21.7033
22.0506
22.4802
23.0102
23.6575
24.4338
25.3377
26.3298
27.3392
28.3857
29.4844
30.7108
32.2001
34.1402
36.7343
40.4253
44.5519
48.623
52.4242
55.8743
19.8609
19.9633
20.08
20.2128
20.3671
20.5505
20.772
21.0411
21.3666
21.7524
22.1885
22.6658
23.1727
23.7059
24.2744
24.905
25.6271
26.4669
27.4599
28.5614
29.6861
30.7716
31.784
32.7078
19.3384
19.3824
19.4267
19.4728
19.5251
19.5887
19.6687
19.7726
19.9052
20.0683
20.2596
20.4725
20.7007
20.9406
21.1934
21.4634
21.7549
22.0694
22.4075
22.7592
23.1102
23.4454
23.7575
24.0434
19.0291
19.0304
19.0306
19.0323
19.0408
19.0618
19.0968
19.1451
19.2085
19.2866
19.3771
19.4768
19.5823
19.6917
19.804
19.92
20.0407
20.1663
20.2955
20.4249
20.55
20.6659
20.7707
20.8642
18.9165
18.892
18.8683
18.8489
18.8395
18.8431
18.8602
18.89
18.931
18.9804
19.0349
19.0919
19.149
19.2051
19.2596
19.3127
19.3653
19.4178
19.4701
19.5206
19.5673
19.6084
19.6423
19.6692
18.9589
18.9231
18.8892
18.8623
18.8467
18.8449
18.8568
18.8815
18.9163
18.957
19.0003
19.0432
19.0841
19.1219
19.156
19.1863
19.2138
19.2397
19.2643
19.2867
19.3056
19.3201
19.3292
19.3326
19.0739
19.0352
19.001
18.9748
18.9607
18.9609
18.9754
19.0031
19.0402
19.0825
19.1258
19.1675
19.2059
19.2405
19.2705
19.2959
19.3176
19.337
19.3546
19.3698
19.3814
19.3884
19.3905
19.3877
19.1945
19.1566
19.1249
19.102
19.0921
19.0973
19.1177
19.1517
19.1955
19.2441
19.2928
19.3385
19.3797
19.4161
19.4472
19.4731
19.4948
19.5138
19.531
19.5454
19.5559
19.5615
19.5621
19.5577
19.1874
19.1498
19.1183
19.0958
19.0863
19.0919
19.1129
19.148
19.1931
19.2431
19.2928
19.3387
19.3793
19.414
19.4426
19.4654
19.484
19.5001
19.5146
19.5265
19.5348
19.5384
19.5371
19.5308
19.0136
18.98
18.9543
18.9409
18.9419
18.9576
18.9872
19.0266
19.071
19.1152
19.1558
19.1906
19.2191
19.2408
19.2567
19.2688
19.279
19.2883
19.2959
19.3007
19.3016
19.2983
19.2903
18.8907
18.8572
18.8305
18.8152
18.8139
18.8267
18.8531
18.89
18.9323
18.9751
19.0148
19.049
19.0767
19.0977
19.1131
19.1251
19.1356
19.1457
19.1547
19.1613
19.1642
19.1626
19.1566
18.8533
18.829
18.809
18.7987
18.8018
18.8187
18.8489
18.8902
18.9395
18.9918
19.0435
19.0915
19.1345
19.1721
19.2049
19.2346
19.263
19.2912
19.3184
19.3427
19.3629
19.3782
19.3886
18.983
18.9817
18.9815
18.988
19.007
19.0403
19.087
19.1486
19.2243
19.3113
19.4049
19.5007
19.595
19.6853
19.7721
19.8574
19.943
20.0291
20.1135
20.1931
20.2653
20.3291
20.3848
19.3607
19.404
19.4538
19.515
19.5931
19.6966
19.8293
19.9928
20.1843
20.3959
20.6173
20.84
21.0607
21.2806
21.5026
21.7297
21.9614
22.1913
22.4103
22.6117
22.793
22.9551
20.0316
20.1625
20.3163
20.501
20.7264
21.0034
21.3417
21.7446
22.1986
22.6906
23.1983
23.7041
24.2008
24.7025
25.225
25.7829
26.3947
27.0337
27.6559
28.2302
28.7425
29.1934
21.4513
21.7407
22.1025
22.5564
23.1229
23.82
24.6576
25.6277
26.6811
27.7421
28.7862
29.7912
30.7968
31.8629
33.078
34.542
36.5683
38.8423
41.0675
43.073
44.7775
46.1968
24.4929
25.0537
25.8083
26.8004
28.0752
29.657
31.5294
33.6183
35.7629
37.8036
39.5837
41.3291
43.2689
45.7365
49.1847
54.0834
64.7341
74.6246
83.1511
90.2625
96.0768
100.918
32.6805
34.0098
35.469
37.1313
39.2983
42.0149
45.2602
48.8724
52.4608
55.6272
55.5975
56.9109
60.1027
66.2276
77.4001
95.5961
177.304
198.271
215.393
230.942
243.973
255.675
50.5342
52.1452
54.0577
56.3516
58.8894
62.0726
66.3157
71.7248
71.9041
73.9692
79.3746
90.0658
116.417
165.141
238.304
321.802
385.05
420.223
398.226
384.563
371.95
356.175
74.0111
74.4195
75.1878
76.4962
78.6619
81.9117
87.1353
87.2546
90.7946
100.552
123.751
145.327
271.679
471.841
704.25
571.054
280.615
144.868
144.528
164.454
192.126
207.753
93.8125
92.3538
91.4383
91.229
92.015
94.7968
101.778
102.547
112.857
145.498
201.089
562.69
648.714
440.231
264.804
132.66
115.141
124.816
138.089
156.377
155.41
158.851
106.16
102.805
100.019
97.8851
96.6511
97.0605
96.9757
101.28
121.562
148.378
382.497
845.352
630.651
217.035
123.204
124.805
124.314
122.533
124.194
128.199
122.161
116.384
111.272
106.76
103.113
100.817
100.579
99.9703
108.09
134.728
189.253
385.1
720.94
559.11
221.456
136.095
116.961
112.543
121.553
122.187
125.079
131.764
137.382
130.507
124.236
118.411
113.029
108.245
104.787
103.5
102.773
106.805
118.636
162.255
254.636
394.989
521.289
571.882
516.811
441.668
417.277
400.716
389.784
378.271
119.427
114.87
110.823
107.581
105.386
104.072
103.958
108.768
121.685
149.618
190.451
236.767
228.069
238.841
248.376
258.168
266.751
275.734
106.841
105.738
104.516
103.207
102.164
101.361
101.169
101.944
104.021
107.579
112.495
121.982
129.127
134.494
138.53
141.4
143.36
130.665
128.902
127.754
127.415
128.203
130.464
134.921
137.165
152.973
193.945
472.515
743.178
91.46
93.2565
95.3731
98.0071
100.985
104.589
109.706
117.67
121.782
136.732
166.342
242.087
436.144
574.388
640.545
626.299
649.029
50.8485
53.8581
57.007
60.2295
63.9859
68.5716
74.0574
80.3968
87.1419
91.5759
101.09
110.956
124.398
139.335
158.403
184.582
218.61
254.317
31.3979
33.0274
34.9443
37.306
40.195
43.6484
47.6331
52.0027
56.4016
59.9544
62.9496
65.7155
68.4601
71.3969
74.8266
79.0808
84.4692
91.429
101.604
109.529
115.793
120.929
24.8765
25.7799
26.8351
28.085
29.5833
31.3635
33.4242
35.7082
38.0735
40.2449
42.227
44.0864
45.8478
47.5708
49.3368
51.2371
53.3456
55.7082
58.3231
60.8052
62.9971
64.8844
21.7672
22.2143
22.6981
23.2191
23.7954
24.4515
25.2114
26.0899
27.0827
28.1576
29.26
30.3484
31.4051
32.4244
33.4122
34.3825
35.351
36.3359
37.3332
38.3149
39.2268
40.0417
40.7556
41.377
20.9832
21.2497
21.499
21.7263
21.9437
22.171
22.4355
22.7664
23.1652
23.6255
24.1272
24.643
25.1548
25.6554
26.1461
26.6257
27.0943
27.553
28.0014
28.4297
28.8244
29.1775
29.4892
29.7636
20.3949
20.5217
20.6293
20.716
20.8066
20.9156
21.0458
21.2012
21.3835
21.5899
21.8158
22.0518
22.2898
22.5238
22.7495
22.9675
23.1773
23.3796
23.5746
23.7596
23.9298
24.0829
24.2187
24.3388
20.2094
20.2437
20.2645
20.2845
20.3182
20.3676
20.4325
20.5129
20.6062
20.7089
20.8179
20.93
21.0422
21.1518
21.2553
21.3523
21.4433
21.529
21.6107
21.6862
21.7538
21.8121
21.8615
21.9028
20.4303
20.4154
20.3919
20.3745
20.3683
20.3762
20.3983
20.4331
20.4776
20.5281
20.5808
20.6334
20.6844
20.7327
20.7765
20.8155
20.8497
20.8807
20.9093
20.9345
20.9549
20.9695
20.9774
20.9794
20.8085
20.7737
20.7386
20.7087
20.6882
20.6805
20.686
20.7022
20.7264
20.7548
20.7835
20.8098
20.8336
20.8543
20.8707
20.8824
20.8905
20.8967
20.9014
20.9037
20.9023
20.8961
20.8846
20.8678
21.2725
21.2306
21.1916
21.1577
21.1332
21.122
21.1249
21.1388
21.1602
21.1847
21.2078
21.2266
21.2412
21.2518
21.2573
21.2577
21.2543
21.2489
21.2422
21.2331
21.2202
21.2024
21.1792
21.1508
21.2617
21.2207
21.1826
21.1496
21.126
21.1159
21.1201
21.1357
21.1591
21.1856
21.2103
21.23
21.2443
21.2534
21.2564
21.2536
21.2469
21.2386
21.2291
21.2175
21.2022
21.1823
21.1571
21.1267
20.7401
20.7059
20.677
20.6575
20.6506
20.6574
20.6755
20.702
20.7323
20.7618
20.7869
20.8069
20.8213
20.8295
20.8319
20.8304
20.8277
20.8245
20.8198
20.8122
20.8003
20.7839
20.7629
20.3624
20.3392
20.3218
20.3154
20.3228
20.3446
20.3796
20.4244
20.4746
20.5252
20.5728
20.6159
20.654
20.6851
20.7086
20.7269
20.7429
20.7577
20.7705
20.7796
20.7841
20.784
20.7796
20.1799
20.1983
20.2154
20.2457
20.2912
20.3525
20.4295
20.5196
20.6184
20.7218
20.8257
20.9271
21.0237
21.1111
21.1883
21.2566
21.3185
21.3776
21.4324
21.4817
21.5248
21.5617
21.5932
20.4346
20.5357
20.6149
20.6972
20.7969
20.9179
21.0648
21.2396
21.4395
21.6592
21.8901
22.1226
22.3459
22.5543
22.7488
22.9294
23.0974
23.2547
23.4022
23.5369
23.658
23.7665
23.8647
21.2923
21.5087
21.7163
21.9346
22.1994
22.5328
22.9395
23.4138
23.936
24.4771
25.0078
25.516
25.9971
26.4457
26.8612
27.2458
27.6032
27.933
28.2285
28.487
28.713
28.9144
22.4878
22.9984
23.5715
24.2351
25.0169
25.9364
26.9944
28.1609
29.363
30.5362
31.6553
32.6973
33.657
34.5363
35.3448
36.0969
36.8044
37.455
38.0278
38.5136
38.9236
39.277
25.7676
26.8591
28.1759
29.78
31.7116
33.9703
36.4918
39.1141
41.5309
43.6362
45.5295
47.2278
48.7621
50.1648
51.4965
52.8016
54.1276
55.5132
56.7606
57.7796
58.5842
59.2193
34.1904
36.2765
38.8757
42.0674
45.8743
50.2237
54.9158
59.5343
63.2257
66.1217
68.6633
70.9833
73.2164
75.4329
77.7771
80.4301
83.7731
89.3425
93.6598
96.749
98.919
100.398
58.7776
62.3074
65.8802
69.7405
74.3011
79.5632
85.4306
91.1211
90.5496
91.3363
93.8342
97.3308
101.356
106.071
111.97
120.196
134.051
185.853
192.555
196.448
199.105
201.262
95.8396
97.8784
100.365
103.315
106.64
111.236
118.407
118.015
121.768
133.707
161.184
190.581
216.701
240.476
261.705
294.392
337.293
365.75
390.503
370.042
348.664
328.532
125.998
125.022
124.747
125.47
127.697
131.908
130.986
139.322
164.201
205.956
406.264
592.965
948.65
645.973
782.948
756.97
553.852
302.977
264.589
256.335
261.057
247.138
144.62
141.328
138.953
137.778
138.611
144.163
144.181
164.194
194.792
619.783
2440.83
549.865
156.612
173.826
203.188
196.813
189.675
159.945
155.089
151.254
148.57
147.727
151.58
151.643
181.045
257.019
883.098
195.396
193.809
179.567
165.537
161.597
159.764
153.816
148.756
144.696
141.871
141.052
141.594
154.447
188.671
564.461
1933.8
374.504
216.401
214.429
255.69
286.463
279.548
153.521
147.099
141.516
136.917
133.311
131.207
130.582
132.754
146.754
192.57
326.32
546.047
757.979
780.231
642.89
626.756
562.39
530.687
405.162
389.867
376.585
363.508
126.463
124.411
123.221
123.198
124.79
131.689
147.139
172.611
190.021
203.757
214.63
227.671
237.409
198.176
199.737
200.513
199.659
199.352
99.1487
101.04
102.98
104.863
106.382
107.868
109.357
110.817
112.162
113.286
114.165
115.048
116.093
116.144
115.068
113.526
111.927
154.435
149.64
145.632
142.534
140.43
139.859
142.693
147.868
186.231
482.1
2396.21
140.353
138.615
137.41
136.749
136.467
137.046
139.038
141.2
156.193
206.186
342.837
552.035
603.899
608.103
601.787
589.074
571.433
591.192
100.975
104.203
107.07
109.702
112.643
116.025
119.836
124.045
127.049
136.938
149.964
164.382
175.493
184.863
194.383
204.18
215.254
228.956
56.5596
60.4161
64.2132
68.3184
72.8862
77.9711
83.3962
88.9607
94.2527
98.4439
101.436
103.739
105.465
107.26
108.725
109.971
111.066
112.279
113.905
39.6183
42.1874
44.9454
47.9175
51.2125
54.9093
58.9478
63.1958
67.4039
71.1556
74.1916
76.7346
78.7092
80.3091
81.5875
82.8146
83.5368
83.8782
84.1866
84.5513
84.9446
85.2598
85.4993
32.0302
33.7222
35.3966
37.0789
38.844
40.7596
42.8625
45.1292
47.5109
49.891
52.1825
54.2328
56.0195
57.5693
58.8827
59.9439
60.7669
61.3699
61.8261
62.1886
62.4747
62.6957
62.8773
63.0522
29.6411
30.7393
31.6446
32.3726
32.9963
33.642
34.4617
35.4124
36.489
37.6519
38.8342
39.9724
41.0338
42.0075
42.8818
43.6165
44.2299
44.7296
45.1426
45.4841
45.7642
45.9917
46.1819
46.353
26.8243
27.4846
27.9653
28.2729
28.6182
28.9916
29.4123
29.8767
30.3781
30.9166
31.4714
32.0207
32.5419
33.0287
33.4745
33.8646
34.1935
34.4689
34.702
34.9012
35.0691
35.2082
35.3252
35.4273
25.2891
25.5767
25.7437
25.8983
26.0759
26.2708
26.4934
26.7271
26.967
27.2148
27.4676
27.7189
27.9581
28.1809
28.3807
28.5536
28.6969
28.8126
28.9061
28.9835
29.047
29.0964
29.1342
29.1636
25.3063
25.3524
25.3431
25.3296
25.3361
25.3568
25.3926
25.4425
25.5023
25.5703
25.6454
25.7189
25.7891
25.8529
25.9072
25.9488
25.9768
25.9932
26.0019
26.0039
25.9981
25.9844
25.9646
25.9399
26.1782
26.1204
26.0391
25.9456
25.8489
25.7594
25.6834
25.6206
25.5708
25.5289
25.4921
25.4535
25.4149
25.3764
25.3333
25.2831
25.228
25.1705
25.1127
25.055
24.9956
24.9329
24.8658
24.7954
28.0547
27.9375
27.7997
27.6445
27.4835
27.3256
27.1796
27.0472
26.9287
26.8171
26.7091
26.5967
26.4831
26.3709
26.2553
26.1347
26.0118
25.8901
25.7713
25.6554
25.5404
25.4247
25.307
25.1875
28.0503
27.9363
27.8015
27.6494
27.4913
27.3357
27.192
27.0622
26.9465
26.8375
26.7316
26.6199
26.5061
26.3916
26.2723
26.1472
26.0203
25.895
25.7731
25.6545
25.5368
25.4185
25.2984
25.1769
26.0655
25.9844
25.8907
25.7929
25.7002
25.6204
25.5539
25.5006
25.4551
25.4143
25.3707
25.3256
25.2784
25.2261
25.1671
25.104
25.0406
24.9786
24.9177
24.8561
24.792
24.7249
24.6558
25.2022
25.1898
25.1725
25.1682
25.1771
25.2
25.2364
25.2857
25.3451
25.4102
25.4741
25.5351
25.5889
25.6369
25.6692
25.6887
25.6991
25.7042
25.706
25.7017
25.6921
25.678
25.6609
25.3255
25.4876
25.6344
25.8043
25.9884
26.1984
26.4187
26.6438
26.876
27.1147
27.355
27.588
27.808
28.0089
28.1844
28.3296
28.4476
28.5441
28.6249
28.6943
28.7547
28.8071
28.8552
27.2614
27.7251
28.0063
28.3156
28.6499
29.0267
29.4518
29.9184
30.4339
30.9809
31.5423
32.0922
32.6153
33.0989
33.5239
33.8783
34.1739
34.4224
34.6351
34.8213
34.9859
35.1344
35.2765
30.8286
31.5341
32.1337
32.7809
33.6017
34.5746
35.6891
36.9283
38.2228
39.5002
40.7122
41.8334
42.8415
43.6954
44.3834
44.941
45.4057
45.7852
46.1005
46.3724
46.6245
46.8744
34.4722
36.1484
37.9329
39.8983
42.0906
44.5017
47.0725
49.7692
52.4007
54.7841
56.8772
58.6969
60.2358
61.461
62.3917
63.0481
63.5044
63.8328
64.0815
64.2954
64.5056
64.7281
44.7612
47.8739
51.3695
55.3297
59.6936
64.3128
68.9264
73.1645
76.6448
79.5257
81.7745
83.5727
84.9779
86.275
86.9125
86.9305
86.7622
86.5406
86.3426
86.1688
86.0288
85.9473
67.0433
71.3609
76.1685
81.4985
87.147
92.8536
98.2316
102.89
106.089
108.285
109.783
111.344
112.45
113.083
113.198
112.976
112.725
112.756
113.692
114.089
114.132
114.034
110.545
113.191
115.53
118.059
120.912
124.034
127.464
132.201
131.011
131.453
133.708
136.106
138.572
141.136
143.464
145.552
147.853
153.517
181.335
180.26
178.37
176.426
139.704
138.206
137.287
136.732
136.954
138.577
137.95
143.578
161.334
200.454
236.424
253.372
263.889
271.886
276.428
278.376
282.602
292.766
301.616
322.235
305.257
290.137
148.649
144.632
141.444
139.261
138.612
141.408
144.131
170.026
216.415
484.966
700.68
955.946
968.295
948.631
922.667
785.996
727.184
638.621
484.834
403.074
303.944
264.422
147.725
142.72
138.369
134.853
132.32
131.62
142.613
206.792
550.749
471.318
210.588
279.767
232.498
209.981
134.724
129.304
124.469
120.143
116.064
117.763
131.759
174.867
1200.09
288.669
226.787
212.841
217.25
158.526
152.143
146.614
141.981
138.831
138.388
140.78
173.765
554.258
533.28
484.153
341.785
363.756
327.725
154.189
148.815
144.239
140.502
137.635
136.008
134.84
143.232
195.885
445.676
1047.5
745.711
811.64
816.263
796.014
603.632
511.199
405.419
381.551
283.03
274.637
266.228
113.987
114.226
115.741
117.242
125.256
140.848
154.921
164.438
171.155
175.3
176.654
174.847
173.516
172.266
142.832
141.777
140.32
138.694
76.5907
79.5111
82.8252
85.9257
88.5118
90.3735
91.646
92.5294
93.074
93.1886
92.8401
92.3116
91.7264
90.9365
89.8034
88.3816
86.7561
152.776
145.99
139.89
134.503
130.022
126.57
125.377
135.774
213.501
1260.65
159.788
154.391
149.372
144.492
139.917
136.034
134.171
136.311
171.685
319.321
575.63
595.239
556.451
455.849
443.293
487.749
496.541
501.157
151.051
148.655
146.144
143.762
141.681
140.545
139.258
139.866
143.435
165.222
195.004
211.129
218.262
223.129
228.013
230.621
231.173
231.617
112.718
114.728
116.647
118.768
121.089
124.025
126.799
129.212
131.124
132.949
135.235
137.454
139.771
141.264
144.004
145.874
146.41
145.527
143.728
83.788
87.1596
90.2712
93.129
96.3355
100.385
104.458
108.397
111.871
114.753
116.755
117.93
118.747
119.405
119.313
117.896
115.29
114.521
113.516
112.566
111.653
110.911
110.35
66.8068
69.8652
72.6027
75.1384
77.6554
80.3007
83.1568
85.9427
88.9148
91.739
94.0514
95.8397
97.1819
98.2142
98.8013
99.0868
98.3707
97.289
95.9969
94.742
93.6132
92.6492
91.8633
91.2668
61.2811
63.7092
65.2813
66.2453
67.0935
68.1608
69.4626
70.9492
72.4705
73.9883
75.3917
76.6104
77.6601
78.5545
79.227
79.925
80.0603
79.7618
79.1142
78.4053
77.707
77.0676
76.5133
76.0533
52.3554
54.3408
55.3707
56.0328
56.5816
57.1104
57.71
58.418
59.2019
60.0262
60.8043
61.4587
62.0512
62.5629
62.9846
63.2642
63.354
63.2619
63.035
62.7393
62.4166
62.093
61.7891
61.5188
42.9955
44.3751
45.4463
45.9586
46.4295
47.0302
47.518
48.1479
48.5999
48.9736
49.3202
49.6293
49.8721
50.0746
50.2394
50.3672
50.4366
50.4154
50.3102
50.1525
49.9633
49.7568
49.5414
49.3262
49.1176
39.6307
40.1062
40.4366
40.4981
40.4981
40.6882
40.8458
40.9848
41.1188
41.2406
41.3565
41.457
41.5066
41.5245
41.51
41.4637
41.3761
41.2454
41.0752
40.8846
40.6947
40.5011
40.303
40.1025
39.903
39.6691
39.6669
39.5658
39.3419
39.0429
38.7909
38.5297
38.2707
38.0401
37.8457
37.6777
37.513
37.3384
37.16
36.9824
36.7877
36.5674
36.3274
36.0762
35.8284
35.5881
35.3541
35.123
34.8936
34.6663
45.8512
45.4879
44.9677
44.353
43.76
43.1305
42.4855
41.8639
41.2901
40.7576
40.2428
39.7386
39.2494
38.7767
38.3071
37.8307
37.3537
36.8832
36.4318
36.0047
35.5996
35.2107
34.8354
34.4721
45.9725
45.6174
45.1022
44.4917
43.9041
43.2766
42.6304
42.0056
41.4273
40.8907
40.3712
39.8593
39.3648
38.8861
38.4044
37.915
37.4266
36.9468
36.4883
36.055
35.6447
35.2516
34.8729
34.5073
39.6118
39.4947
39.254
38.9352
38.66
38.3595
38.0623
37.7898
37.5545
37.3504
37.1595
36.9682
36.7902
36.6208
36.4374
36.2269
36.0003
35.7641
35.5315
35.3081
35.0915
34.8794
34.6705
34.4656
39.8313
39.8693
39.8392
39.9572
40.0501
40.1279
40.2015
40.2778
40.3629
40.45
40.5128
40.5646
40.6893
40.6928
40.6569
40.5768
40.4579
40.319
40.182
40.0453
39.9054
39.7653
39.6296
44.1968
44.7287
45.2294
45.8894
46.416
47.0606
47.4972
47.8347
48.1509
48.4661
48.7612
49.055
49.4502
49.6859
49.8648
49.9497
49.9475
49.8998
49.8241
49.7317
49.6292
49.5297
49.4465
54.054
55.1091
55.7025
56.1565
56.5454
56.9779
57.5243
58.1843
58.9564
59.78
60.5698
61.3604
62.0914
62.7375
63.2332
63.5277
63.6345
63.6283
63.5496
63.433
63.312
63.2145
63.1582
63.5049
64.5044
65.342
66.3964
67.7115
69.2627
70.9856
72.7787
74.5356
76.1757
77.6517
78.9531
80.0279
80.784
81.4564
81.6048
81.2737
80.8462
80.4101
80.0262
79.7307
79.5439
70.5181
73.2455
75.984
78.871
82.049
85.2656
88.7052
91.9644
94.7127
96.9527
98.7664
100.26
101.276
102.035
101.766
101.04
99.9675
98.8925
97.926
97.1385
96.5656
96.2274
90.2417
93.3386
96.8128
101.158
105.538
109.768
113.508
116.619
118.762
120.262
121.448
122.618
122.931
119.615
114.657
119.042
118.132
117.161
116.205
115.494
115.079
115.015
119.324
121.411
123.704
126.518
129.17
131.344
132.979
134.558
136.938
139.683
142.462
138.991
135.55
134.094
132.822
131.026
148.085
146.426
144.894
145.057
145.25
145.781
149.877
147.237
144.719
142.337
140.776
139.1
139.327
138.92
145.117
156.917
166.404
172.919
177.691
181.332
183.103
182.564
180.986
178.844
177.95
209.782
209.514
209.001
152.997
147.791
142.746
138.039
134.039
132.537
134.01
150.763
200.856
270.484
293.341
297.003
300.587
306.474
304.126
299.31
299.562
297.881
297.434
294.033
349.514
317.352
143.784
137.572
132.176
127.772
124.426
123.513
133.031
203.567
417.704
673.182
950.724
664.848
663.167
662.496
499.756
737.239
625.586
575.91
539.753
431.619
280.32
255.078
142.858
137.885
133.191
129.23
125.693
124.885
137.384
266.613
468.639
280.793
255.034
233.965
152.946
147.104
141.837
137.177
133.483
132.285
143.856
373.359
367.424
252.225
221.778
294.091
151.216
145.25
140.148
135.942
132.957
132.331
140.972
203.465
735.47
532.19
367.179
316.135
133.21
128.705
124.99
122.187
120.741
122.044
121.853
142.142
261.171
557.56
843.992
602.573
527.197
498.988
686.236
742.73
689.036
462.709
312.682
276.403
196.296
186.854
92.1626
92.6859
94.9625
98.3398
111.41
127.49
131.315
131.886
131.618
131.002
132.021
131.59
129.267
127.242
124.763
102.029
100.427
98.4661
60.8808
62.6375
64.8862
67.0286
68.4931
69.3405
69.9424
70.3294
70.4294
70.2329
69.8213
69.399
69.0119
68.4278
67.6107
66.5342
65.2577
153.82
146.407
139.37
132.781
126.672
121.473
120.97
134.297
331.335
155.211
148.044
141.127
134.5
128.258
122.612
119.125
123.384
178.325
533.834
573.193
560.062
481.772
465.05
473.912
604.828
567.627
785.885
162.496
155.507
148.227
140.61
133.567
129.026
123.301
121.006
132.908
178.023
228.06
261.976
280.903
297.533
310.541
304.081
302.198
300.662
153.364
150.556
148.194
145.972
143.222
139.849
135.366
131.452
128.197
128.56
137.785
153.8
169.727
184.055
197.703
207.492
209.346
207.758
202.173
220.953
140.064
137.768
134.622
131.719
131.681
131.916
132.772
133.269
132.651
131.466
131.544
134.013
138.522
140.131
145.184
149.707
152.535
151.481
148.523
160.219
158.716
156.6
154.437
123.019
122.321
121.891
121.7
122.147
122.842
123.145
123.782
123.848
123.407
122.915
122.866
123.54
124.276
124.899
124.12
123.228
121.688
123.4
123.817
123.703
123.265
122.683
122.084
122.108
124.751
125.012
123.574
121.345
118.831
116.27
115.074
118.644
116.887
115.318
114.015
112.978
112.252
111.936
111.135
109.1
106.57
105.78
104.882
104.039
103.282
102.619
102.051
127.094
129.576
129.287
127.152
123.997
119.902
115.418
111.151
108.397
106.681
104.835
107.434
105.335
103.579
102.053
100.582
98.8118
96.8226
95.0494
93.417
91.9385
90.6433
89.5261
88.5703
104.131
107.236
109.824
110.557
109.75
128.083
124.193
117.819
108.312
101.534
96.6727
92.9664
99.5128
96.9954
94.6947
92.5884
90.5782
88.5368
86.5049
84.6479
82.8976
81.2721
79.795
78.4686
77.2835
89.1468
90.5309
91.8064
91.8375
90.6592
107.252
104.565
101.728
98.7577
95.8941
93.237
90.6853
88.1925
85.7829
83.5435
81.4476
79.4205
77.3944
75.4273
73.5928
71.9258
70.3606
68.9116
67.5812
66.3619
67.8275
68.0741
68.4691
68.3114
67.551
82.1656
81.057
79.7924
78.4831
77.2371
76.087
75.0843
73.807
72.2815
70.7303
69.1828
67.5826
65.9266
64.2736
62.7067
61.3005
59.9696
58.7238
57.5636
56.4824
78.0993
77.5656
76.2972
74.3141
95.3173
92.4199
89.4332
86.5285
83.8103
81.4045
79.4575
77.3964
75.1301
72.8906
70.7373
68.5735
66.3983
64.2772
62.2837
60.5031
58.842
57.3039
55.8828
54.5664
87.9337
87.6713
86.312
83.9447
96.5005
93.5114
90.4232
87.4146
84.5941
82.0945
80.0815
77.9683
75.6563
73.3993
71.2212
69.0137
66.7941
64.6348
62.6088
60.7989
59.1145
57.5578
56.1229
54.7973
69.4955
69.2026
68.3517
66.8835
81.4484
79.8979
78.6141
77.2534
75.9355
74.7269
73.7314
72.5232
71.1553
69.8611
68.4602
66.967
65.3994
63.8259
62.3328
61.0032
59.7465
58.571
57.4793
56.4667
75.1261
75.3767
74.7641
104.246
101.737
99.0105
96.0912
93.2241
90.5675
88.0994
85.8463
83.7853
80.5553
79.4925
77.8152
76.0938
74.3966
72.8057
71.3646
70.0016
68.7344
67.5718
66.5116
96.6898
96.9996
96.1593
126.38
122.816
116.543
106.315
98.2894
92.1299
87.4328
98.3335
96.2374
92.6407
91.6694
90.1044
88.4445
86.7274
85.1363
83.6121
82.1779
80.8687
79.6994
78.6698
120.019
121.17
120.371
118.259
114.962
111.225
107.29
103.533
100.423
97.8281
107.695
105.976
104.662
103.368
102.111
100.663
98.8396
97.1686
95.6278
94.2416
93.0481
92.0508
91.2392
128.389
126.773
124.082
120.454
116.419
112.82
119.198
117.469
116.13
115.174
114.472
114.003
113.88
113.366
110.421
105.906
108.541
107.808
107.135
106.563
106.111
105.79
120.326
119.693
118.897
118.172
117.884
124.746
124.966
124.741
124.458
124.663
125.603
126.533
127.376
124.449
120.894
118.28
127.49
128.227
128.372
128.174
127.844
127.542
132.609
132.846
132.829
131.096
129.815
130.012
130.312
130.171
133.344
136.385
141.568
139.058
138.792
140.518
142.102
141.464
139.38
168.078
166.6
164.5
162.441
160.724
149.09
146.714
143.832
141.255
138.213
135.462
132.663
131.216
134.89
143.839
154.607
165.826
176.46
184.378
188.634
188.094
185.039
233.506
223.381
216.248
210.27
205.72
154.315
147.409
140.081
133.289
130.346
125.89
123.316
129.558
156.611
192.334
220.812
240.483
256.93
270.369
255.391
267.868
267.266
263.36
255.874
290.129
275.894
264.583
146.434
140.03
133.882
128.038
122.298
120.252
121.596
152.202
257.529
334.841
372.275
383.09
397.168
411.937
377.958
452.355
463.449
458.006
428.655
408.593
268.82
212.44
146.557
140.078
133.812
127.821
122.482
121.125
128.835
195.465
960.544
870.825
634.223
652.77
596.416
608.454
1045.26
435.521
518.934
396.375
277.777
242.912
256.723
274.184
145.358
138.893
132.967
127.536
123.056
122.828
142.539
641.393
596.171
332.069
319.08
307.831
142.747
136.356
130.803
126.019
122.457
123.422
140.994
362.696
389.46
319.175
133.908
127.846
122.686
118.594
116.105
117.461
144.659
457.318
789.597
541.23
405.71
265.581
110.933
106.724
103.254
100.665
99.2949
99.6737
106.936
140.086
638.431
819.588
630.454
399.04
351.218
321.425
328.279
625.431
819.521
605.639
311.922
246.882
153.376
141.052
74.7446
75.4759
76.4012
83.4142
97.5193
104.002
104.515
103.39
101.993
100.658
99.5978
99.1312
98.4489
96.1099
93.4715
76.485
74.9467
73.0667
52.7998
53.6251
54.7468
55.6456
56.0541
56.2588
56.2231
56.0321
55.6902
55.2108
54.6787
54.2422
53.8935
53.4271
52.7849
51.8911
50.8454
144.524
137.84
131.718
126.062
120.919
116.592
116.024
136.284
837.991
143.623
136.676
130.437
124.843
119.764
116.828
113.383
117.517
187.979
522.83
626.193
733.803
778.785
528.668
741.005
446.845
318.093
349.476
289.174
152.495
144.054
136.421
130.872
122.886
117.298
113.048
114.581
148.538
213.215
382.186
515.274
567.542
800.316
668.594
467.043
414.698
382.073
158.399
154.73
151.085
146.17
138.703
131.54
124.92
122.197
127.656
132.204
169.095
223.097
279.934
335.982
452.043
568.501
635.314
576.152
418.177
306.974
143.873
141.109
140.375
140.545
140.192
139.555
137.675
135.015
133.844
136.191
143.086
193.16
191.88
205.069
224.407
245.244
268.883
285.074
308.904
265.268
239.48
219.559
204.281
144.339
143.18
143.762
140.867
137.482
135.587
134.252
132.969
146.533
147.288
151.852
153.972
155.177
158.735
163.251
169.002
175.43
180.122
198.921
190.022
181.105
172.87
165.553
205.567
203.683
196.533
183.628
168.407
154.577
143.863
135.795
133.182
133.471
133.995
134.081
132.546
131.748
131.175
131.521
130.63
129.773
140.269
140.694
139.622
137.685
135.298
234.946
233.338
222.768
209.906
197.752
185.441
173.314
162.323
151.943
142.778
135.384
128.902
124.878
122.821
120.879
118.382
116.154
113.495
111.05
113.183
113.267
112.978
112.382
111.55
249.336
242.751
238.741
229.697
216.654
202.343
188.309
177.264
168.405
160.489
153.501
146.212
137.548
129.131
122.497
117.339
113.104
109.352
105.696
106.811
104.626
102.703
100.984
99.43
98.005
253.859
248.018
244.46
237.116
224.118
207.891
190.767
175.641
162.884
152.47
144.23
137.481
131.235
124.773
118.786
113.624
108.941
104.451
100.098
96.655
99.6956
97.0198
94.5244
92.227
90.1237
173.14
175.431
179.212
179.541
174.948
167.81
209.342
196.893
184.824
173.454
163.627
152.446
136.711
124.994
115.312
107.73
101.629
96.2645
91.2861
86.988
93.6399
90.9873
88.4163
85.9612
83.6422
195.764
194.618
196.421
192.308
183.986
174.792
224.978
209.435
194.297
180.701
169.436
158.719
143.467
131.546
120.811
111.837
104.575
98.0826
92.0674
86.7592
95.2566
92.3277
89.4501
86.6607
83.9916
225.882
226.388
219.297
208.434
195.217
226.18
210.742
195.674
182.047
170.63
159.871
144.674
132.777
122.153
113.434
106.308
99.755
93.6442
88.2157
96.0285
93.1425
90.2904
87.5136
84.847
172.135
174.767
173.67
168.039
160.978
152.848
200.959
189.27
177.688
167.324
156.707
140.78
128.605
118.315
110.088
103.388
97.2927
91.6363
86.709
95.7386
93.0544
90.4219
87.8881
85.4856
218.029
214.939
205.893
193.761
180.247
167.301
155.472
145.174
136.657
130.078
124.379
118.781
113.974
109.877
105.691
101.451
97.1996
93.49
100.986
98.2697
95.7385
93.4108
91.287
239.769
232.88
220.611
205.562
190.136
177.53
167.274
158.456
151.09
144.617
137.385
130.01
124.197
119.236
114.465
109.995
105.69
108.027
105.741
103.738
101.964
100.383
98.9611
238.074
227.925
215.186
203.8
192.504
181.299
171.274
161.052
151.451
142.986
134.841
127.986
123.196
119.574
116.434
113.594
110.597
107.857
113.653
113.653
113.366
112.835
112.113
224.232
211.766
198.162
183.489
168.774
155.773
144.398
135.965
131.189
128.452
134.729
133.233
129.925
125.977
123.871
121.688
119.753
139.633
140.256
139.469
137.84
135.748
177.574
176.354
166.264
153.464
143.338
136.639
132.482
146.17
147.219
152.201
154.551
150.038
146.299
145.876
146.764
147.267
149.396
197.923
189.792
181.464
173.635
166.545
134.991
134.269
134.593
136.284
136.572
136.395
135.618
136.122
138.217
194.053
185.203
181.159
187.42
195.62
195.707
227.504
234.937
266.855
241.087
221.061
205.56
193.338
151.356
147.693
141.882
136.737
132.041
129.548
131.027
139.086
154.656
183.694
218.695
254.985
268.021
289.456
342.835
358.107
382.829
304.501
270.661
245.944
227.999
212.752
144.126
136.566
132.613
125.221
119.087
115.524
121.294
131.929
164.918
304.596
372.523
440.122
608.927
681.819
1083.34
574.851
398.417
353.446
322.352
257.475
231.333
198.957
136.356
130.162
124.621
119.598
116.717
112.519
113.905
166.145
244.246
444.508
588.864
622.081
774.468
561.169
431.57
372.311
275.204
253.207
231.691
186.34
199.412
137.815
131.76
126.174
121.095
116.812
115.216
124.027
268.956
562.129
858.122
1080.77
677.004
553.664
1782.37
391.349
343.372
562.221
514.886
247.246
211.415
283.399
296.251
139.827
133.358
127.477
122.337
118.521
118.849
135.456
478.617
403.637
329.05
138.304
131.849
126.136
121.368
118.411
121.381
160.826
543.193
445.857
318.636
129.566
123.892
119.005
115.123
113.014
115.461
161.627
1561.79