/*--------------------------------*- C++ -*----------------------------------*\
  =========                 |
  \\      /  F ield         | OpenFOAM: The Open Source CFD Toolbox
   \\    /   O peration     | Website:  https://openfoam.org
    \\  /    A nd           | Version:  13
     \\/     M anipulation  |
\*---------------------------------------------------------------------------*/
FoamFile
{
    format      ascii;
    class       volScalarField;
    location    "500";
    object      nut;
}
// * * * * * * * * * * * * * * * * * * * * * * * * * * * * * * * * * * * * * //

dimensions      [0 2 -1 0 0 0 0];

internalField   nonuniform List<scalar> 
169916
(
0.012135
0.0108713
0.00990289
0.00925172
0.00895637
0.00905175
0.00958445
0.0105862
0.0120396
0.0139463
0.016406
0.0181852
0.0181782
0.0181698
0.0101844
0.00890535
0.00791545
0.00723813
0.00699106
0.00729429
0.00786008
0.00876799
0.0100707
0.0118182
0.0140382
0.0164929
0.0164897
0.0164815
0.00853081
0.00725037
0.00625291
0.00559319
0.0054514
0.00511687
0.00568312
0.00653909
0.00777497
0.0093969
0.0113132
0.0134994
0.0136212
0.0134269
0.0129231
0.0125938
0.0123199
0.0120524
0.0117746
0.0114894
0.0111895
0.0107427
0.00876246
0.00716159
0.00588914
0.00493545
0.00445366
0.00401198
0.00499141
0.00407862
0.00431646
0.00521676
0.00672442
0.00852758
0.00795674
0.0079499
0.00745037
0.00704002
0.00709679
0.00682623
0.0064463
0.00608166
0.0057449
0.00543933
0.00516615
0.00774195
0.00608473
0.00478625
0.00400993
0.00356123
0.00365536
0.00258942
0.00260168
0.00305091
0.00396535
0.0055263
0.00533436
0.00523872
0.00515489
0.00344538
0.00332164
0.00320925
0.00310351
0.00300924
0.00292886
0.00286334
0.00281276
0.00277667
0.00713777
0.00534247
0.00395056
0.00307437
0.00301304
0.00228748
0.00221861
0.00192085
0.00190324
0.00229132
0.00264687
0.0021985
0.0021757
0.00220629
0.00209653
0.00210295
0.0021171
0.0021457
0.00219019
0.00224524
0.00231044
0.00238497
0.00246799
0.00255877
0.00705233
0.00507538
0.00364031
0.00293702
0.00195621
0.00166
0.00201704
0.00135769
0.00173812
0.001468
0.00150065
0.00136303
0.00198508
0.00195699
0.00204657
0.00226356
0.00234757
0.00244545
0.00255439
0.00267186
0.00279716
0.00292954
0.00306862
0.00321422
0.0033587
0.00760178
0.00533718
0.00362667
0.00288292
0.00164306
0.00112881
0.000871507
0.000766409
0.000374005
0.000386475
0.00100876
0.00158249
0.00211779
0.0023909
0.00264287
0.00283185
0.00301613
0.00320126
0.00338981
0.00358302
0.0037802
0.00397989
0.00418021
0.00437898
0.00896037
0.00630013
0.0042359
0.00448736
0.00200586
0.00142691
0.00204954
0.000791386
0.00154263
0.00195003
0.00220712
0.00160875
0.00305859
0.00360268
0.00403639
0.00385799
0.00408817
0.00431889
0.00454958
0.00477909
0.00500547
0.00522711
0.00544265
0.00565093
0.00585109
0.00604266
0.0113199
0.0081982
0.00567866
0.00429625
0.00427868
0.00293881
0.0028693
0.00278157
0.00255487
0.00206252
0.00204709
0.00239565
0.00271933
0.00312392
0.00413975
0.0048169
0.00520455
0.00548784
0.00569111
0.00584671
0.00600446
0.00614401
0.0062717
0.00639147
0.00650301
0.00659987
0.0147114
0.0109437
0.00811773
0.00631346
0.00504676
0.00518274
0.00584539
0.00376683
0.00319117
0.00287943
0.00284457
0.00301301
0.00413884
0.00497596
0.00586188
0.00679151
0.00743308
0.00777504
0.00791175
0.00791549
0.0078465
0.00775259
0.00765995
0.0075755
0.00749463
0.00740677
0.01875
0.0139405
0.0105238
0.00835057
0.00696468
0.0061473
0.00537869
0.00495132
0.00479327
0.0050626
0.00551811
0.00613876
0.00664013
0.00786504
0.00943703
0.0108009
0.0116435
0.0119658
0.0118891
0.0115574
0.011113
0.0106484
0.0101996
0.00977617
0.00938175
0.0090169
0.0192316
0.016458
0.0123675
0.00979263
0.00815577
0.00705982
0.00630545
0.00594162
0.00596063
0.00648245
0.00745914
0.00878089
0.0103996
0.0123185
0.0140584
0.0152012
0.0157027
0.0156771
0.015242
0.0145574
0.0137809
0.013016
0.0123048
0.0116611
0.011093
0.0106007
0.019193
0.0180681
0.0135635
0.0107984
0.00907624
0.00797091
0.00729834
0.007017
0.00721257
0.00797157
0.00945505
0.0116241
0.0139784
0.0160877
0.0176657
0.0184939
0.0185346
0.0183657
0.0174662
0.0163914
0.0153395
0.0144009
0.0136
0.0129359
0.0123941
0.0119701
0.0191818
0.0184269
0.0140323
0.0113569
0.00972095
0.00874371
0.0082632
0.00823037
0.00868287
0.00967848
0.0114732
0.0142542
0.0175814
0.0188688
0.0188958
0.0189216
0.0189495
0.0189816
0.0189144
0.0175532
0.0164092
0.0154936
0.0147885
0.0142673
0.013911
0.0191932
0.017591
0.0137748
0.0114462
0.0100771
0.00936334
0.00915952
0.00941652
0.0101012
0.0112168
0.0130496
0.0159521
0.0190876
0.0191114
0.0191322
0.0191545
0.0191808
0.0192119
0.0188372
0.0178075
0.0170101
0.01643
0.016056
0.015894
0.0159487
0.0192225
0.0160647
0.0129785
0.0111267
0.0101294
0.00975893
0.00989824
0.0104805
0.0114211
0.0126716
0.0144635
0.017163
0.0192188
0.0192389
0.0192567
0.0192761
0.0192984
0.0193237
0.0193512
0.0193795
0.0191637
0.0190187
0.0190669
0.0193555
0.0194875
0.0144032
0.0119385
0.010537
0.00992595
0.0099246
0.0104184
0.0112937
0.0124102
0.0136954
0.0153224
0.017569
0.0192569
0.0192749
0.0192891
0.0193024
0.0193157
0.0193286
0.0193404
0.0193504
0.0193582
0.0193644
0.0193686
0.0193715
0.0193736
0.0109561
0.00986839
0.00956952
0.00990004
0.0107106
0.0118237
0.0130484
0.0143277
0.0157807
0.0176429
0.0192208
0.0192336
0.0192394
0.0192411
0.0192399
0.0192361
0.0192295
0.0192203
0.0192092
0.0191971
0.0191855
0.0191749
0.0191664
0.0102451
0.00934203
0.00921326
0.00976893
0.0108135
0.0121092
0.0134188
0.0146837
0.0160152
0.0176676
0.01915
0.0191553
0.0191511
0.0191409
0.0191267
0.0191094
0.0190894
0.0190673
0.0190439
0.0190209
0.0189994
0.0189803
0.0189645
0.0090606
0.00900956
0.00967275
0.0108399
0.0122393
0.0136095
0.0148699
0.0161252
0.0176503
0.0190928
0.0190925
0.0190814
0.0190636
0.0190414
0.019016
0.0189882
0.0189585
0.0189281
0.0188984
0.0188706
0.0188456
0.0188245
0.0090654
0.0090174
0.00968375
0.010853
0.0122529
0.0136246
0.0148893
0.0161524
0.0176884
0.0190949
0.0190945
0.0190833
0.0190654
0.0190432
0.0190178
0.0189899
0.0189602
0.0189298
0.0189
0.0188721
0.018847
0.0188258
0.00935287
0.00923191
0.00979657
0.0108493
0.0121522
0.0134734
0.0147598
0.0161252
0.0178261
0.0191537
0.0191582
0.0191533
0.0191424
0.0191277
0.0191099
0.0190896
0.0190672
0.0190438
0.0190206
0.0189991
0.01898
0.0189642
0.0189529
0.00988085
0.00959015
0.00993024
0.0107509
0.0118753
0.0131181
0.0144283
0.015928
0.0178671
0.0192244
0.0192358
0.0192403
0.019241
0.0192388
0.0192341
0.0192268
0.0192171
0.0192057
0.0191935
0.0191818
0.0191713
0.0191628
0.0191575
0.0105466
0.00994291
0.00995016
0.0104559
0.0113492
0.0124942
0.0138193
0.0154875
0.0178056
0.0192608
0.0192774
0.0192903
0.0193024
0.0193145
0.0193263
0.0193373
0.0193465
0.0193539
0.0193597
0.0193638
0.0193666
0.0193688
0.0193711
0.0111314
0.0101412
0.00977874
0.00993092
0.0105356
0.011512
0.0128111
0.0146635
0.0174445
0.0192244
0.0192433
0.0192602
0.0192788
0.0193003
0.019325
0.0193521
0.0193802
0.0191842
0.0190206
0.0190538
0.0193343
0.0194883
0.0194977
0.0100814
0.00937441
0.00918164
0.00945698
0.0101713
0.0113296
0.0132124
0.0161732
0.0190942
0.0191172
0.0191374
0.0191593
0.0191853
0.0192163
0.0189068
0.0178561
0.0170484
0.016464
0.0160914
0.0159297
0.0159858
0.0162868
0.016888
0.00972231
0.00875267
0.00828158
0.00825726
0.0087206
0.00973264
0.011531
0.014285
0.0175368
0.0188761
0.0189038
0.0189302
0.0189587
0.0189914
0.018795
0.017459
0.0163344
0.0154359
0.014745
0.014238
0.0138906
0.0137284
0.0137844
0.00907909
0.00798414
0.00732215
0.00702663
0.0072281
0.00797944
0.00940629
0.0114516
0.0136333
0.0155641
0.0170159
0.017892
0.0181347
0.0177745
0.0169911
0.0160295
0.0150694
0.0141999
0.0134481
0.0128169
0.0122981
0.0118865
0.0115943
0.00815838
0.00707848
0.00635324
0.00585326
0.00589482
0.00642142
0.00734033
0.00853062
0.00995794
0.0116395
0.0131814
0.0142287
0.014729
0.0147602
0.0144179
0.0138426
0.0131759
0.0125056
0.0118689
0.0112798
0.010749
0.0102818
0.00986334
0.00478234
0.00504259
0.00545612
0.00599262
0.00640752
0.00747934
0.00882143
0.00996842
0.0106954
0.0109996
0.0109615
0.0106933
0.0103169
0.00991288
0.00951521
0.00913524
0.00877918
0.00844931
0.00814311
0.00388218
0.003727
0.00379997
0.00399847
0.00414489
0.00495822
0.0057494
0.00656409
0.00712057
0.00742364
0.00755201
0.00756572
0.00751635
0.00744431
0.00737231
0.00730709
0.0072456
0.00717961
0.00709691
0.00246322
0.00236114
0.00253582
0.00312808
0.00368654
0.0042868
0.00497639
0.00537529
0.00565041
0.00588078
0.00610329
0.00627649
0.0063974
0.00649034
0.00660978
0.00671865
0.00681163
0.00687605
0.00209815
0.00230196
0.00309796
0.00348188
0.00398522
0.00389941
0.00415226
0.00440184
0.00464747
0.00488826
0.00512263
0.00534913
0.00556666
0.00577436
0.00597172
0.00615854
0.00633506
0.00129535
0.0021307
0.00251027
0.00288928
0.0026135
0.00281482
0.00301461
0.00321234
0.00341174
0.00361423
0.0038193
0.0040254
0.00423066
0.00443324
0.00463131
0.00482356
0.00138306
0.00205442
0.00220536
0.00227722
0.00235465
0.00245027
0.00255942
0.00267939
0.00280766
0.00294309
0.00308492
0.0032326
0.00338551
0.00353654
0.00368639
0.002069
0.00207795
0.00209247
0.00212172
0.00216709
0.00222461
0.00229255
0.00236997
0.00245589
0.00254941
0.00264976
0.00275527
0.00286491
0.0119445
0.0106838
0.00973871
0.00915823
0.00900938
0.00928619
0.00999918
0.0111253
0.0125606
0.0141832
0.0159454
0.0178751
0.0180667
0.0180722
0.00989286
0.0086063
0.00763428
0.00712442
0.00723554
0.00762728
0.00830318
0.00931309
0.0106146
0.0120532
0.0134436
0.0146407
0.015691
0.0160643
0.00812
0.00681796
0.00587337
0.0056149
0.0051502
0.005436
0.00612901
0.00717979
0.00848533
0.00973784
0.0106752
0.0110541
0.0107598
0.0107771
0.010908
0.0111418
0.0113959
0.0116032
0.0117738
0.0118945
0.0119507
0.0119343
0.00824563
0.00660888
0.00529647
0.00457864
0.00408593
0.00513942
0.00371365
0.00393605
0.00471165
0.00607335
0.00782518
0.00785193
0.00790368
0.00636637
0.00647837
0.00661956
0.00670149
0.00673086
0.00667046
0.00655726
0.00641211
0.00625084
0.00608496
0.00708535
0.0053645
0.00413525
0.00337623
0.0035621
0.00242094
0.00255092
0.00292334
0.00361558
0.00331546
0.00323818
0.0032728
0.00337502
0.00353193
0.00295267
0.00305542
0.00311723
0.00314077
0.00314746
0.00313968
0.00312964
0.00312176
0.00311872
0.00634307
0.00445378
0.00320881
0.00303411
0.00194996
0.001706
0.00169614
0.00156285
0.00147624
0.00150783
0.00152593
0.0015871
0.00173003
0.0018804
0.001994
0.00209444
0.0021457
0.00220331
0.00226919
0.00234253
0.00242419
0.00251659
0.00262
0.00273348
0.00606049
0.00431626
0.00355787
0.00201225
0.0014403
0.00144208
0.00035719
0.000947673
0.00186899
0.00210611
0.00219143
0.00222807
0.00238007
0.00254954
0.00273724
0.00293911
0.00315193
0.00337186
0.00359491
0.00381637
0.0063614
0.00441629
0.0036244
0.00185389
0.00145153
0.000778682
0.00153228
0.00171096
0.00191713
0.00250761
0.00280841
0.00312274
0.00344344
0.00376861
0.00409063
0.0044032
0.00469062
0.00486061
0.00757672
0.00489821
0.00338095
0.00282295
0.00156985
0.00113293
0.000446819
0.000927314
0.00167023
0.00202754
0.00274869
0.00312772
0.00352302
0.00391405
0.00424752
0.00447589
0.00471542
0.00495759
0.00519312
0.0054114
0.00560219
0.00978561
0.00674578
0.00476313
0.00388277
0.00259296
0.00232762
0.00300676
0.00237404
0.0018524
0.00180258
0.00180661
0.00141509
0.00173302
0.00233357
0.00293648
0.00354911
0.00351704
0.00364716
0.00384433
0.00407157
0.0043031
0.00452838
0.00474435
0.00494811
0.00513586
0.00530108
0.0131392
0.00954069
0.00691734
0.00554875
0.00538599
0.00468925
0.00426188
0.00396623
0.00328133
0.00304752
0.00297464
0.00291665
0.00322068
0.00391228
0.00575966
0.00651377
0.00623952
0.00575048
0.00541824
0.00522522
0.00523976
0.00527143
0.00531687
0.00536956
0.00542108
0.00546205
0.0174444
0.0128756
0.00971127
0.00784359
0.00664435
0.00605538
0.00542696
0.00453691
0.00417302
0.00443548
0.00509114
0.00616385
0.00731381
0.00901289
0.0106541
0.0117553
0.0116556
0.0112768
0.0104353
0.00970331
0.0090404
0.00841458
0.00783842
0.00739858
0.00701743
0.00668814
0.0192483
0.0158866
0.0119665
0.00954989
0.00806945
0.00698633
0.00620142
0.0054547
0.00546642
0.0061688
0.00746005
0.0096878
0.0117151
0.01442
0.0166672
0.0165984
0.0165146
0.0164058
0.0161275
0.0148277
0.0136055
0.0124971
0.0114981
0.010605
0.00982489
0.00914426
0.0192085
0.017765
0.0133619
0.010653
0.00895376
0.00778579
0.0070523
0.00679086
0.00712869
0.0081136
0.0100701
0.0127786
0.0159255
0.0181336
0.0181211
0.0180981
0.0180633
0.018013
0.0179424
0.0171526
0.0157216
0.0145
0.0134636
0.0125818
0.0118214
0.0111861
0.0192018
0.0180255
0.0137871
0.0111802
0.00955577
0.00853397
0.00807885
0.00807036
0.00852937
0.00951884
0.011603
0.0150885
0.0187348
0.0187422
0.0187412
0.018735
0.0187239
0.0187059
0.0186774
0.0177645
0.0164148
0.0153509
0.0145171
0.0138609
0.0132913
0.019222
0.0169009
0.0133391
0.0111476
0.0098512
0.00917153
0.00898696
0.00930778
0.00999528
0.0111492
0.0131919
0.0167455
0.0190282
0.0190345
0.0190359
0.0190348
0.0190308
0.0190214
0.0183393
0.0172475
0.0163398
0.0156605
0.0152001
0.0149482
0.0148305
0.0192613
0.0151363
0.0123407
0.0106771
0.00981365
0.00955548
0.00980242
0.0105429
0.0115899
0.012766
0.0144663
0.0174977
0.0191371
0.0191371
0.0191332
0.0191277
0.0191204
0.0191094
0.0189548
0.0183896
0.0179836
0.0177506
0.0177464
0.0179843
0.0182991
0.0133479
0.0111584
0.00995586
0.00952159
0.00970659
0.0104003
0.0115021
0.0127606
0.0139758
0.0154359
0.0177139
0.0190698
0.0190554
0.0190352
0.0190116
0.0189844
0.0189525
0.0189149
0.0188712
0.0188223
0.0187684
0.0187106
0.0186519
0.018595
0.0101013
0.00919785
0.00909212
0.00967443
0.0107812
0.0121921
0.013553
0.014765
0.0160007
0.0177067
0.0188178
0.0187748
0.0187245
0.0186695
0.0186106
0.0185483
0.0184832
0.0184167
0.0183503
0.0182855
0.0182245
0.0181696
0.0181236
0.00934689
0.00860215
0.00868054
0.00951256
0.0109224
0.0125981
0.0140793
0.0152827
0.0163732
0.0177828
0.0185054
0.0184337
0.0183563
0.0182766
0.0181952
0.0181132
0.0180314
0.0179517
0.0178757
0.0178045
0.0177395
0.0176832
0.0176378
0.00830149
0.00844872
0.00938691
0.010945
0.0127725
0.0143909
0.0156019
0.0165702
0.0177607
0.0182516
0.0181531
0.0180523
0.0179518
0.017852
0.0177535
0.0176573
0.0175654
0.0174795
0.0173998
0.0173273
0.0172647
0.0172148
0.00830669
0.00845778
0.00940017
0.0109597
0.0127845
0.0144019
0.0156172
0.0165936
0.0177935
0.018258
0.0181599
0.0180593
0.017959
0.0178593
0.0177609
0.0176648
0.0175729
0.0174866
0.0174065
0.0173336
0.0172705
0.01722
0.00861281
0.00870195
0.00954668
0.0109661
0.0126457
0.0141381
0.0153672
0.0164984
0.0179645
0.0185114
0.0184389
0.0183611
0.0182808
0.0181991
0.0181169
0.018035
0.0179553
0.0178795
0.0178085
0.0177437
0.0176876
0.0176423
0.0176099
0.00920859
0.00911349
0.00970729
0.0108242
0.012242
0.01362
0.0148683
0.0161656
0.0179697
0.0188214
0.0187771
0.0187255
0.0186695
0.0186097
0.0185468
0.0184814
0.0184149
0.0183489
0.0182845
0.0182239
0.0181697
0.0181242
0.0180897
0.00996295
0.0095366
0.00972956
0.0104354
0.0115562
0.012854
0.014119
0.0156221
0.0179863
0.0190709
0.0190542
0.0190318
0.019006
0.0189768
0.0189433
0.0189045
0.0188602
0.0188112
0.0187582
0.0187017
0.0186444
0.0185892
0.0185387
0.0106795
0.00982382
0.00957122
0.00983063
0.0105984
0.0116961
0.0129413
0.0147168
0.0178585
0.0191442
0.0191431
0.0191382
0.0191318
0.0191237
0.0191122
0.0190382
0.0184349
0.0179947
0.0177347
0.0177121
0.0179403
0.018266
0.0186505
0.00985074
0.0091757
0.00900152
0.009345
0.0100741
0.0112768
0.0133847
0.0170535
0.0190356
0.0190415
0.0190429
0.0190426
0.0190401
0.0190331
0.0185151
0.0173999
0.0164665
0.0157682
0.0152966
0.0150368
0.0149118
0.0149843
0.0153308
0.00955315
0.00853951
0.0080949
0.0080888
0.00857004
0.0095879
0.0116788
0.0151378
0.0187419
0.01875
0.0187498
0.0187445
0.0187345
0.0187183
0.0186922
0.017865
0.0165035
0.0154355
0.0145978
0.0139447
0.0133683
0.0129534
0.0127241
0.00895539
0.00780415
0.00707186
0.0067296
0.00707678
0.00808182
0.00998788
0.0125411
0.0154489
0.0181205
0.0181097
0.0180873
0.0180523
0.0180013
0.0179299
0.0169835
0.0156253
0.0144467
0.01343
0.012551
0.0117839
0.011135
0.0105887
0.00806714
0.00701553
0.00615573
0.00566267
0.00534435
0.00606827
0.00731469
0.00945232
0.0112342
0.0135645
0.0159833
0.016525
0.0164288
0.0161039
0.0149907
0.0138517
0.0127776
0.0117864
0.0108756
0.0100467
0.00931198
0.00866533
0.0080988
0.00417782
0.00439745
0.00499696
0.00588963
0.00683191
0.00830796
0.00940529
0.0101136
0.0100238
0.00969833
0.00904478
0.00846317
0.00795024
0.00749065
0.0070821
0.00672328
0.00641436
0.00614904
0.00591548
0.00366058
0.00358079
0.00378992
0.00384393
0.00410637
0.00494069
0.00555253
0.00626915
0.00597159
0.00558266
0.00530443
0.00509233
0.00504836
0.00507643
0.00511963
0.00517195
0.00522581
0.00527275
0.00530361
0.0027854
0.00268597
0.00259405
0.00244416
0.00294214
0.0038471
0.00387143
0.00367462
0.00380708
0.00399934
0.00421175
0.004421
0.00462001
0.00480873
0.00498615
0.00514938
0.00529322
0.00540827
0.00174717
0.00183647
0.00187893
0.00157641
0.00224685
0.00256129
0.00284085
0.00321971
0.00360891
0.00398912
0.00434633
0.00459779
0.00481536
0.00503233
0.00524175
0.00543514
0.00560232
0.00573262
0.000702471
0.0014659
0.00172927
0.00209266
0.00259016
0.00288704
0.00319323
0.00350265
0.00381612
0.00412556
0.00442508
0.00471071
0.00496645
0.00511052
0.00522888
0.00144511
0.00191329
0.00199609
0.00229101
0.00244518
0.00261117
0.0027962
0.00299704
0.00320928
0.00342786
0.00364932
0.00387042
0.00408773
0.00429913
0.00185825
0.00206646
0.00212519
0.00219073
0.00226259
0.00233858
0.00242411
0.00252119
0.00262953
0.00274785
0.00287447
0.00300766
0.00314618
0.0132279
0.011659
0.0104198
0.00955916
0.00919545
0.00929533
0.009843
0.0108318
0.0121398
0.0134899
0.0146178
0.015441
0.0160149
0.0166252
0.0174075
0.0110575
0.00945039
0.00817532
0.00737572
0.00732306
0.00760127
0.0081633
0.00906969
0.0103441
0.011684
0.0126214
0.0128252
0.0126043
0.0125601
0.012842
0.00913996
0.00750462
0.00624548
0.00578518
0.00520669
0.00533314
0.00598787
0.00705909
0.00854151
0.0100713
0.0108351
0.0105258
0.00981257
0.00913109
0.0086962
0.00912141
0.00958681
0.0100098
0.0103948
0.0107483
0.0110629
0.011326
0.0115312
0.00749308
0.00583025
0.00479221
0.00411716
0.00476207
0.00360404
0.00385365
0.00472914
0.00633651
0.00710953
0.00691723
0.00692921
0.00706245
0.00661675
0.00529241
0.00577629
0.00623775
0.00669075
0.00681804
0.0069148
0.0069848
0.00703105
0.00705654
0.00618806
0.00452102
0.00349613
0.00349222
0.00225017
0.00241212
0.00279487
0.00320024
0.00282567
0.00269466
0.00269378
0.00275232
0.00289688
0.00313754
0.00339465
0.00318923
0.00334887
0.00347873
0.00358089
0.00366048
0.00372339
0.00377459
0.00381801
0.00531081
0.00377284
0.00331394
0.00186663
0.00140225
0.00132189
0.00142894
0.00069173
0.001544
0.00153865
0.00168024
0.0019427
0.00191068
0.001977
0.00217159
0.00229966
0.00231239
0.00240104
0.00248223
0.00255817
0.00263473
0.00271282
0.00279354
0.0028774
0.00483827
0.00338572
0.00255061
0.00146683
0.00107823
0.00038518
0.00163253
0.0019653
0.00219167
0.00236655
0.0025326
0.00269347
0.00285238
0.00301019
0.00316601
0.00331841
0.0034643
0.00495445
0.00349019
0.0024224
0.00139783
0.00073533
0.00132861
0.00249559
0.00413334
0.00424684
0.00446294
0.00469797
0.00491599
0.00511111
0.00528497
0.00543842
0.00557215
0.00596552
0.00409185
0.00308184
0.00153517
0.000991009
0.000559827
0.00230452
0.00328785
0.00444665
0.00488665
0.005242
0.00552755
0.00576378
0.00596277
0.00613365
0.00628436
0.00642335
0.00655631
0.00812969
0.00508772
0.00367058
0.0027664
0.00214569
0.00198627
0.00161773
0.000976085
0.000858505
0.00180866
0.00121672
0.00163103
0.00162982
0.0016572
0.00271301
0.00334511
0.00380761
0.00428776
0.00473241
0.00511865
0.00544743
0.00572453
0.00596049
0.00616628
0.00635455
0.00653237
0.0112827
0.00800619
0.00566908
0.00479783
0.00437429
0.00511617
0.00585414
0.00376844
0.00268719
0.00325063
0.00351375
0.0032353
0.00312147
0.00350984
0.0037662
0.00397995
0.00422681
0.00449158
0.00476094
0.00502485
0.00527505
0.0054091
0.00554383
0.00567435
0.00579706
0.00590553
0.0156357
0.0114547
0.00865534
0.00728459
0.00657613
0.00623415
0.00553147
0.00468217
0.00308261
0.00331807
0.00425774
0.00687972
0.00704832
0.00681576
0.00669307
0.00660928
0.00651801
0.00642375
0.00610901
0.00545576
0.00495667
0.0046202
0.00450997
0.00454328
0.00459426
0.00465558
0.0192827
0.0148712
0.0112685
0.00910494
0.00792082
0.00684542
0.0060535
0.00549724
0.00416958
0.00441789
0.00602411
0.00942495
0.0131487
0.012761
0.0124667
0.0121896
0.0118749
0.0114988
0.0110774
0.0106235
0.00991549
0.00880856
0.00784056
0.00700528
0.00630784
0.0192432
0.0169646
0.0128353
0.0102761
0.00862999
0.00744774
0.0063648
0.00573453
0.0059191
0.00670546
0.00872273
0.0126754
0.016743
0.0164402
0.0161326
0.0158005
0.0154276
0.0149992
0.0145161
0.0139523
0.0124871
0.011323
0.0103189
0.00944372
0.00873086
0.0192475
0.0169585
0.0131044
0.0106828
0.00910252
0.00817568
0.0073425
0.00735663
0.00796226
0.00875561
0.0106548
0.0150907
0.0181847
0.0180228
0.0178315
0.0176031
0.0173252
0.0169859
0.0165787
0.0154554
0.0141405
0.0131023
0.0122384
0.0115984
0.0109403
0.0192846
0.0153819
0.0123174
0.0104061
0.00926372
0.00871493
0.00862135
0.00932777
0.0102181
0.0106056
0.0123915
0.0169183
0.0187172
0.0186069
0.018457
0.0182593
0.0180019
0.0171427
0.015719
0.0148988
0.0141489
0.0135812
0.0131798
0.0129027
0.0125645
0.0168215
0.0133111
0.0110149
0.00967741
0.0090661
0.00911183
0.00968028
0.0108832
0.012096
0.013009
0.014496
0.0181981
0.0187108
0.0186164
0.0184891
0.0183305
0.0181381
0.0174539
0.0167222
0.0163525
0.0159492
0.0156782
0.0156132
0.0156578
0.0153781
0.0114425
0.00965634
0.00877537
0.00863329
0.00927389
0.0105075
0.0122375
0.0137639
0.0147625
0.0157782
0.0182204
0.0182451
0.0181141
0.0179697
0.0178091
0.0176276
0.0174221
0.0171949
0.0169547
0.0167082
0.0164545
0.0161966
0.0159521
0.0157224
0.00852904
0.00789281
0.00808918
0.00909613
0.0108402
0.0130853
0.0149787
0.0160154
0.0166674
0.017409
0.0172164
0.0170189
0.0168225
0.0166263
0.0164296
0.0162324
0.0160373
0.0158517
0.0156784
0.0155142
0.015361
0.0152273
0.0151172
0.00778266
0.00725929
0.00762593
0.00889959
0.0110831
0.0138045
0.0159609
0.0169404
0.0166898
0.0164269
0.0161676
0.0159247
0.0157068
0.0155049
0.0153142
0.0151331
0.0149628
0.0148103
0.0146762
0.0145537
0.0144439
0.0143534
0.0142854
0.00695269
0.00735952
0.0087284
0.011113
0.014065
0.0163367
0.0163032
0.0159496
0.0155869
0.015245
0.0149455
0.0146946
0.0144725
0.0142699
0.0140826
0.0139114
0.0137628
0.0136353
0.0135201
0.0134182
0.0133369
0.0132794
0.00695859
0.00737086
0.00874549
0.0111285
0.0140647
0.0163233
0.0163174
0.015965
0.0156031
0.0152617
0.0149624
0.0147116
0.0144893
0.0142864
0.0140985
0.0139266
0.0137766
0.0136474
0.0135306
0.0134271
0.0133442
0.0132854
0.00727049
0.00765488
0.00894874
0.0111509
0.0138661
0.0160284
0.0169491
0.0166916
0.0164269
0.0161661
0.0159223
0.0157038
0.0155018
0.015311
0.0151297
0.01496
0.0148085
0.0146754
0.014554
0.0144452
0.014356
0.0142893
0.0142424
0.00790273
0.00811478
0.00913791
0.0108951
0.0131275
0.0150357
0.0161058
0.0168812
0.0174059
0.0172114
0.0170127
0.0168155
0.0166189
0.0164225
0.0162262
0.0160325
0.0158498
0.0156791
0.0155179
0.0153679
0.0152376
0.0151309
0.0150451
0.0087795
0.00864552
0.0092943
0.0105409
0.0122852
0.0138718
0.0147574
0.0158964
0.0183398
0.0182176
0.0180804
0.017931
0.0177667
0.0175839
0.0173802
0.0171577
0.0169252
0.0166888
0.0164469
0.0162028
0.01597
0.0157497
0.0155461
0.00967907
0.0090751
0.00912173
0.00970126
0.0109349
0.0122266
0.0132397
0.0147965
0.018639
0.0187274
0.0186325
0.0185041
0.0183436
0.0181498
0.0175515
0.0167486
0.016354
0.0159195
0.0156271
0.0155498
0.0156049
0.0153576
0.0149911
0.0092569
0.00870723
0.00862231
0.00935318
0.0103097
0.0107912
0.0126589
0.0173504
0.0187384
0.0186393
0.0185037
0.0183226
0.0180855
0.0174691
0.0159402
0.0151136
0.0143425
0.0137728
0.0133721
0.0131025
0.0127736
0.0126617
0.0128304
0.00909474
0.00817711
0.00735225
0.00732302
0.0079673
0.00883959
0.0107872
0.0152003
0.0182061
0.0180553
0.0178755
0.0176596
0.0173963
0.0170735
0.0166831
0.0159066
0.0145094
0.0134203
0.0125253
0.0118691
0.0111814
0.0106951
0.0103398
0.0086277
0.00747989
0.00631719
0.00583984
0.00583485
0.00665865
0.00868738
0.0125441
0.0167259
0.0164221
0.0161122
0.0157777
0.0154033
0.0149761
0.0144955
0.013862
0.0124276
0.01128
0.0102911
0.00942423
0.0086856
0.00806002
0.00754679
0.00788846
0.00688167
0.00551145
0.00472739
0.00642862
0.00649712
0.00773227
0.00893777
0.0131336
0.0126944
0.0123489
0.0120282
0.011677
0.0112828
0.0108552
0.00998074
0.00885701
0.00791803
0.00709622
0.00637845
0.00575968
0.00540424
0.00515308
0.00360424
0.00389681
0.00534873
0.00637966
0.00667529
0.00637892
0.00621747
0.00610922
0.00603274
0.00560014
0.00495968
0.00456213
0.00428474
0.00430556
0.0043494
0.00441121
0.00448538
0.00456606
0.00464129
0.00281213
0.00316735
0.00358455
0.00405213
0.00454884
0.00471128
0.00361988
0.00379959
0.0040184
0.00426139
0.00451562
0.00477017
0.00501857
0.00525537
0.00546799
0.00559353
0.005713
0.00582067
0.00590864
0.00302573
0.00277296
0.00277637
0.0024973
0.00292986
0.00314635
0.00359818
0.00398268
0.00438184
0.00475502
0.00508452
0.00536945
0.00561666
0.00583402
0.00602885
0.00620953
0.00638317
0.00655551
0.000559135
0.00117068
0.00152365
0.00136431
0.00269063
0.00333765
0.00469306
0.00506932
0.0053775
0.00562637
0.00583596
0.00601676
0.00617572
0.00632056
0.00645563
0.00658563
0.00671583
0.00222195
0.00438886
0.00476689
0.00478564
0.00493246
0.00510738
0.0052688
0.00541463
0.00554726
0.00566774
0.00577657
0.00587432
0.00596164
0.00136763
0.0020017
0.00234225
0.00253316
0.00271751
0.0028954
0.00306982
0.00324153
0.00340931
0.00356891
0.00371837
0.00385837
0.0039905
0.00165175
0.00188878
0.00225181
0.00234568
0.00243158
0.00251126
0.00259099
0.00267188
0.00275519
0.00284151
0.00293111
0.00302412
0.00312071
0.0129456
0.0113685
0.0101806
0.0095338
0.00939479
0.00975854
0.0106052
0.0119439
0.0134445
0.0146137
0.0151572
0.0150506
0.0145701
0.0142791
0.0144671
0.0106257
0.00899034
0.00783146
0.00748055
0.00757334
0.00800331
0.00874983
0.0101522
0.011922
0.0132761
0.0137138
0.0130006
0.011789
0.0110364
0.0109855
0.00856656
0.00690115
0.00609406
0.0052997
0.00514317
0.00560865
0.00658949
0.00892656
0.0112458
0.01091
0.0109002
0.0102698
0.00856061
0.00778768
0.00762671
0.00780848
0.008403
0.00894986
0.0094271
0.0098471
0.0102111
0.0105155
0.0107598
0.00681077
0.00528254
0.00437099
0.00476341
0.00344566
0.00355673
0.00446904
0.00580888
0.00554879
0.00545052
0.00543508
0.00550267
0.00574037
0.00560081
0.00526385
0.00507622
0.00606059
0.00658143
0.00703987
0.00734417
0.00750813
0.00765407
0.00778466
0.0054463
0.00411993
0.00389562
0.00231491
0.0021783
0.00238277
0.00304371
0.00296923
0.00281661
0.00275623
0.00276982
0.0028562
0.0030183
0.00322288
0.00336169
0.00399888
0.00393485
0.00413463
0.00430735
0.00445832
0.00459304
0.00471556
0.00482867
0.00442545
0.00308086
0.00244121
0.00150159
0.00109771
0.00151855
0.0018507
0.0020739
0.0014137
0.00139122
0.00123083
0.00167922
0.00193085
0.00213261
0.00199421
0.00252274
0.00255449
0.00270753
0.00284542
0.00297075
0.00308904
0.00320406
0.00331796
0.00343201
0.00445506
0.00335204
0.00169405
0.00119846
0.000193186
0.000985628
0.001672
0.00204858
0.00234067
0.00250902
0.00265854
0.00279731
0.00293056
0.00306063
0.00318915
0.00331703
0.00464914
0.0033002
0.00162966
0.00102579
0.000268405
0.0025124
0.00325917
0.00358411
0.00358852
0.00362841
0.00368659
0.0037568
0.0038358
0.00392196
0.0040148
0.00547841
0.00389666
0.00198409
0.00116422
0.000497365
0.00186249
0.00424586
0.00530163
0.00535758
0.00524328
0.00526221
0.00532056
0.00533785
0.00532901
0.00530391
0.00527801
0.00525595
0.00652277
0.00454989
0.00323964
0.00205924
0.00174054
0.00170877
0.000669437
0.00138075
0.00121184
0.00124627
0.00104147
0.00134915
0.00174139
0.00177785
0.00282754
0.00329913
0.00436203
0.00483657
0.0051554
0.00534828
0.00548314
0.00559316
0.00569513
0.00579765
0.00590409
0.00601799
0.00975343
0.00663258
0.00509753
0.00401315
0.00389427
0.00656784
0.00543042
0.00259319
0.00168775
0.00243313
0.00197569
0.00231088
0.00257907
0.00283442
0.0030641
0.00339311
0.00373346
0.00407959
0.00440857
0.00470778
0.00496928
0.00520175
0.00540368
0.00557428
0.00572763
0.00587773
0.0139521
0.0101322
0.00777488
0.00676774
0.00676281
0.00698792
0.0055285
0.00276558
0.00174031
0.00201099
0.00265566
0.00257269
0.00254828
0.00266424
0.00280696
0.00297536
0.00315445
0.0033343
0.00351175
0.00368725
0.00386208
0.00403839
0.00421781
0.00440562
0.00459959
0.00479804
0.0185714
0.0136097
0.0104216
0.0087323
0.00785617
0.00726965
0.00571505
0.00327504
0.0026399
0.00334858
0.0079305
0.00710871
0.00497394
0.00488201
0.0048516
0.00484872
0.00484984
0.00484727
0.00484134
0.00483581
0.00481281
0.00477659
0.00473594
0.00469777
0.00466818
0.0193055
0.0155921
0.0119435
0.0097123
0.00828204
0.00747174
0.00618895
0.00430671
0.0043382
0.00479662
0.0063511
0.0124155
0.00968256
0.00900912
0.00850582
0.00809285
0.00772696
0.00738798
0.00707226
0.00677963
0.00651137
0.00627217
0.00593961
0.00586893
0.00569606
0.019328
0.0151747
0.0119197
0.00984508
0.0084763
0.00793273
0.00775624
0.00573597
0.00630262
0.00643751
0.00694432
0.011559
0.0142267
0.013369
0.0125935
0.0118579
0.0111405
0.0104416
0.00977366
0.00915496
0.00858917
0.00809073
0.00752704
0.00692883
0.00630168
0.0167974
0.0132246
0.0107816
0.00925838
0.0084895
0.00770556
0.00740392
0.00841462
0.0109441
0.0112022
0.0090671
0.0123271
0.0165693
0.0156123
0.0146433
0.0136765
0.0127148
0.0117469
0.0109156
0.00983081
0.00897164
0.00844412
0.00809803
0.00774557
0.00740612
0.0137594
0.0110471
0.00925727
0.00830898
0.00821709
0.00798394
0.00885745
0.0112139
0.0141505
0.0131404
0.0128217
0.0167423
0.0170777
0.0163728
0.0155789
0.0143103
0.0129944
0.0123513
0.0120094
0.0117286
0.0113393
0.0106811
0.0100722
0.00955041
0.0091127
0.00922059
0.00781888
0.00739553
0.00776826
0.00805213
0.0099218
0.0132934
0.0168541
0.0160115
0.0151879
0.0162049
0.0158569
0.0154786
0.0150561
0.0145745
0.0140226
0.0134138
0.0127871
0.0121977
0.0116653
0.0111764
0.0107288
0.0103603
0.0066938
0.00648624
0.00720785
0.00875337
0.0117879
0.015607