/*--------------------------------*- C++ -*----------------------------------*\
  =========                 |
  \\      /  F ield         | OpenFOAM: The Open Source CFD Toolbox
   \\    /   O peration     | Website:  https://openfoam.org
    \\  /    A nd           | Version:  13
     \\/     M anipulation  |
\*---------------------------------------------------------------------------*/
FoamFile
{
    format      ascii;
    class       volScalarField;
    location    "500";
    object      omega;
}
// * * * * * * * * * * * * * * * * * * * * * * * * * * * * * * * * * * * * * //

dimensions      [0 0 -1 0 0 0 0];

internalField   nonuniform List<scalar> 
169916
(
18.8085
18.9972
19.2712
19.6378
20.0801
20.5503
20.9927
21.3627
21.6369
21.8117
21.8974
21.9132
21.8773
21.8117
19.069
19.417
19.943
20.682
21.5949
22.5488
23.4605
24.249
24.8447
25.2241
25.4123
25.4608
25.427
25.3805
19.4077
20.0116
20.9839
22.4211
24.2357
26.1341
28.115
30.0038
31.4747
32.3847
32.8035
32.9739
33.0554
33.1558
33.4475
33.9899
34.8089
35.9245
37.3399
39.0358
40.9765
43.1177
19.2618
19.8226
20.824
22.5433
25.164
28.6501
29.6302
33.6499
38.8377
43.4186
46.4637
48.0473
63.3615
63.2284
64.755
67.3329
70.7861
74.9398
79.5165
84.2439
88.8499
93.0817
96.8076
19.4619
20.2709
21.8514
24.7044
29.2904
31.3823
40.8476
57.6201
77.102
93.4154
102.449
105.789
107.21
109.208
164.217
170.686
176.266
179.684
180.92
180.129
177.64
173.853
169.152
19.5771
20.6324
22.9152
27.4755
30.0873
43.009
67.0704
131.476
162.793
229.575
265.558
320.844
318.342
326.164
382.887
345.648
311.742
282.272
257.171
235.361
216.539
200.309
186.284
174.117
19.5315
20.6919
23.3503
25.577
36.6822
68.8723
105.507
272.355
462.261
676.552
734.202
824.299
663.45
512.22
431.17
345.981
297.972
262.073
234.035
211.522
193.144
177.922
165.183
154.457
144.992
19.3057
20.3351
22.9727
25.3217
40.5672
94.0967
186.099
782.596
1041.7
962.008
757.648
634.02
429.815
332.051
254.826
224.334
200.101
180.78
165.567
153.397
143.464
135.217
128.27
122.345
18.9744
19.6702
21.5729
22.5262
31.448
59.8244
93.9582
241.759
332.138
347.299
339.48
266.831
218.643
176.674
152.968
161.087
149.558
140.149
132.432
125.987
120.517
115.827
111.78
108.274
105.234
102.613
18.6573
19.0052
19.9315
21.7679
22.7088
27.569
36.6865
49.0455
59.0217
70.5127
80.245
83.4877
84.1507
82.6777
84.624
84.1235
83.163
82.1554
81.2138
80.3596
79.5872
78.9087
78.3327
77.8658
77.5157
77.2964
18.425
18.5631
18.9264
19.641
20.8873
22.2734
23.0043
25.7922
29.2263
33.1141
36.9428
39.995
40.5909
41.2373
41.8139
41.9799
42.0153
42.0835
42.259
42.5743
43.0363
43.6355
44.3576
45.1911
46.1317
47.1858
18.2768
18.3172
18.4758
18.8059
19.3676
20.1594
21.1834
22.4075
23.707
24.8611
25.765
26.4151
26.8963
27.1259
27.1742
27.1384
27.0841
27.0518
27.0661
27.1446
27.2996
27.5406
27.8766
28.3175
28.8732
29.5536
18.1883
18.1866
18.2667
18.4615
18.7981
19.2934
19.9475
20.6985
21.4305
22.0067
22.3898
22.604
22.6912
22.6906
22.6425
22.5751
22.507
22.4508
22.417
22.4132
22.4461
22.5218
22.6458
22.8241
23.0628
23.368
18.1416
18.1228
18.1703
18.3053
18.5417
18.8819
19.311
19.7841
20.2204
20.5434
20.7319
20.8076
20.8139
20.782
20.7304
20.6711
20.6128
20.5635
20.5295
20.5162
20.5272
20.5652
20.6325
20.7309
20.8618
21.0216
18.1267
18.1057
18.1436
18.2546
18.4425
18.6986
18.9978
19.3
19.559
19.7413
19.8384
19.8628
19.8417
19.7983
19.7456
19.6921
19.644
19.6062
19.5822
19.5738
19.5822
19.6078
19.6506
19.7098
19.7827
18.1381
18.126
18.1704
18.2794
18.4476
18.6566
18.8784
19.0821
19.245
19.3562
19.4125
19.4186
19.3915
19.349
19.3031
19.2607
19.2257
19.2007
19.1865
19.183
19.1901
19.207
19.2327
19.2646
19.3014
18.171
18.1778
18.2424
18.3662
18.535
18.7227
18.9006
19.0476
19.1555
19.2252
19.258
19.2564
19.2304
19.1932
19.1547
19.1202
19.0918
19.07
19.0542
19.0434
19.0365
19.0328
19.0312
19.0307
19.0311
18.2535
18.3502
18.5031
18.6876
18.8709
19.027
19.1446
19.2257
19.2764
19.3001
19.2991
19.2791
19.2486
19.2157
19.1842
19.1554
19.1288
19.1033
19.0778
19.0518
19.0255
18.9994
18.9732
18.9469
18.4761
18.6679
18.8787
19.069
19.217
19.3214
19.3912
19.435
19.4576
19.461
19.4478
19.4224
19.3906
19.3562
19.3207
19.2841
19.2461
19.2063
19.1651
19.1239
19.0833
19.0434
19.0043
18.5881
18.8172
19.0572
19.2605
19.4092
19.5095
19.5756
19.6182
19.6426
19.6508
19.6426
19.6191
19.5848
19.5445
19.5011
19.4558
19.4088
19.3602
19.3109
19.2621
19.2151
19.1696
19.126
18.9082
19.1667
19.3794
19.5304
19.6302
19.6956
19.7387
19.7658
19.7783
19.7748
19.7541
19.7203
19.679
19.6338
19.5865
19.5373
19.4867
19.4355
19.3853
19.3372
19.2914
19.2478
18.9074
19.1652
19.3772
19.5276
19.6269
19.6919
19.7346
19.7611
19.7733
19.7692
19.7482
19.714
19.6724
19.6269
19.5792
19.5299
19.479
19.4277
19.3776
19.3295
19.2838
19.2402
18.8159
19.0545
19.2561
19.4032
19.5022
19.5671
19.6084
19.6315
19.6383
19.6287
19.6039
19.5685
19.5273
19.483
19.437
19.3893
19.3402
19.2904
19.2414
19.1941
19.1486
19.105
19.0636
18.6668
18.8764
19.065
19.2113
19.3141
19.3823
19.4244
19.4452
19.4467
19.4316
19.4044
19.371
19.3351
19.2982
19.2604
19.2213
19.1807
19.1388
19.097
19.0561
19.016
18.9767
18.9389
18.5026
18.6862
18.8682
19.0226
19.1383
19.2172
19.2655
19.287
19.284
19.2622
19.2302
19.1959
19.1631
19.1331
19.1053
19.0789
19.0527
19.0261
18.9994
18.9729
18.9463
18.9196
18.8933
18.3662
18.5344
18.721
18.8972
19.0415
19.1462
19.2125
19.2419
19.2377
19.2098
19.1711
19.1315
19.096
19.0667
19.0441
19.0277
19.0165
19.0092
19.0052
19.0035
19.0028
19.0027
19.0026
18.4476
18.6558
18.876
19.0769
19.236
19.3431
19.3956
19.3991
19.3702
19.3265
19.2796
19.2363
19.2005
19.1746
19.1596
19.1552
19.1612
19.1769
19.201
19.2314
19.2662
19.3049
19.3451
18.4424
18.6976
18.9948
19.2942
19.5499
19.7289
19.8239
19.8476
19.8269
19.784
19.7319
19.6789
19.6314
19.5939
19.5701
19.5617
19.57
19.5954
19.6376
19.696
19.768
19.8523
19.9524
18.541
18.8794
19.3046
19.7768
20.2121
20.535
20.7272
20.8091
20.8219
20.7958
20.7492
20.6942
20.6398
20.5938
20.563
20.5527
20.5665
20.6072
20.6771
20.7782
20.9121
21.0764
21.2642
18.7966
19.2885
19.9329
20.7074
21.4569
22.0459
22.444
22.6766
22.7822
22.7969
22.7606
22.703
22.6438
22.597
22.5732
22.5811
22.6278
22.7196
22.8628
23.0641
23.3309
23.6707
24.0902
23.7008
24.8607
25.7872
26.4854
27.0277
27.3169
27.418
27.4293
27.4203
27.4355
27.5034
27.6444
27.8733
28.201
28.6377
29.194
29.8808
30.7096
31.6941
26.1831
28.4825
30.51
32.006
40.1935
40.8111
41.4468
41.7235
41.8923
42.1013
42.418
42.8715
43.4669
44.1934
45.0354
45.9806
47.0237
48.1699
49.4375
45.8212
51.7022
55.538
56.4969
55.7396
81.3452
80.4795
79.39
78.3915
77.5115
76.7239
76.0336
75.4536
74.9885
74.6248
74.3679
74.2285
74.2272
106.257
157.799
136.961
123.024
113.694
158.459
146.394
136.643
128.701
122.104
116.525
111.751
107.637
104.072
100.979
98.3066
96.0278
352.168
384.759
294.541
232.122
259.356
227.269
202.086
181.861
165.78
152.917
142.441
133.766
126.48
120.287
114.972
110.384
843.29
578.408
460.025
351.426
301.661
264.709
235.939
212.933
194.12
178.507
165.41
154.339
144.925
136.573
129.177
385.765
347.695
312.987
282.972
257.461
235.49
216.542
200.207
186.088
173.831
163.136
153.709
145.327
18.8327
19.0404
19.3452
19.7499
20.2201
20.7064
21.157
21.5314
21.8086
21.9853
22.0702
22.0815
22.0504
22.0053
19.1282
19.5333
20.1622
21.0276
22.0217
23.0919
24.1393
25.0373
25.6958
26.088
26.2438
26.2505
26.2279
26.175
19.5429
20.3071
21.5833
23.4074
25.5202
28.1776
31.0347
33.5303
35.2616
36.1168
36.2772
36.2785
36.2326
36.1435
36.0578
36.002
35.9933
36.0479
36.3442
36.8362
37.4966
38.3057
19.384
20.1119
21.5205
24.0254
27.9723
29.1898
35.2662
44.1861
53.1002
59.3437
62.2288
62.3791
61.6974
76.9626
75.3651
74.0932
73.1998
72.9001
73.5624
74.7498
76.2591
77.9445
79.7037
19.6736
20.8351
23.2727
28.1225
30.6264
45.6321
78.3135
124.731
156.074
168.1
166.702
159.728
151.36
142.583
173.438
167.107
163.222
161.6
160.636
159.444
157.951
156.041
153.708
19.8926
21.5585
25.342
27.956
45.3916
100.91
193.409
455.08
523.138
508.228
497.001
428.295
364.188
360.583
328.206
343.749
315.975
291.128
268.931
249.036
231.306
215.705
202.031
190.04
19.9267
21.7368
23.2226
32.9514
71.7934
172.537
1013.86
961.905
667.526
509.262
430.586
358.924
316.693
284.298
258.821
238.164
221.088
206.744
194.534
184.021
19.6916
21.4018
22.8957
34.4987
64.1501
363.761
660.061
505.422
412.609
342.903
306.041
277.651
254.728
235.627
219.609
206.085
194.607
184.835
19.2384
20.5404
23.9148
27.1555
54.6666
160.628
1014.68
895.929
573.224
412.671
319.999
281.964
253.907
232.233
214.907
200.763
189.045
179.209
170.868
163.748
157.658
18.8014
19.4048
20.9197
22.1496
28.5909
45.8961
87.3272
230.539
306.347
312.415
301.933
283.648
220.681
204.229
192.539
177.663
171.607
165.917
160.598
155.61
150.967
146.703
142.831
139.354
136.274
133.6
18.4935
18.7183
19.2917
20.3548
21.0716
23.6144
27.886
33.7698
40.666
47.4569
54.4196
61.1976
66.6648
69.9074
75.2574
76.2312
76.947
77.8919
79.175
80.7508
82.4231
84.1154
85.7754
87.3807
88.9458
90.5159
18.3085
18.3765
18.5888
19.01
19.6703
20.5415
21.7126
23.4203
25.6914
27.8929
29.6846
31.6491
33.0006
33.7572
34.2444
34.5943
34.9607
35.4485
36.136
37.0609
38.2494
39.7162
41.4725
43.5084
45.8104
48.361
18.2059
18.2127
18.3081
18.5268
18.8912
19.429
20.1556
21.1146
22.1281
22.9265
23.4345
23.8021
24.0367
24.1551
24.2114
24.2523
24.3189
24.4433
24.651
24.96
25.3904
25.9583
26.6827
27.5838
28.6803
29.985
18.1569
18.1421
18.1963
18.3417
18.5951
18.9694
19.459
20.0167
20.5367
20.9251
21.1393
21.2332
21.2633
21.2581
21.2386
21.2226
21.227
21.2668
21.3559
21.505
21.7217
22.017
22.4001
22.8793
23.461
24.1288
18.1472
18.1314
18.1773
18.2999
18.5052
18.7898
19.1243
19.4665
19.7664
19.9874
20.1031
20.1335
20.1173
20.0815
20.0427
20.0128
20.002
20.019
20.0719
20.1655
20.3043
20.493
20.7344
21.0285
21.3702
18.1688
18.167
18.2262
18.3546
18.5466
18.783
19.0346
19.2638
19.4507
19.5828
19.6527
19.6652
19.6441
19.612
19.5844
19.5707
19.5777
19.6102
19.671
19.763
19.8885
20.049
20.2433
20.465
20.71
18.2159
18.2413
18.3325
18.4897
18.6951
18.9174
19.1238
19.2899
19.4134
19.5025
19.5573
19.5748
19.5655
19.5482
19.5368
19.5383
19.5559
19.5904
19.6417
19.7087
19.7916
19.89
20.0021
20.124
20.2519
18.3464
18.4869
18.6943
18.935
19.1665
19.3588
19.5026
19.6077
19.6871
19.7449
19.7797
19.7946
19.8012
19.81
19.8259
19.8502
19.882
19.9188
19.9577
19.9977
20.0401
20.084
20.1265
20.1667
18.667
18.9422
19.2382
19.5
19.7039
19.8554
19.9727
20.0695
20.1518
20.2182
20.2659
20.299
20.3248
20.3485
20.3716
20.3936
20.4129
20.4269
20.4363
20.4437
20.4488
20.4492
20.444
18.8313
19.1757
19.534
19.8381
20.0677
20.2388
20.3773
20.4987
20.609
20.7068
20.7844
20.8367
20.869
20.8902
20.9056
20.9164
20.9221
20.9206
20.9133
20.9031
20.8904
20.8729
20.8493
19.3168
19.7175
20.0544
20.3077
20.4989
20.6575
20.8014
20.9399
21.0715
21.183
21.2625
21.3128
21.3458
21.3698
21.387
21.3971
21.3983
21.3918
21.3816
21.3682
21.3488
21.3215
19.3156
19.7149
20.0502
20.3021
20.4922
20.6499
20.7929
20.9303
21.0607
21.1711
21.2497
21.2991
21.3314
21.3546
21.3712
21.3808
21.3816
21.3753
21.3654
21.3524
21.3334
21.3067
19.1739
19.5299
19.8311
20.058
20.2272
20.364
20.4836
20.5918
20.6873
20.7625
20.813
20.8435
20.8629
20.8767
20.8861
20.8905
20.8881
20.8799
20.8689
20.8557
20.8378
20.8141
20.7852
18.9412
19.2354
19.4949
19.6966
19.8463
19.9619
20.0568
20.1368
20.2003
20.245
20.2753
20.2985
20.3196
20.3401
20.3598
20.377
20.3893
20.3971
20.4032
20.4073
20.4071
20.4015
20.3913
18.6942
18.934
19.1641
19.3548
19.4967
19.5993
19.6761
19.732
19.765
19.7783
19.7837
19.7914
19.8061
19.8289
19.8593
19.8948
19.9323
19.971
20.0117
20.0539
20.0947
20.1332
20.1689
18.4903
18.6951
18.9165
19.1211
19.2844
19.4039
19.4881
19.5382
19.5521
19.5401
19.5209
19.5081
19.508
19.524
19.5573
19.6077
19.674
19.7565
19.8552
19.9677
20.0901
20.218
20.3464
18.5476
18.7837
19.034
19.2605
19.4428
19.5694
19.6345
19.6433
19.619
19.584
19.5534
19.5362
19.5389
19.5665
19.6218
19.7072
19.825
19.9767
20.1611
20.3727
20.6074
20.8575
21.1073
18.506
18.7898
19.1224
19.463
19.7598
19.9766
20.0895
20.1188
20.1021
20.0657
20.0256
19.9938
19.9801
19.9933
20.0412
20.129
20.2607
20.4407
20.6718
20.9539
21.2827
21.6643
22.0961
18.5947
18.9664
19.4538
20.0228
20.5519
20.9437
21.1624
21.2619
21.297
21.2957
21.2793
21.2665
21.2736
21.3157
21.4061
21.5556
21.7727
22.0681
22.4512
22.9308
23.5143
24.1888
24.9702
18.8901
19.4227
20.1673
21.1146
22.1697
22.9773
23.4955
23.8761
24.1332
24.2782
24.3646
24.4411
24.5472
24.7152
24.9678
25.328
25.8158
26.4524
27.2591
28.259
29.475
30.9254
32.5868
25.6401
27.8616
29.7383
31.9861
33.6459
34.6673
35.3807
35.9393
36.5243
37.2443
38.1892
39.4077
40.9237
42.7391
44.8447
47.2301
49.8783
52.7724
55.9058
29.7518
33.7375
37.5066
41.0064
43.9632
45.8193
73.946
75.6386
77.0292
78.5295
80.25
82.1932
84.1985
86.1555
88.0189
89.7743
91.4436
93.0762
94.7461
85.4536
95.7192
103.002
107.826
109.854
109.454
166.296
161.324
156.7
152.373
148.296
144.48
140.956
137.742
134.841
132.256
129.998
128.095
553.332
567.832
462.046
351.233
348.436
297.444
317.678
277.767
248.774
226.752
209.433
195.497
184.086
174.599
166.613
159.836
154.063
149.165
1190.38
668.36
499.154
393.298
345.874
306.42
276.283
252.323
232.61
216.276
202.637
191.17
181.482
173.277
166.331
671.252
544.376
446.49
363.238
319.592
285.787
259.435
238.31
220.986
206.485
194.196
183.671
174.576
166.664
451.832
340.081
313.605
289.573
267.696
247.714
229.963
214.385
200.757
188.819
178.324
169.058
160.842
18.7241
18.8724
19.1113
19.457
19.8893
20.3696
20.8467
21.2719
21.6148
21.8654
22.0243
22.0989
22.1052
22.1035
22.0807
18.933
19.2317
19.734
20.4867
21.4205
22.5215
23.6812
24.7498
25.607
26.2021
26.5271
26.6223
26.6786
26.6835
26.6478
19.2222
19.7923
20.8204
22.4113
24.4672
27.4197
30.7439
33.7908
36.1127
37.5316
38.0469
38.131
38.0883
37.9312
37.7983
37.6198
37.4344
37.2654
37.119
37.0051
36.9304
36.8982
36.911
19.6104
20.6612
22.6585
26.1141
27.5722
35.0018
45.8438
56.2658
64.1204
68.6283
69.9087
69.1484
67.4879
65.6561
78.1752
75.8339
73.7857
72.0571
70.6601
69.5693
68.7448
68.1463
67.7396
20.0772
21.8793
25.5587
27.9238
44.3742
87.864
132.738
177.041
198.589
201.731
194.122
183.481
169.7
155.5
143.869
159.858
152.119
145.853
140.728
136.461
132.831
129.661
126.822
20.5151
23.1408
25.0983
39.2056
101.324
269.634
515.918
1315.16
663.268
750.682
713.03
555.607
441.451
343.441
327.87
290.125
289.517
265.076
245.111
228.239
213.859
201.373
190.417
180.724
20.731
23.9277
27.4155
53.3763
152.45
893.948
642.547
477.567
373.435
326.113
291.547
264.864
243.607
226.229
211.721
199.412
188.773
20.4738
23.4358
27.3732
57.5614
319.874
656.688
466.138
323.802
269.145
235.441
211.56
194.074
180.503
169.536
160.341
152.377
19.7617
21.7941
24.0604
45.8083
129.61
782.808
560.859
419.241
303.399
268.744
243.181
223.529
207.939
195.15
184.378
175.12
167.066
159.962
19.0607
20.253
23.0029
26.217
47.1173
141.781
355.471
662.879
809.234
469.348
664.801
474.577
424.737
408.191
360.024
294.434
270.471
250.295
232.797
217.506
204.258
192.792
182.877
174.291
166.896
160.49
18.6147
18.9958
19.9625
21.6944
23.4038
29.1039
38.3845
50.0704
68.2256
92.2205
115.992
143.468
166.954
180.411
185.232
178.599
172.999
168.368
164.43
160.932
157.648
154.491
151.43
148.485
145.726
143.23
18.3655
18.4833
18.7917
19.3668
20.1566
21.1634
22.5841
23.9062
29.4967
38.6352
47.1396
62.6584
66.6518
68.1689
68.8752
69.3275
70.1065
71.5995
73.8032
76.6108
79.913
83.5745
87.3817
91.1421
94.7859
98.2691
18.2399
18.2641
18.3895
18.6552
19.0669
19.6715
20.5003
21.0917
23.1546
25.757
27.745
30.702
32.0474
32.8488
33.4174
34.019
34.784
35.7988
37.1707
38.919
41.0372
43.5048
46.3224
49.4938
53.0077
18.1897
18.1855
18.2569
18.4286
18.7221
19.1583
19.7942
20.6479
21.5698
22.4137
22.9342
23.2072
23.6599
24.0457
24.4258
24.8672
25.425
26.137
27.0423
28.1732
29.5385
31.1426
32.9816
35.0532
37.329
18.1923
18.1914
18.2599
18.4149
18.6674
19.007
19.4464
19.9142
20.3339
20.6972
20.9335
21.0363
21.1734
21.3304
21.5191
21.771
22.1195
22.5942
23.2192
24.0074
24.9734
26.1139
27.4155
28.844
30.3734
18.2371
18.2627
18.3622
18.5447
18.8028
19.1105
19.4375
19.7191
19.9521
20.1551
20.2898
20.346
20.4175
20.5204
20.6818
20.9275
21.2811
21.7568
22.3652
23.1114
23.9757
24.9631
26.0507
27.1945
28.3795
18.3175
18.3922
18.5559
18.8073
19.1158
19.4302
19.7064
19.915
20.0863
20.2431
20.3798
20.4752
20.5437
20.6417
20.7961
21.0118
21.2937
21.6453
22.0696
22.5663
23.1392
23.7908
24.5053
25.2491
25.9965
18.5715
18.836
19.2017
19.609
19.9782
20.2715
20.4903
20.6818
20.8682
21.0525
21.2182
21.3628
21.5116
21.6847
21.8917
22.1381
22.4245
22.7434
23.0793
23.4282
23.795
24.1748
24.5383
24.8879
19.1737
19.7097
20.285
20.7984
21.2162
21.5575
21.8587
22.148
22.4399
22.7194
22.9694
23.1961
23.414
23.6327
23.8535
24.0753
24.2902
24.4832
24.6575
24.8247
24.9804
25.1075
25.2048
19.4889
20.2115
20.9902
21.6798
22.2417
22.7059
23.1281
23.5374
23.9512
24.3572
24.7173
25.0029
25.2268
25.4205
25.5964
25.7572
25.8975
26.0032
26.081
26.1485
26.2015
26.2253
26.2188
20.5215
21.4523
22.2901
22.9839
23.5658
24.1135
24.6731
25.2707
25.8792
26.4185
26.8306
27.1283
27.3673
27.5747
27.7577
27.9102
28.0166
28.0899
28.1496
28.1895
28.1905
28.1508
20.5183
21.4448
22.2771
22.9661
23.5448
24.0897
24.6461
25.24
25.8448
26.381
26.7907
27.0866
27.3239
27.53
27.7123
27.8646
27.973
28.0487
28.1108
28.1533
28.157
28.12
20.2078
20.9809
21.6643
22.2217
22.6841
23.1057
23.5139
23.9259
24.3294
24.6874
24.9707
25.1916
25.382
25.5548
25.7129
25.8501
25.9522
26.027
26.0915
26.1422
26.1636
26.1553
26.127
19.7084
20.2802
20.7896
21.2042
21.5444
21.8452
22.1337
22.4233
22.6983
22.9435
23.1655
23.378
23.5906
23.8049
24.02
24.2285
24.4141
24.5818
24.7423
24.8918
25.013
25.1049
25.1772
19.2025
19.6087
19.9764
20.268
20.486
20.6762
20.8677
21.0589
21.2293
21.377
21.5281
21.7018
21.9072
22.149
22.4281
22.7366
23.0586
23.391
23.739
24.0969
24.4411
24.7752
25.094
18.8088
19.1163
19.4295
19.7037
19.9086
20.0735
20.2216
20.3496
20.4386
20.5025
20.5977
20.7503
20.9641
21.2433
21.5937
22.0187
22.5174
23.0963
23.7593
24.4869
25.2428
25.9982
26.7256
18.8053
19.1138
19.4406
19.7201
19.9472
20.1406
20.2658
20.3144
20.3727
20.4585
20.5989
20.8196
21.1405
21.5809
22.1539
22.8621
23.6846
24.6291
25.6755
26.7834
27.9387
29.0942
30.1464
18.6697
19.0091
19.4476
19.9204
20.3403
20.694
20.919
21.0143
21.1387
21.278
21.4452
21.672
21.9896
22.4287
23.0139
23.7601
24.6798
25.7691
27.0182
28.3928
29.8659
31.462
33.1128
18.7227
19.1546
19.8053
20.6678
21.6088
22.4484
22.973
23.2488
23.7046
24.091
24.4691
24.906
25.4571
26.1634
27.0636
28.1855
29.5363
31.1247
32.9496
35.0111
37.2914
39.6881
42.323
19.0693
19.6688
20.6523
22.1775
22.5132
23.563
24.4944
30.5877
32.0569
33.0181
33.76
34.5354
35.4581
36.6414
38.182
40.1054
42.4057
45.0812
48.1294
51.5555
55.3584
59.4433
63.5525
26.1111
30.6303
34.6152
65.3551
70.9222
73.6216
75.0288
75.9188
77.1556
79.0016
81.5144
84.6234
88.1847
91.806
95.3926
98.8838
102.214
105.372
108.397
41.3412
56.9415
73.7768
93.1871
108.953
117.096
182.844
177.57
173.005
169.119
165.7
162.506
159.398
156.292
153.19
150.16
147.287
144.655
142.333
151.816
201.276
204.486
236.625
244.584
241.872
288.076
265.245
245.997
229.291
214.682
201.95
190.907
181.325
172.987
165.729
159.398
153.857
1843.64
1006.79
597.473
540.998
495.977
393.364
308.112
272.007
245.478
225.04
208.876
195.701
184.678
175.302
167.175
160.029
153.684
607.559
438.258
323.852
271.411
238.625
215.047
197.422
183.544
172.226
162.71
154.496
147.244
140.722
654.571
488.609
373.57
325.54
290.12
262.582
240.639
222.765
207.916
195.288
184.385
174.912
166.643
522.671
411.926
291.498
267.089
247.223
230.429
216.11
203.667
192.733
183.042
174.397
166.656
159.722
18.7438
18.9135
19.1836
19.5514
19.996
20.4697
20.9174
21.3038
21.6101
21.8326
21.972
22.0382
22.0686
22.0944
22.1014
18.9888
19.351
19.9398
20.7371
21.7763
22.9572
24.1105
25.1939
26.0307
26.5745
26.8219
26.8836
26.9474
26.9787
26.9723
19.3534
20.0895
21.2906
23.0163
25.8634
29.3278
32.6345
36.8529
39.3842
40.5693
40.5096
40.5895
40.526
40.3005
39.9572
39.5616
39.1575
38.7703
38.4168
38.1
37.8185
37.5715
37.3578
19.8835
21.2882
23.6817
24.9125
31.6891
43.1153
54.5909
86.6557
89.5108
89.2553
87.4439
85.493
80.9978
75.6477
70.7678
73.4252
71.0351
68.8889
66.9971
65.3446
63.903
62.6444
61.5454
20.5775
23.0473
24.5738
35.0186
72.1149
122.902
173.711
194.755
201.015
197.925
188.88
176.903
162.706
147.425
133.599
123.457
134.304
127.709
121.926
116.86
112.415
108.492
105.005
21.3039
25.3367
29.6352
59.5894
179.425
487.993
550.873
514.38
433.351
416.43
446.337
549.093
547.689
396.19
340.625
281.057
271.596
241.765
219.199
201.287
186.647
174.417
164.02
155.062
21.3629
23.0742
36.7425
71.2582
715.368
940.858
502.269
385.04
310.411
275.817
249.219
228.027
210.737
196.328
184.125
173.651
21.0342
22.7969
37.5839
88.189
1003.76
452.917
375.517
289.323
260.053
238.604
221.613
207.608
195.723
185.408
176.31
20.1998
21.3947
31.0702
87.5933
739.697
340.882
279.269
259.653
233.142
212.762
200.94
192.308
184.08
176.48
169.539
163.203
157.334
19.4638
21.0579
22.9513
36.269
88.7402
353.369
1009.62
441.878
490.593
612.98
666.845
733.928
553.56
524.074
385.903
324.616
274.395
253.779
236.024
220.116
206.352
194.445
184.066
174.947
166.955
159.968
18.7688
19.3917
20.7135
22.2372
28.2088
39.63
53.7852
70.5151
112.234
249.295
409.429
444.556
424.871
386.388
345.443
281.869
262.747
246.533
232.438
219.908
208.504
198.283
189.016
180.537
172.936
166.21
18.4381
18.6232
19.0612
19.7567
20.6319
21.7278
22.8974
28.4959
51.9921
129.891
211.327
225.063
249.073
232.755
216.842
203.432
192.61
184.08
177.485
172.356
168.216
164.754
161.766
159.12
156.569
154.034
18.2882
18.3398
18.5095
18.8251
19.2741
19.853
20.4023
23.1549
30.2378
46.1088
57.0846
63.3622
91.682
92.3715
92.1821
92.132
92.6794
93.9459
95.8797
98.3679
100.934
103.47
105.977
108.462
110.901
18.2422
18.2597
18.365
18.5812
18.9238
19.377
19.7421
21.2791
23.9127
27.5983
31.0932
32.8029
43.0745
46.2973
49.0494
51.5528
54.148
56.9594
60.0093
63.2873
66.7627
70.352
73.9996
77.5926
80.9905
18.2688
18.3
18.4172
18.6399
18.9738
19.3679
19.5682
20.4291
21.4521
22.6687
24.1556
25.0801
28.5384
30.3564
32.2149
34.212
36.4989
39.1329
42.1248
45.4009
48.9638
52.6812
56.4439
60.0285
63.4948
18.3561
18.4404
18.6286
18.9315
19.3169
19.7828
20.3233
20.805
21.2052
21.2844
21.6838
22.0616
24.169
25.743
27.5376
29.655
32.1604
35.04
38.2803
41.5628
44.8697
48.2383
51.5931
54.8469
58.0561
18.5001
18.682
19.0132
19.4871
20.0155
20.5506
21.0022
21.3139
21.7559
22.2136
22.7131
23.1316
23.5308
24.6212
26.0142
27.4511
29.0293
30.824
32.894
35.243
37.8944
40.7961
43.8329
46.7459
49.4479
19.0243
19.5926
20.3441
21.1541
21.887
22.4447
22.8599
23.4651
24.0541
24.6618
25.2516
25.8083
26.4427
27.2393
28.2541
29.5289
31.0617
32.7836
34.5472
36.2913
38.0429
39.7744
41.2917
20.3457
21.5903
22.9875
24.3259
25.491
26.463
27.2922
28.0641
28.8967
29.7545
30.5523
31.3279
32.1247
32.962
33.8311
34.7423
35.6526
36.4297
37.1375
37.8553
38.5307
39.0599
21.0814
22.9115
25.0701
27.088
28.7912
30.2047
31.4258
32.527
33.6703
34.8527
35.9097
36.7001
37.2953
37.8102
38.2722
38.699
39.0656
39.2808
39.4302
39.5908
39.7146
39.7393
23.7351
26.5134
29.1706
31.4164
33.3189
35.1969
37.1826
39.3558
41.3906
42.9736
44.0037
44.6477
45.1493
45.5687
45.9371
46.2231
46.3491
46.3978
46.4629
46.4798
46.3708
46.1636
23.7259
26.4882
29.1248
31.3531
33.2454
35.1145
37.0878
39.2475
41.2734
42.8524
43.8816
44.525
45.0279
45.4531
45.8366
46.1368
46.2748
46.3365
46.4161
46.4472
46.3485
46.1515
22.9041
25.0568
27.074
28.7783
30.2036
31.4389
32.5515
33.7037
34.8932
35.9531
36.7408
37.3261
37.8325
38.2873
38.7058
39.0606
39.2629
39.3999
39.5475
39.6591
39.67
39.6158
21.5901
22.9832
24.3196
25.4831
26.4635
27.3045
28.084
28.9231
29.781
30.5702
31.3321
32.1092
32.9247
33.768
34.647
35.5301
36.2775
36.9502
37.6258
38.26
38.7499
39.1475
39.56
20.3472
21.1566
21.8886
22.4458
22.8658
23.4846
24.1697
24.8655
25.4905
26.0534
26.6809
27.4566
28.4335
29.6414
31.0762
32.6708
34.2858
35.887
37.5147
39.1271
40.5646
41.9184
43.2226
19.4879
20.0118
20.5441
20.9937
21.3003
21.7233
22.1558
22.624
23.0263
23.4165
24.5192
25.9338
27.3879
28.9748
30.786
32.8921
35.2868
38.0042
40.9988
44.1221
47.1158
49.8753
52.3765
19.3209
19.7889
20.3342
20.8199
21.2101
21.2243
21.4547
21.7547
23.8964
25.2844
26.9098
28.8845
31.219
33.9724
37.1264
40.3278
43.5772
46.9142
50.2719
53.5752
56.8601
59.9349
62.3905
18.9786
19.3756
19.5701
20.1792
20.7907
21.4413
22.2142
22.7492
28.1829
29.8243
31.5235
33.377
35.5068
38.0011
40.8621
44.0363
47.5224
51.1663
54.8961
58.4505
61.8992
65.2633
68.3724
18.9263
19.3808
19.662
20.7588
22.3259
24.2899
26.3977
27.6505
43.1013
46.122
48.7708
51.2099
53.7689
56.5657
59.6184
62.9088
66.3922
69.9939
73.6647
77.3454
80.86
84.0814
87.6195
19.2768
19.8702
20.2509
22.1217
26.7074
33.7458
39.9038
42.9746
90.8802
92.1703
92.5893
93.0683
94.0806
95.7559
98.0536
100.867
103.6
106.235
108.791
111.296
113.739
116.063
118.039
38.5523
57.6819
100.761
117.124
258.231
241.557
225.194
211.01
199.384
190.116
182.866
177.114
172.384
168.358
164.855
161.757
158.631
155.761
153.107
73.3402
171.579
334.149
380.977
371.067
335.245
298.347
278.516
260.241
244.608
230.803
218.095
206.82
196.577
187.188
178.749
171.271
164.661
158.758
318.361
535.617
511.122
467.695
410.57
358.89
311.515
274.485
252.454
234.189
218.427
204.797
192.928
182.576
173.526
165.551
158.179
150.694
824.654
764.759
1123.04
1363.49
704.687
478.747
324.147
276.315
227.97
207.955
195.553
187.093
179.384
172.113
165.393
159.288
153.681
148.448
444.514
282.841
273.584
286.067
257.265
236.166
219.412
205.587
193.858
183.686
174.718
166.721
159.532
1059.49
486.059
397.073
311.61
277.188
250.605
229.375
212.041
197.612
185.398
174.921
165.841
157.92
873.898
425.701
277.457
247.076
224.12
205.902
191.012
178.57
167.989
158.865
150.921
143.967
137.872
18.7447
18.9293
19.2245
19.6208
20.0858
20.5588
20.9891
21.3439
21.6187
21.816
21.9366
21.9928
22.0368
22.0841
22.1182
19.02
19.4298
20.1096
21.0231
22.177
23.3981
24.6248
25.6304
26.35
26.7869
26.9506
27.0019
27.0591
27.1082
27.1292
19.4502
20.32
21.8129
23.9693
27.3392
30.9254
35.708
38.9166
40.6864
41.3632
41.235
41.1232
41.0495
40.8431
40.49
40.0793
39.5965
39.1191
38.6844
38.2888
37.9336
37.6173
37.338
20.1158
21.8317
25.1309
26.9765
36.6793
49.3291
82.7766
86.7809
87.739
87.0317
85.2042
82.5751
80.2168
75.1958
69.9652
71.027
68.475
66.1162
64.0024
62.1263
60.4644
58.9899
57.6789
21.039
24.0955
26.5613
45.3495
96.6547
152.293
182.807
195.11
193.362
186.812
178.282
165.811
154.178
140.286
126.503
113.753
125.697
117.745
110.908
105
99.8694
95.3852
91.4418
21.8646
23.5962
36.5161
102.51
370.227
984.168
467.702
378.231
384.726
382.485
369.61
387.436
541.225
465.913
305.033
273.344
223.915
215.885
194.069
176.782
162.674
150.926
140.982
132.458
22.3869
25.2212
46.0839
142.404
559.343
394.673
301.584
261.688
233.015
210.863
193.048
178.327
165.914
155.291
21.9938
25.0212
49.8457
243.554
560.857
393.608
302.285
265.768
239.285
218.55
201.717
187.693
175.737
165.317
20.8598
22.9207
40.7552
123.567
357.91
353.739
287.307
258.055
235.607
217.252
201.953
188.93
177.679
167.82
159.057
19.8588
22.0797
25.2641
47.921
236.979
619.695
219.223
261.307
479.021
574.116
642.47
697.394
582.517
443.35
322.436
280.637
255.21
241.134
226.689
213.056
200.613
189.348
179.202
170.046
161.707
18.9151
19.7726
21.6
23.9464
33.255
51.4851
64.4235
81.1828
125.394
874.907
560.652
434.52
362.932
320.235
300.66
280.532
260.597
242.878
227.751
215.223
204.178
191.768
180.55
171.209
163.023
18.5108
18.7703
19.3504
20.2028
21.1846
22.4683
24.0133
32.5944
142.224
1005.39
552.105
422.888
366.253
322.724
289.891
264.571
244.926
229.798
217.503
207.184
198.51
190.981
183.948
177.07
169.98
18.3449
18.4362
18.6726
19.0554
19.4957
19.8782
21.2954
28.245
114.694
266.124
352.413
452.197
386.886
334.863
295.479
265.233
241.563
222.679
207.35
194.702
184.207
175.524
168.406
162.63
157.802
18.3144
18.3716
18.539
18.8321
19.1956
19.477
20.6951
26.4972
62.5666
86.4853
125.141
178.068
179.34
256.734
236.709
219.246
204.405
191.935
181.494
172.664
165.136
158.579
152.764
148.327
144.231
18.383
18.4773
18.6916
19.0474
19.4627
19.7119
20.839
24.4316
32.5967
49.45
61.2438
73.8165
75.2272
128.658
126.368
125.103
124.856
125.509
126.831
127.732
129.67
130.771
131.131
128.734
125.161
18.5444
18.7473
19.1255
19.6804
20.2567
20.4797
21.418
23.1413
25.0514
28.5
34.5405
39.4831
43.2702
79.0843
84.4539
90.0653
96.2572
102.753
109.509
107.912
106.841
107.839
110.265
113.82
117.878
18.8055
19.2162
19.9324
20.9137
21.9034
22.0465
22.8621
23.7846
28.2048
28.3067
29.9759
32.3235
33.9973
51.0123
58.0201
58.0422
60.2081
64.6952
71.2131
79.8175
89.6644
99.6768
108.992
116.562
122.074
19.9148
21.1839
22.8562
24.7711
24.8932
25.7046
26.5612
32.9677
32.7401
33.1313
34.2453
35.4784
37.4117
40.5286
45.1686
51.2309
58.5323
66.8333
75.1644
82.6971
89.3182
95.0796
99.7498
22.9853
26.1455
30.381
34.6456
38.2673
41.0041
40.6831
40.8336
41.8879
43.9914
46.2542
48.8242
52.2125
56.4057
61.0626
65.9777
70.9577
75.2743
78.5723
81.7676
84.7484
87.076
37.0727
43.697
48.9091
52.8291
52.33
52.4121
53.5668
55.8181
58.3847
60.4643
61.9085
63.0636
64.0258
64.9207
65.8245
66.43
66.5429
66.8746
67.3189
67.6561
41.8246
50.9709
58.0479
63.5806
69.2271
74.9923
81.2006
80.27
80.2784
80.8303
80.8699
80.809
80.7742
80.8603
81.0817
81.024
80.541
80.2319
80.0597
79.7144
78.9865
41.7427
50.8165
57.8175
63.3147
68.9245
74.6444
80.8123
80.3495
81.2976
82.7679
83.6384
84.3512
85.0748
85.93
86.8973
87.479
87.6144
87.8968
88.3292
88.4605
88.1078
37.1671
43.8953
49.1499
53.162
53.0786
54.0166
56.0844
59.4785
63.1914
65.9362
67.4463
68.4639
69.236
69.911
70.5564
70.8174
70.5736
70.4888
70.4851
70.2883
69.7372
26.1645
30.4385
34.7468
38.3741
41.1649
41.3133
42.2556
43.9998
46.6696
49.4001
51.856
54.1934
56.5071
58.7715
61.0985
63.6093
65.7635
67.2698
68.9373
70.6558
72.1211
72.9881
74.0062
22.869
24.7897
25.4105
26.9037
28.3511
33.1985
35.3185
35.5477
37.0603
38.9954
41.4803
44.9203
49.6267
55.5841
62.4633
69.706
76.0371
81.0224
85.2921
89.0472
91.8805
93.5532
95.1302
20.8911
21.8615
22.2055
23.0662