/*--------------------------------*- C++ -*----------------------------------*\
  =========                 |
  \\      /  F ield         | OpenFOAM: The Open Source CFD Toolbox
   \\    /   O peration     | Website:  https://openfoam.org
    \\  /    A nd           | Version:  13
     \\/     M anipulation  |
\*---------------------------------------------------------------------------*/
FoamFile
{
    format      ascii;
    class       volScalarField;
    location    "500";
    object      p;
}
// * * * * * * * * * * * * * * * * * * * * * * * * * * * * * * * * * * * * * //

dimensions      [0 2 -2 0 0 0 0];

internalField   nonuniform List<scalar> 
169916
(
11.8097
9.05466
5.74801
2.03851
-1.76139
-5.20568
-7.88066
-9.58029
-10.3593
-10.37
-9.74455
-8.59443
-7.06331
-5.35968
13.1926
9.97705
5.89449
1.0843
-4.01294
-8.66099
-12.2273
-14.2543
-14.8979
-14.4686
-13.1929
-11.2472
-8.83176
-6.30057
15.2583
11.5933
6.56048
0.206888
-6.77245
-13.0794
-17.859
-20.3532
-20.8325
-19.7562
-17.4869
-14.3937
-10.704
-7.02566
-4.00148
-1.75327
-0.177523
0.856937
1.46703
1.75888
1.82562
1.74371
20.686
18.3172
14.378
8.28868
-0.239601
-10.4987
-16.9331
-23.7431
-27.0391
-27.569
-25.7433
-22.2284
-17.1643
-11.737
-6.76401
-3.19099
-0.710951
0.920628
1.89848
2.39218
2.54768
2.48563
2.29735
24.4583
22.7402
19.1714
12.6081
1.89908
-9.67328
-24.2165
-36.1992
-41.7105
-41.0885
-36.0667
-28.8936
-20.6233
-12.7287
-4.86537
-1.57771
0.60027
1.97843
2.72622
2.98479
2.91423
2.65583
2.31172
28.8767
28.5288
26.6242
21.7903
10.9443
-6.22909
-32.2784
-57.5047
-64.2395
-63.0852
-50.8224
-35.0852
-22.2627
-10.42
-1.05079
1.52179
2.44696
2.8647
2.97907
2.82702
2.49832
2.08857
1.66431
1.27523
33.1605
34.5458
35.4539
31.5553
26.3418
10.559
-17.3643
-66.3754
-90.5746
-127.231
-75.4583
-41.1252
-21.9058
-8.53781
-3.16385
-1.11469
0.727412
1.66723
1.95484
1.84088
1.50628
1.08781
0.6659
0.292683
0.0202522
36.2332
38.7141
41.4103
41.4836
41.6002
36.098
18.0261
-26.2487
-48.5424
-90.4859
-43.6934
-25.5196
-10.938
-5.33049
-3.64173
-1.73384
-0.314657
0.424278
0.617111
0.47672
0.183198
-0.156344
-0.475921
-0.710772
37.5698
40.0533
42.6033
44.0891
44.752
40.8154
30.8669
8.83894
-16.859
-68.5063
-79.3565
-58.0438
-28.9441
-14.2819
-8.70549
-5.13245
-3.06408
-1.30798
-0.239369
0.16459
0.161582
-0.0458783
-0.349226
-0.675502
-0.951142
-1.09881
37.4793
39.2375
40.596
40.7522
40.2558
34.6821
23.7075
7.38084
-10.9105
-27.8824
-37.1296
-34.4821
-24.7104
-15.4844
-9.03838
-6.47892
-4.05738
-1.9867
-0.697212
-0.122256
-0.00386377
-0.150029
-0.448697
-0.81719
-1.1782
-1.45559
36.6497
37.6093
37.9184
36.9613
33.9067
28.4161
21.7718
10.6761
-1.03137
-12.5366
-20.4996
-22.3014
-17.0158
-13.2472
-10.1623
-7.43773
-4.88667
-2.82885
-1.49198
-0.806091
-0.591526
-0.696928
-1.01146
-1.44503
-1.91737
-2.35538
35.5924
35.906
35.5232
34.0349
30.9907
26.1974
19.5515
11.6298
2.93521
-5.47751
-11.63
-14.2412
-13.9687
-11.8699
-9.46044
-7.1163
-5.01003
-3.33205
-2.20133
-1.59692
-1.41771
-1.55331
-1.90916
-2.40787
-2.98516
-3.58423
34.575
34.403
33.5597
31.7845
28.8298
24.5713
19.0238
12.3919
5.1755
-1.71572
-7.00705
-9.84467
-10.3939
-9.5005
-8.04292
-6.45944
-4.97345
-3.75041
-2.90492
-2.46471
-2.38741
-2.60432
-3.04733
-3.65671
-4.38012
-5.17048
33.7133
33.1785
32.0058
30.038
27.137
23.2329
18.3635
12.708
6.68412
0.96994
-3.62368
-6.51173
-7.66793
-7.59327
-6.87087
-5.89971
-4.92216
-4.10502
-3.55899
-3.32979
-3.40776
-3.75444
-4.32486
-5.07427
-5.95989
-6.93982
33.0466
32.2328
30.806
28.6752
25.7723
22.0802
17.6631
12.7047
7.55737
2.71859
-1.29551
-4.08928
-5.56454
-5.99282
-5.80314
-5.33964
-4.82432
-4.40539
-4.18067
-4.19957
-4.46966
-4.97567
-5.69406
-6.59472
-7.64008
32.5739
31.5398
29.9051
27.619
24.6663
21.0863
16.987
12.5616
8.10053
3.94868
0.419369
-2.23171
-3.89131
-4.68871
-4.92936
-4.89642
-4.78361
-4.72096
-4.7956
-5.05521
-5.51534
-6.17691
-7.03475
-8.07033
-9.2506
32.274
31.0661
29.2565
26.8182
23.7803
20.2417
16.3597
12.333
8.389
4.75009
1.5973
-0.916594
-2.69105
-3.76914
-4.35032
-4.66053
-4.87223
-5.10278
-5.42963
-5.89614
-6.52116
-7.31496
-8.28526
-9.42398
-10.7048
30.7734
28.8175
26.2334
23.0892
19.5436
15.8068
12.0803
8.52746
5.26889
2.39481
-0.00558781
-1.85244
-3.14342
-3.99344
-4.57183
-5.03258
-5.48775
-6.00945
-6.63727
-7.3889
-8.27804
-9.32272
-10.5287
-11.8741
28.5444
25.8317
22.577
18.995
15.346
11.8331
8.56048
5.56791
2.8845
0.561369
-1.34049
-2.7936
-3.84666
-4.61662
-5.24513
-5.84817
-6.49761
-7.23014
-8.06172
-9.00876
-10.0995
-11.349
-12.7353
28.3936
25.585
22.2396
18.6145
15.0109
11.6323
8.53991
5.71768
3.15514
0.878652
-1.0636
-2.628
-3.81497
-4.70043
-5.42089
-6.10356
-6.82468
-7.61883
-8.49968
-9.48476
-10.6072
-11.8854
-13.2972
25.4594
22.0636
18.4116
14.8265
11.5128
8.50884
5.771
3.26995
1.01794
-0.943855
-2.56321
-3.81523
-4.75438
-5.51606
-6.23546
-6.99135
-7.81619
-8.72176
-9.7261
-10.8641
-12.1553
-13.5785
25.4514
22.0546
18.4024
14.8181
11.5053
8.50219
5.76515
3.2654
1.01521
-0.944495
-2.56204
-3.81294
-4.75164
-5.51315
-6.23257
-6.98887
-7.81461
-8.72146
-9.72735
-10.8671
-12.1604
-13.5856
25.5617
22.2134
18.587
14.9843
11.6078
8.5173
5.69741
3.13879
0.867672
-1.0684
-2.6272
-3.81054
-4.6944
-5.41424
-6.09697
-6.81934
-7.61624
-8.50109
-9.49108
-10.6191
-11.9034
-13.3216
-14.8365
25.7958
22.5367
18.9522
15.3034
11.7926
8.52329
5.53575
2.85986
0.54556
-1.34695
-2.79166
-3.83887
-4.60598
-5.23336
-5.83642
-6.48782
-7.22489
-8.06324
-9.01862
-10.1188
-11.3786
-12.7757
-14.2735
26.1879
23.0379
19.4884
15.7501
12.0248
8.47623
5.22626
2.36519
-0.021058
-1.8554
-3.13668
-3.98044
-4.55627
-5.01679
-5.47327
-5.99887
-6.63411
-7.39604
-8.29725
-9.35524
-10.5754
-11.9357
-13.4026
26.7656
23.7209
20.177
16.2921
12.2654
8.32571
4.69729
1.56158
-0.933055
-2.69083
-3.75669
-4.32991
-4.63662
-4.84845
-5.08179
-5.41488
-5.89229
-6.53167
-7.34133
-8.32862
-9.48546
-10.785
-12.1979
24.6031
21.0179
16.9155
12.49
8.03237
3.88977
0.377603
-2.25358
-3.89614
-4.67982
-4.90936
-4.86993
-4.75703
-4.7
-4.78548
-5.06129
-5.5411
-6.22319
-7.10152
-8.15793
-9.35931
-10.6746
-12.0772
25.7085
22.0125
17.594
12.6385
7.49303
2.65869
-1.34102
-4.11707
-5.57791
-5.99102
-5.78397
-5.30669
-4.78752
-4.37556
-4.16593
-4.2057
-4.49988
-5.03071
-5.77329
-6.6974
-7.76588
-8.93928
-10.1832
27.0749
23.1693
18.3015
12.6585
6.63043
0.897177
-3.69297
-6.56615
-7.70998
-7.61616
-6.86471
-5.86806
-4.88235
-4.0759
-3.55282
-3.35206
-3.45988
-3.83536
-4.4324
-5.20619
-6.11419
-7.11565
-8.16392
28.7718
24.5139
18.9682
12.3631
5.16302
-1.79499
-7.11519
-9.95685
-10.5008
-9.57368
-8.05397
-6.41353
-4.90323
-3.68978
-2.87474
-2.47303
-2.43553
-2.68984
-3.16649
-3.80548
-4.55512
-5.36918
-6.20394
2.82964
-5.63366
-11.8016
-14.4376
-14.1922
-12.0467
-9.5273
-7.0913
-4.94822
-3.2798
-2.18332
-1.62093
-1.48396
-1.65893
-2.05019
-2.58012
-3.18502
-3.8095
-4.4037
1.96411
-8.11328
-15.5426
-18.3885
-17.4902
-13.5909
-10.2355
-7.32561
-4.71341
-2.68657
-1.42002
-0.808977
-0.662346
-0.82742
-1.19369
-1.67155
-2.18252
-2.65621
-3.02967
-18.8358
-27.571
-28.1988
-22.3421
-15.8354
-9.49123
-6.58652
-3.97329
-1.89305
-0.679826
-0.196106
-0.162886
-0.384472
-0.746802
-1.16694
-1.56973
-1.88333
-2.03869
-47.1379
-44.732
-28.44
-15.9239
-9.78362
-5.1851
-2.87438
-1.11415
-0.139923
0.164525
0.0709155
-0.220404
-0.597194
-0.984679
-1.31144
-1.50373
-1.4873
-66.6922
-30.7131
-13.3066
-7.44036
-3.74472
-1.45243
-0.0142877
0.605218
0.69009
0.463432
0.0890456
-0.323665
-0.705321
-0.9935
-1.12114
-1.01897
-25.6647
-9.41354
-3.67249
-1.23776
0.856408
1.8778
2.1196
1.94041
1.54024
1.05249
0.563127
0.128865
-0.198659
-0.364571
-0.312791
-1.2166
1.58278
2.63387
3.03899
3.08839
2.86685
2.47088
1.99583
1.51089
1.06735
0.71149
0.488209
0.440185
11.7808
8.98368
5.61545
1.84179
-1.9752
-5.33821
-7.85036
-9.40399
-10.1242
-10.1751
-9.65549
-8.62166
-7.16397
-5.46634
13.1531
9.85522
5.63528
0.660383
-4.50755
-9.05646
-12.2415
-13.9359
-14.4635
-14.1487
-13.1263
-11.4212
-9.13532
-6.56963
15.2268
11.4116
6.08831
-0.59582
-7.72806
-13.9356
-17.9655
-19.7992
-20.0563
-19.2661
-17.5621
-14.8739
-11.442
-7.67039
-4.34125
-1.84912
-0.166885
0.897244
1.50909
1.79136
1.84412
1.74686
20.7944
18.3588
14.1684
7.52639
-1.85756
-8.93246
-18.2572
-23.8653
-26.2654
-26.3698
-25.0161
-22.4438
-18.352
-12.9582
-7.82859
-3.63813
-0.749454
1.03035
2.04574
2.52936
2.65219
2.55092
2.32585
24.7517
23.0372
19.1805
11.8539
1.8294
-13.1162
-28.6407
-38.2734
-39.9098
-38.1496
-35.04
-30.3056
-23.0953
-14.2206
-6.18222
-1.58417
0.936354
2.28128
2.97502
3.19863
3.09389
2.80024
2.42137
29.4852
29.3941
27.6765
20.4558
9.09247
-15.749
-39.918
-61.7637
-65.0498
-55.6237
-45.0707
-39.3398
-26.594
-11.8238
-3.40021
2.75445
4.02305
4.1516
3.8716
3.38701
2.82312
2.25186
1.71274
1.24236
34.0988
36.0772
34.4134
34.6438
26.8807
6.35226
-44.2038
-27.9359
-6.9386
0.252925
0.512877
0.863318
2.03077
2.13905
1.73894
1.22377
0.706697
0.220138
-0.198044
-0.495552
37.3189
40.57
41.6215
46.0956
43.3686
37.4054
-8.97772
-4.84462
-4.31516
-2.53952
-0.370929
0.362711
0.368627
0.123779
-0.218713
-0.590909
-0.937442
-1.18955
38.5469
41.7171
45.4459
47.7816
48.9216
45.6947
21.6647
-47.7447
-16.2727
-10.1876
-8.44212
-4.40098
-1.79243
-0.602417
-0.289756
-0.364927
-0.60363
-0.92203
-1.25526
-1.5255
-1.6539
38.2241
40.4056
42.3284
43.375
42.4943
34.9217
24.1342
7.27174
-10.7304
-25.5949
-38.3859
-44.7341
-29.2997
-16.9444
-11.8111
-8.3529
-4.96567
-2.29809
-0.846284
-0.284036
-0.209877
-0.39918
-0.740107
-1.1495
-1.54785
-1.85353
37.1833
38.3743
38.9305
38.0787
36.5471
30.7539
22.3619
11.8374
0.292654
-12.1791
-21.3962
-24.2378
-21.3604
-16.0541
-11.4992
-8.47581
-5.298
-2.81734
-1.32141
-0.617125
-0.447686
-0.626643
-1.02328
-1.53573
-2.07735
-2.57042
35.985
36.4321
36.1786
34.7546
31.6171
26.8584
20.4627
12.5511
3.45352
-6.01111
-12.787
-15.6599
-15.1345
-12.8206
-10.2609
-7.56773
-5.09948
-3.18874
-1.95871
-1.33793
-1.18527
-1.36546
-1.77058
-2.32032
-2.95258
-3.61145
34.8916
34.8027
34.0414
32.3265
29.3904
25.1527
19.6528
12.8981
5.30165
-2.25073
-7.98588
-10.9688
-11.3016
-10.1984
-8.51742
-6.68126
-4.98566
-3.62145
-2.70068
-2.23578
-2.16584
-2.4082
-2.88647
-3.53789
-4.3112
-5.16084
34
33.5185
32.3971
30.4704
27.5917
23.689
18.7708
12.9175
6.50889
0.370962
-4.50627
-7.41805
-8.35069
-8.02266
-7.09403
-5.95965
-4.85997
-3.95973
-3.36846
-3.1264
-3.21446
-3.58705
-4.19433
-4.9887
-5.92708
-6.96861
33.3336
32.5524
31.1492
29.0266
26.1135
22.3829
17.8666
12.7072
7.29033
2.22356
-1.95942
-4.783
-6.09584
-6.29112
-5.92603
-5.3453
-4.75007
-4.28084
-4.03282
-4.05104
-4.33697
-4.87181
-5.63106
-6.58348
-7.68676
32.8817
31.8642
30.2242
27.9046
24.8923
21.2276
17.0107
12.436
7.83404
3.58703
-0.0537849
-2.75665
-4.31696
-4.92198
-5.00947
-4.8807
-4.71162
-4.62159
-4.69154
-4.96352
-5.44709
-6.13978
-7.0415
-8.13286
-9.37515
32.6182
31.4136
29.5678
27.0483
23.8948
20.2274
16.2211
12.0939
8.09617
4.43992
1.24687
-1.30379
-3.02708
-3.97381
-4.43391
-4.66979
-4.84533
-5.06506
-5.39975
-5.88599
-6.53396
-7.35449
-8.3656
-9.56006
-10.9009
31.1564
29.1335
26.416
23.0955
19.3808
15.5247
11.75
8.21027
4.98478
2.11376
-0.30523
-2.13301
-3.34935
-4.11356
-4.63211
-5.06464
-5.51639
-6.05274
-6.70403
-7.47365
-8.37556
-9.44771
-10.7023
-12.0991
28.872
25.9769
22.4848
18.6948
14.9383
11.4237
8.2107
5.28062
2.62763
0.300486
-1.60733
-3.03596
-4.03341
-4.74479
-5.33841
-5.93269
-6.59102
-7.33966
-8.17761
-9.12207
-10.2298
-11.5239
-12.9567
28.7347
25.7057
22.0727
18.2066
14.5026
11.1558
8.15608
5.41853
2.90294
0.627712
-1.34147
-2.91997
-4.07032
-4.88407
-5.54994
-6.21183
-6.93549
-7.74158
-8.62367
-9.59966
-10.734
-12.0536
-13.5096
25.5656
21.8556
17.9444
14.2618
10.9971
8.10324
5.46419
3.01952
0.770215
-1.23077
-2.88251
-4.10482
-4.96259
-5.65839
-6.35166
-7.10817
-7.94322
-8.84757
-9.84016
-10.9877
-12.3187
-13.7845
25.5565
21.8454
17.9347
14.2538
10.9906
8.09724
5.45847
3.01491
0.767535
-1.231
-2.88055
-4.10184
-4.95933
-5.65485
-6.34796
-7.10478
-7.94061
-8.84607
-9.84012
-10.9896
-12.3225
-13.7905
25.68
22.0433
18.1766
14.4753
11.1315
8.13311
5.39693
2.8851
0.615703
-1.34579
-2.91717
-4.06397
-4.87662
-5.54162
-6.20303
-6.92759
-7.73622
-8.62218
-9.603
-10.7431
-12.0689
-13.5314
-15.0875
25.9379
22.4406
18.6487
14.8937
11.382
8.17197
5.24648
2.60132
0.282757
-1.61368
-3.03099
-4.0221
-4.73117
-5.32336
-5.9167
-6.57638
-7.32956
-8.17454
-9.12751
-10.2448
-11.5491
-12.9932
-14.5356
26.3674
23.0402
19.3214
15.4637
11.69
8.1549
4.94042
2.08636
-0.318636
-2.13284
-3.33733
-4.0957
-4.61313
-5.04564
-5.49754
-6.03695
-6.69588
-7.47619
-8.39041
-9.47592
-10.7448
-12.1568
-13.6769
26.9925
23.8308
20.1572
16.1465
12.0181
8.02531
4.38329
1.21412
-1.31195
-3.0158
-3.94984
-4.40408
-4.63918
-4.81627
-5.03786
-5.37773
-5.87597
-6.53949
-7.37645
-8.40506
-9.61794
-10.9784
-12.4594
24.825
21.1538
16.9316
12.3554
7.75705
3.52293
-0.0902932
-2.76525
-4.30661
-4.89908
-4.97871
-4.84671
-4.68061
-4.59714
-4.67713
-4.96729
-5.47282
-6.18711
-7.10941
-8.22132
-9.48444
-10.8764
-12.3832
26.0455
22.3095
17.7903
12.6379
7.22256
2.1627
-1.99214
-4.79129
-6.09225
-6.27376
-5.89277
-5.30091
-4.7056
-4.24608
-4.01481
-4.05643
-4.36899
-4.93053
-5.7147
-6.69056
-7.81662
-9.05719
-10.3897
27.5242
23.6179
18.7014
12.8801
6.4478
0.311392
-4.5322
-7.43248
-8.36802
-8.02541
-7.0712
-5.91665
-4.81542
-3.93225
-3.36848
-3.15779
-3.27753
-3.67953
-4.31279
-5.12987
-6.08852
-7.14918
-8.26342
29.3233
25.0801
19.5702
12.9076
5.24162
-2.33277
-8.0378
-11.0368
-11.3798
-10.2384
-8.49373
-6.60521
-4.89603
-3.55388
-2.67423
-2.25562
-2.23018
-2.51162
-3.02285
-3.70153
-4.49775
-5.36751
-6.26096
3.3654
-6.13158
-12.8825
-15.7807
-15.3243
-12.9787
-10.3068
-7.53082
-5.04126
-3.15313
-1.96286
-1.38523
-1.27425
-1.4924
-1.93086
-2.50889
-3.16586
-3.84711
-4.49706
2.87758
-8.15588
-16.4119
-19.7035
-18.7605
-15.3282
-11.4461
-8.25592
-5.09607
-2.7068
-1.30948
-0.689051
-0.587778
-0.822806
-1.26596
-1.81682
-2.39135
-2.91528
-3.32013
-17.8241
-28.2158
-30.908
-25.9425
-17.4443
-12.2139
-8.29978
-4.7554
-2.1616
-0.847314
-0.407317
-0.430617
-0.697192
-1.09774
-1.55165
-1.98326
-2.31777
-2.47899
-41.85
-62.2757
-54.7864
-36.38
-16.3697
-11.8196
-8.49492
-4.11402
-1.51445
-0.451688
-0.265127
-0.451794
-0.78657
-1.1833
-1.57942
-1.90094
-2.07193
-2.01699
-60.8526
-14.0622
-8.92271
-6.56714
-2.05244
0.04553
0.638816
0.519548
0.157959
-0.284026
-0.736419
-1.14704
-1.45101
-1.57902
-1.46089
-7.31531
-1.25541
-0.916963
1.18191
2.34302
2.39845
1.92369
1.32524
0.727571
0.169134
-0.312376
-0.665999
-0.836391
-0.766732
-0.527069
2.83059
4.21702
4.34479
4.00209
3.43914
2.79653
2.15223
1.54882
1.02291
0.614748
0.366335
0.318936
13.9706
11.7285
8.85618
5.37667
1.49973
-2.30483
-5.47747
-7.70212
-9.01562
-9.64271
-9.76139
-9.42179
-8.6018
-7.2923
-5.62565
15.5797
13.0743
9.61929
5.13958
-0.097448
-5.32906
-9.48619
-12.0434
-13.2212
-13.5819
-13.458
-12.8609
-11.6153
-9.59496
-7.04428
17.8289
15.1455
11.0229
5.1782
-2.10539
-9.43423
-14.895
-17.736
-18.5389
-18.4827
-18.1272
-17.3549
-15.6202
-12.5562
-8.75272
-5.03302
-2.16915
-0.279043
0.863701
1.49463
1.77412
1.81549
1.70314
20.9677
18.3821
13.6659
6.00345
-1.51461
-12.3635
-19.9657
-23.5935
-24.2365
-23.7816
-23.277
-22.424
-20.0455
-15.465
-9.66357
-4.78685
-1.33479
0.720147
1.85731
2.39584
2.54125
2.4469
2.22039
25.2602
23.5131
19.139
11.0019
-2.74501
-21.9006
-34.9156
-38.0812
-34.5174
-31.5711
-30.8877
-30.9807
-27.8139
-19.84
-10.281
-3.23086
0.34032
1.93905
2.67045
2.90223
2.80999
2.53669
2.18168
30.5769
31.0174
26.6681
21.0071
-0.836487
-33.3207
-61.6156
-68.1983
-51.3666
-37.9405
-41.4154
-44.1228
-37.1252
-22.3178
-7.85307
-1.03406
2.72938
3.7905
3.72771
3.24482
2.66334
2.08168
1.52968
1.04282
35.8005
39.1963
38.8028
39.4518
27.2067
-26.916
-2.86518
-0.756189
-0.856004
1.88574
2.2951
1.75008
1.15257
0.647965
0.190606
-0.212766
-0.505878
39.2716
44.2964
47.8023
55.5483
58.1965
-12.4558
-10.5466
-5.24629
-1.36352
-0.195056
-0.360358
-0.782098
-1.1329
-1.44468
-1.71381
-1.87482
40.2349
44.6385
48.6244
56.1302
60.869
-32.2841
-19.2412
-12.8049
-6.11873
-2.35674
-0.87815
-0.650251
-0.83827
-1.14311
-1.52136
-1.92065
-2.24041
-2.39127
39.5099
42.419
45.2328
47.9068
44.906
34.3919
17.8117
9.37526
0.314407
-21.376
-40.0146
-42.8484
-39.6247
-22.907
-16.6387
-10.3494
-5.67399
-2.50885
-0.966824
-0.432061
-0.389587
-0.60086
-0.966288
-1.4102
-1.86544
-2.24359
38.1073
39.7039
40.6639
39.9499
38.3175
30.9853
23.3018
15.822
4.25356
-12.8805
-23.3148
-26.2623
-24.3741
-19.3156
-13.6885
-9.53296
-5.40408
-2.42244
-0.73976
-0.0406271
0.00660827
-0.338054
-0.896761
-1.54619
-2.19693
-2.77462
36.6755
37.3611
37.3371
36.0397
32.9333
28.4101
22.8118
16.1871
6.21164
-6.78425
-15.3679
-17.5944
-17.1742
-14.7128
-11.5582
-8.10156
-4.98285
-2.67852
-1.27632
-0.635024
-0.548852
-0.826979
-1.33223
-1.98294
-2.72745
-3.51304
35.464
35.5309
34.9298
33.3574
30.5605
26.5366
21.4089
15.5039
6.95146
-2.55635
-9.69614
-12.6013
-12.7344
-11.3963
-9.20336
-6.84047
-4.74829
-3.14491
-2.11565
-1.63006
-1.59104
-1.89038
-2.43801
-3.16814
-4.036
34.5373
34.1619
33.1497
31.3299
28.5583
24.7613
19.8227
13.6161
6.28826
-0.721406
-6.2441
-9.07117
-9.59834
-8.85642
-7.47426
-5.96182
-4.60401
-3.54877
-2.88145
-2.62024
-2.72935
-3.15294
-3.83226
-4.71275
-5.75464
33.8917
33.1823
31.8365
29.7516
26.8585
23.1095
18.4118
12.8957
6.91126
1.38603
-3.26079
-6.17666
-7.16533
-6.89462
-6.14322
-5.28316
-4.50568
-3.93308
-3.6414
-3.659
-3.97544
-4.57403
-5.42216
-6.47966
-7.69854
33.5026
32.5293
30.8894
28.5161
25.4023
21.5865
17.1254
12.2207
7.34555
2.97772
-0.896883
-3.75457
-5.12048
-5.3223
-5.09969
-4.77019
-4.48751
-4.35246
-4.42619
-4.72634
-5.25372
-6.02433
-7.03478
-8.2523
-9.62388
33.3358
32.1513
30.2427
27.5619
24.1723
20.2442
15.9646
11.5985
7.51966
3.9108
0.63428
-2.06368
-3.68576
-4.32398
-4.52232
-4.60912
-4.72424
-4.94532
-5.31805
-5.85798
-6.55456
-7.43567
-8.54279
-9.8632
-11.3172
31.991
29.8412
26.8398
23.1336
19.0668
14.9568
11.0812
7.60258
4.49845
1.62858
-0.873175
-2.677
-3.71878
-4.29816
-4.70325
-5.09594
-5.56369
-6.15235
-6.86792
-7.66721
-8.57539
-9.69888
-11.0594
-12.5438
29.6287
26.3313
22.2927
18.0495
14.1015
10.6306
7.59006
4.79648
2.19579
-0.172849
-2.12985
-3.52277
-4.40114
-4.98763
-5.51477
-6.09657
-6.77993
-7.57166
-8.40934
-9.31964
-10.4554
-11.8514
-13.3659
29.5395
26.015
21.7003
17.2976
13.4399
10.2411
7.493
4.92718
2.49293
0.186367
-1.89555
-3.55797
-4.62836
-5.25866
-5.7956
-6.40739
-7.13745
-7.9792
-8.85319
-9.78242
-10.9365
-12.3549
-13.8886
25.8479
21.3853
16.8902
13.0678
10.0034
7.39979
4.98005
2.64214
0.366624
-1.79637
-3.60053
-4.76351
-5.40533
-5.94022
-6.56727
-7.32251
-8.18596
-9.07362
-10.0128
-11.1764
-12.6011
-14.1411
25.8364
21.3722
16.8795
13.0619
9.99972
7.39507
4.97423
2.63712
0.363902
-1.79566
-3.59703
-4.75993
-5.40201
-5.93642
-6.56342
-7.31931
-8.18339
-9.07146
-10.0119
-11.1775
-12.6045
-14.1464
25.983
21.662
17.2617
13.4127
10.2189
7.46882
4.90157
2.47084
0.171437
-1.89882
-3.55116
-4.62023
-5.25075
-5.78599
-6.39701
-7.12848
-7.97274
-8.84992
-9.78355
-10.9433
-12.3678
-13.9078
-15.5133
26.2852
22.2387
17.9959
14.0535
10.5876
7.54738
4.75605
2.16535
-0.196493
-2.13731
-3.51246
-4.38516
-4.97101
-5.49556
-6.0739
-6.75774
-7.55454
-8.39995
-9.31844
-10.4635
-11.8704
-13.397
-14.9958
26.7844
23.0692
18.9984
14.8858
11.0105
7.5361
4.44733
1.61585
-0.878488
-2.67066
-3.69697
-4.27405
-4.68221
-5.07426
-5.53768
-6.12691
-6.85006
-7.6602
-8.58018
-9.71675
-11.0917
-12.5928
-14.1886
27.4989
24.0982
20.1624
15.8732
11.5002
7.42697
3.84348
0.608993
-2.053
-3.65036
-4.27539
-4.47583
-4.56915
-4.68835
-4.90665
-5.28104
-5.8348
-6.54782
-7.44668
-8.57287
-9.91265
-11.3887
-12.9947
25.3268
21.501
17.0268
12.112
7.2421
2.89763
-0.930742
-3.74701
-5.08831
-5.27332
-5.05037
-4.72521
-4.45411
-4.32614
-4.40354
-4.72267
-5.27153
-6.06457
-7.09697
-8.33516
-9.7275
-11.2983
-13.0688
26.7828
23.0238
18.3155
12.8048
6.83811
1.32072
-3.27143
-6.15473
-7.13293
-6.85002
-6.08756
-5.22196
-4.45204
-3.89123
-3.61628
-3.65803
-4.00178
-4.62909
-5.50358
-6.58507
-7.82421
-9.23235
-10.805
28.4809
24.6717
19.7185
13.5971
6.1788
-0.81303
-6.2246
-9.03359
-9.5918
-8.84365
-7.44094
-5.91243
-4.55832
-3.52222
-2.88216
-2.65194
-2.79211
-3.2446
-3.94809
-4.84901
-5.90816
-7.10106
-8.37695
30.4767
26.4192
21.1498
14.5806
7.10218
-1.37514
-7.62106
-12.5965
-12.7602
-11.3764
-9.12958
-6.73383
-4.64796
-3.08033
-2.0972
-1.6596
-1.66593
-2.00399
-2.58222
-3.33551
-4.22233
-5.21015
-6.23722
6.40668
-4.76391
-12.5279
-17.6654
-17.3559
-14.7981
-11.4593
-7.9311
-4.83166
-2.58169
-1.23518
-0.647428
-0.613841
-0.940686
-1.48774
-2.17343
-2.94767
-3.75787
-4.5357
5.54419
-9.75785
-19.0168
-21.5006
-21.0834
-17.5307
-13.4131
-9.09694
-5.07929
-2.27515
-0.744063
-0.15911
-0.198478
-0.609047
-1.21679
-1.9034
-2.58378
-3.18793
-3.64519
-13.847
-29.6496
-30.7593
-29.2119
-21.0473
-15.3595
-9.80828
-5.08881
-2.16604
-0.88651
-0.565632
-0.678921
-0.998764
-1.43797
-1.92835
-2.40563
-2.79953
-3.02385
-46.3093
-64.2473
-46.5058
-23.7823
-19.358
-11.7806
-5.62701
-1.89524
-0.586981
-0.559473
-0.91873
-1.35491
-1.82889
-2.29944
-2.67751
-2.87237
-2.80377
-19.421
-12.5615
-4.83288
-1.09723
-0.00791713
-0.279336
-0.818966
-1.27342
-1.66729
-2.00187
-2.21527
-2.23712
-1.99978
-9.7208
-5.30531
-0.379694
2.33559
2.68212
2.03836
1.31754
0.695975
0.141687
-0.340198
-0.69748
-0.867749
-0.786298
-3.98519
-0.696363
2.99192
4.05951
3.95118
3.38854
2.71699
2.05031
1.4242
0.873451
0.444897
0.188336
0.15271
13.9571
11.6755
8.7212
5.11555
1.16052
-2.56285
-5.4845
-7.3876
-8.449
-8.98649
-9.17824
-9.0296
-8.45438
-7.34796
-5.75562
15.5688
12.9823
9.33663
4.55305
-0.9225
-6.03601
-9.68558
-11.5872
-12.2521
-12.4709
-12.5162
-12.3012
-11.5716
-9.96373
-7.49613
17.8605
15.0378
10.5462
4.01792
-3.74494
-10.9544
-15.4911
-17.1547
-16.9592
-16.7292
-16.7689
-16.7746
-16.1462
-13.8121
-9.84517
-5.72612
-2.43576
-0.254333
1.02477
1.69727
1.97696
2.00072
1.86116
21.1467
18.3926
13.1821
6.14825
-4.83842
-15.273
-21.3523
-23.4664
-21.2888
-20.4101
-20.8222
-21.068
-21.3492
-18.4356
-12.5548
-5.91726
-1.81699
0.66523
2.0081
2.62168
2.7876
2.68916
2.44472
25.8065
24.1375
18.4423
9.0362
-10.4821
-31.3001
-38.6017
-33.2958
-27.2113
-24.5864
-24.6039
-28.7209
-32.74
-27.9942
-16.1828
-6.48284
-0.0567824
2.22785
3.17414
3.42958
3.31814
3.01809
2.63213
31.7141
32.8258
28.7507
17.5984
-12.8859
-62.9813
-81.4993
-50.5976
-21.2538
-19.4273
-18.2311
-38.1016
-58.9467
-39.3352
-17.0329
-5.05601
1.94385
4.25277
4.58628
4.15249
3.54003
2.92162
2.32632
1.78543
37.5376
38.5635
44.8779
41.654
20.2893
-13.7042
-4.20446
-0.14484
2.98035
3.59001
2.84526
1.99603
1.32052
0.742644
0.244171
-0.119767
41.3348
45.308
56.4315
66.6229
-19.6044
-13.9564
-6.628
-1.25881
0.818236
0.560637
-0.097707
-0.639533
-1.1378
-1.60201
-1.93585
42.0634
46.4846
56.2439
66.3327
67.0005
-20.651
-14.9426
-8.24572
-2.44172
-0.459482
-0.252625
-0.502239
-0.802235
-1.17103
-1.59851
-1.99781
-2.25398
40.9821
44.7833
49.2373
52.4526
47.6464
25.3728
16.6331
25.2282
15.4554
-40.4032
-30.7316
-35.5106
-34.7216
-24.1973
-19.6394
-13.5989
-5.38357
-1.99038
-0.617412
-0.32498
-0.488993
-0.849135
-1.31633
-1.81199
-2.28173
-2.65583
39.181
41.2549
42.6379
43.5476
39.0664
31.6137
27.5086
25.0474
12.4507
-17.9203
-26.5494
-28.9845
-27.9068
-23.2282
-17.2983
-9.36271
-4.52278
-1.30084
0.509889
1.14375
0.909269
0.190084
-0.745423
-1.72301
-2.63158
-3.4122
37.5058
38.478
38.7084
37.4644
34.7173
31.0445
27.3252
22.7277
10.1763
-13.1956
-21.5914
-22.3484
-19.2776
-16.4437
-12.1719
-7.90561
-4.15663
-1.47155
0.120835
0.760138
0.701237
0.219615
-0.492995
-1.36049
-2.36126
-3.43792
36.1902
36.4558
36.0645
34.6959
32.2198
28.8305
25.2272
19.4362
7.32036
-6.98524
-15.4293
-15.3619
-14.6549
-12.9669
-10.0028
-6.85263
-4.18659
-2.24063
-1.04839
-0.520179
-0.515559
-0.895223
-1.54641
-2.39705
-3.42018
35.2614
35.0322
34.1766
32.5386
30.032
26.6588
23.0674
16.7581
7.26749
-1.63001
-9.18086
-11.4873
-10.6264
-9.68752
-7.83531
-5.84607
-4.12434
-2.84296
-2.06569
-1.77339
-1.90638
-2.40092
-3.17618
-4.1658
-5.32826
34.6882
34.0866
32.8302
30.8258
28.0449
24.4472
20.7955
14.8116
7.69117
1.36125
-4.74762
-8.29374
-8.16344
-7.44442
-6.30447
-5.10923
-4.08705
-3.37809
-3.03531
-3.05766
-3.40518
-4.09368
-5.0786
-6.29811
-7.53921
34.4341
33.5345
31.8986
29.4548
26.2223
22.2193
17.3892
11.8039
6.69327
2.97182
-1.73449
-5.3161
-6.03464
-5.65469
-5.02574
-4.42755
-3.99487
-3.83038
-3.95389
-4.35255
-4.85042
-5.7057
-6.89913
-8.33811
-9.85355
34.4525
33.3099
31.3049
28.3603
24.597
20.2596
15.5824
10.7627
6.6506
3.27327
-0.195597
-3.34364
-4.64266
-4.71384
-4.51634
-4.38844
-4.38537
-4.62819
-5.10063
-5.76926
-6.50535
-7.47567
-8.77692
-10.3576
-11.9625
33.3434
30.991
27.49
23.0978
18.4356
13.9892
10.004
6.72915
3.93769
1.05983
-1.70422
-3.4618
-4.15965
-4.4446
-4.69179
-5.02845
-5.55549
-6.28783
-7.17387
-8.0081
-8.90059
-10.1369
-11.7257
30.8928
26.8628
21.7717
16.6803
12.5116
9.26693
6.72885
4.25028
1.76499
-0.749021
-2.85932
-4.22258
-4.90874
-5.32426
-5.78353
-6.36617
-7.12477
-8.0472
-8.84343
-9.64845
-10.8534
-12.4644
30.9081
26.4657
20.7972
15.3664
11.3755
8.63527
6.55835
4.3737
2.11214
-0.29353
-2.67073
-4.61396
-5.51187
-5.82307
-6.18984
-6.73784
-7.50814
-8.46186
-9.26614
-10.0593
-11.2718
-12.9009
26.2507
20.2844
14.6524
10.7342
8.23569
6.31056
4.38092
2.28302
-0.0316971
-2.53944
-4.7753
-5.78968
-6.04902
-6.36986
-6.914
-7.70491
-8.6702
-9.47648
-10.2712
-11.4903
-13.119
-14.6994
26.2346
20.2655
14.6414
10.7357
8.24032
6.30763
4.37274
2.27497
-0.0364143
-2.53571
-4.76717
-5.78429
-6.0437
-6.36162
-6.9045
-7.69717
-8.66305
-9.46866
-10.2655
-11.4877
-13.1187
-14.6989
26.4229
20.7392
15.3198
11.3543
8.62492
6.53165
4.33751
2.0772
-0.317911
-2.66786
-4.59536
-5.50025
-5.8105
-6.16901
-6.71239
-7.48577
-8.44246
-9.2509
-10.0501
-11.2692
-12.9031
-14.4842
26.8049
21.6984
16.6143
12.4622
9.22883
6.67873
4.19251
1.71233
-0.7899
-2.86028
-4.19515
-4.88184
-5.29984
-5.75201
-6.32429
-7.08315
-8.01214
-8.81926
-9.63147
-10.8436
-12.4637
-14.0386
-15.6172
27.4235
23.017
18.3532
13.9008
9.91552
6.63402
3.85014
1.04468
-1.70741
-3.43492
-4.10979
-4.40553
-4.66757
-5.00174
-5.51435
-6.24552
-7.14031
-7.98603
-8.88848
-10.1371
-11.7375
-13.32
-14.9488
28.2842
24.504
20.1622
15.4618
10.6177
6.50625
3.17323
-0.20621
-3.291
-4.55717
-4.60879
-4.43938
-4.33519
-4.33702
-4.55819
-5.03562
-5.72676
-6.47649
-7.46508
-8.7865
-10.3873
-12.0219
-13.7913
26.1368
22.1204
17.2575
11.6254
6.51185
3.34447
-0.619377
-3.98243
-5.96841
-5.56399
-4.93998
-4.35576
-3.95968
-3.78391
-3.9306
-4.37045
-4.87528
-5.74644
-6.95914
-8.41637
-9.95146
-11.8119
-14.1143
27.9636
24.3524
19.4186
13.6916
7.55457
2.19367
-3.06407
-6.72868
-8.06441
-7.33179
-6.18872
-5.00411
-4.01631
-3.32267
-3.01202
-3.06825
-3.4445
-4.16551
-5.17949
-6.43107
-7.67851
-9.29855
-11.3139
29.9519
26.5665
21.6693
15.4392
7.31053
-0.057291
-6.76887
-9.92206
-10.5574
-9.63111
-7.77881
-5.79483
-4.09851
-2.84908
-2.10782
-1.85084
-2.01747
-2.5385
-3.33242
-4.33356
-5.50061
-6.87117
-8.38558
32.1359
28.7278
23.9304
17.756
7.28014
-4.23516
-12.1738
-13.357
-14.4552
-12.7001
-9.73675
-6.63553
-4.0494
-2.19121
-1.0738
-0.607077
-0.652721
-1.06856
-1.73959
-2.60045
-3.62961
-4.81444
-6.0739
8.43293
-7.29098
-18.0919
-18.2146
-19.7006
-16.5886
-12.099
-7.76397
-4.10076
-1.51504
0.0128819
0.605923
0.506346
-0.00894057
-0.740607
-1.62235
-2.63865
-3.72504
-4.77867
12.0393
-14.4355
-20.9414
-24.8012
-24.3705
-20.9947
-15.2349
-9.18974
-4.57599
-1.56063
0.12394
0.697731
0.438708
-0.284984
-1.21208
-2.18341
-3.09368
-3.87041
-4.43188
-20.8543
-33.3114
-31.6684
-30.0105
-24.2125
-18.2623
-11.7622
-5.29991
-2.20851
-1.064
-0.95606
-1.23396
-1.64424
-2.12728
-2.61693
-3.05387
-3.38786
-3.55887
-52.5935
-25.5212
-35.7672
-36.8825
-25.5056
-22.1606
-14.2566
-7.74437
-2.46977
-0.639537
-0.61061
-1.00376
-1.39422
-1.80874
-2.24844
-2.64271
-2.89315
-2.90617
-21.1897
-13.9918
-7.69386
-1.23381
0.832436
0.505416
-0.252875
-0.878646
-1.43582
-1.9453
-2.32482
-2.48603
-2.35669
-18.78
-8.86582
-3.30163
3.09814
3.62689
2.77138
1.80704
1.03449
0.387529
-0.159911
-0.560768
-0.752656
-0.671182
-14.0034
-3.39888
2.13832
4.38776
4.64996
4.13227
3.43617
2.74415
2.0883
1.49768
1.0231
0.720572
0.645086
13.9486
11.6479
8.64857
4.97723
0.998899
-2.61821
-5.30549
-6.91312
-7.761
-8.23874
-8.49359
-8.49139
-8.11569
-7.21055
-5.73024
15.5502
12.9068
9.13867
4.16426
-1.44547
-6.40385
-9.61857
-10.8683
-11.1806
-11.3667
-11.5468
-11.5865
-11.233
-10.0434
-7.75717
17.8539
14.9097
10.1588
3.13157
-4.99194
-11.9683
-15.8036
-15.92
-15.244
-15.1115
-15.3919
-15.8431
-16.0118
-14.5173
-10.6927
-6.2553
-2.59937
-0.165337
1.21865
1.90769
2.16626
2.15186
1.96548
21.2112
18.2399
12.5499
4.30675
-7.54551
-17.6906
-24.2983
-20.871
-18.4746
-17.8164
-18.3423
-20.2448
-21.237
-20.7679
-15.0423
-6.93845
-2.14534
0.763911
2.26168
2.91091
3.06588
2.93073
2.63454
26.0915
24.2133
17.8258
6.03775
-18.3719
-37.7565
-38.1183
-28.0271
-23.011
-21.1477
-20.6677
-23.638
-32.5009
-35.1641
-22.2928
-9.22238
-0.265955
2.76978
3.86897
4.09791
3.92007
3.54111
3.06907
32.6308
31.117
30.1502
11.6612
-35.7455
-77.2152
-77.3271
-19.6653
-19.5586
-19.6152
-16.7681
-16.3573
-54.3917
-74.4533
-33.7013
-8.01094
0.264236
4.93255
5.77994
5.39112
4.66102
3.90987
3.18527
2.51447
39.3318
42.1828
49.3612
47.4533
-7.36481
1.28601
4.61565
5.87346
5.22288
4.13712
3.17421
2.32771
1.57726
0.976076
43.4245
49.91
64.4773
82.4725
-12.6737
-3.97376
0.282702
2.52342
2.33472
1.56751
0.897413
0.281528
-0.305822
-0.788768
43.8456
50.5123
62.7511
78.0078
-14.4992
-7.19382
-1.10321
0.95214
0.798595
0.174363
-0.386846
-0.940417
-1.49937
-1.99845
-2.33776
42.2762
46.8896
53.1863
54.6917
41.2032
21.0367
28.751
45.294
50.7116
-41.3816
-36.1543
-32.2301
-25.391
-20.2651
-11.7546
-1.98682
1.14587
2.45263
2.47623
1.87175
1.01325
0.0166816
-1.00399
-1.92441
-2.66791
40.1182
42.6061
44.2978
45.3614
39.2882
33.1729
34.356
40.0951
45.8757
-40.8844
-30.9093
-29.3572
-23.9296
-17.1676
-6.89149
-2.04373
0.57707
2.31592
3.0164
2.73909
1.90028
0.808964
-0.357841
-1.48717
-2.51563
38.2736
39.5121
40.0034
38.9454
36.6376