/*--------------------------------*- C++ -*----------------------------------*\
  =========                 |
  \\      /  F ield         | OpenFOAM: The Open Source CFD Toolbox
   \\    /   O peration     | Website:  https://openfoam.org
    \\  /    A nd           | Version:  13
     \\/     M anipulation  |
\*---------------------------------------------------------------------------*/
FoamFile
{
    format      ascii;
    class       volScalarField;
    location    "1000";
    object      k;
}
// * * * * * * * * * * * * * * * * * * * * * * * * * * * * * * * * * * * * * //

dimensions      [0 2 -2 0 0 0 0];

internalField   nonuniform List<scalar> 
171745
(
0.307098
0.305621
0.304162
0.302721
0.301297
0.299889
0.298496
0.297117
0.295751
0.294398
0.293055
0.291722
0.290397
0.289081
0.287773
0.286471
0.285178
0.283892
0.282614
0.281345
0.280086
0.278838
0.277602
0.276378
0.307126
0.305649
0.30419
0.302749
0.301324
0.299917
0.298525
0.297147
0.295783
0.29443
0.293089
0.291758
0.290435
0.289121
0.287814
0.286515
0.285224
0.28394
0.282664
0.281397
0.280141
0.278895
0.277661
0.276439
0.307192
0.305714
0.304255
0.302813
0.30139
0.299983
0.298592
0.297216
0.295854
0.294504
0.293165
0.291837
0.290518
0.289207
0.287904
0.286609
0.285321
0.284041
0.282769
0.281506
0.280254
0.279012
0.277782
0.276565
0.307296
0.305817
0.304357
0.302916
0.301493
0.300088
0.298699
0.297326
0.295967
0.294621
0.293287
0.291963
0.290649
0.289344
0.288047
0.286757
0.285475
0.284201
0.282936
0.281679
0.280433
0.279198
0.277974
0.276763
0.307452
0.305971
0.304511
0.30307
0.301648
0.300245
0.298859
0.29749
0.296135
0.294795
0.293466
0.292149
0.290843
0.289545
0.288255
0.286974
0.285701
0.284435
0.283178
0.281931
0.280693
0.279466
0.278252
0.277049
0.307673
0.306191
0.30473
0.30329
0.30187
0.30047
0.299088
0.297723
0.296375
0.295041
0.293721
0.292413
0.291115
0.289827
0.288549
0.287278
0.286016
0.284762
0.283516
0.28228
0.281054
0.279839
0.278635
0.277444
0.307986
0.306503
0.305042
0.303603
0.302185
0.300788
0.299412
0.298053
0.296713
0.295388
0.294078
0.292781
0.291496
0.290221
0.288956
0.287699
0.286451
0.285212
0.283981
0.282759
0.281547
0.280347
0.279158
0.277981
0.308428
0.306944
0.305483
0.304046
0.302632
0.30124
0.29987
0.29852
0.29719
0.295877
0.29458
0.293297
0.292028
0.290769
0.289521
0.288282
0.287052
0.285831
0.284618
0.283414
0.282221
0.281038
0.279867
0.278707
0.309055
0.307571
0.306112
0.304678
0.303269
0.301885
0.300524
0.299185
0.297867
0.296569
0.295289
0.294025
0.292775
0.291537
0.290311
0.289095
0.287887
0.286689
0.285498
0.284317
0.283145
0.281984
0.280833
0.279694
0.30995
0.308468
0.307013
0.305585
0.304184
0.302809
0.30146
0.300136
0.298835
0.297556
0.296298
0.295057
0.293833
0.292623
0.291424
0.290236
0.289057
0.287886
0.286723
0.285568
0.284423
0.283287
0.28216
0.281044
0.311238
0.309761
0.308312
0.306893
0.305503
0.304142
0.302809
0.301504
0.300226
0.298973
0.297742
0.296533
0.295342
0.294166
0.293003
0.291851
0.290708
0.289572
0.288442
0.287319
0.286204
0.285097
0.283997
0.282906
0.313098
0.311628
0.31019
0.308783
0.307408
0.306065
0.304755
0.303475
0.302226
0.301006
0.299814
0.298645
0.297498
0.296368
0.295252
0.294147
0.293049
0.291956
0.290867
0.289782
0.288702
0.287626
0.286554
0.285486
0.315779
0.314319
0.312893
0.311502
0.310146
0.308827
0.307543
0.306297
0.305086
0.30391
0.302767
0.301653
0.300565
0.299497
0.298444
0.2974
0.296362
0.295325
0.294285
0.293245
0.292204
0.291161
0.290116
0.289068
0.319592
0.318139
0.316724
0.315348
0.314012
0.312718
0.311466
0.310259
0.309096
0.307978
0.306901
0.305863
0.304858
0.303877
0.302912
0.301957
0.301001
0.300041
0.299069
0.298083
0.297088
0.296081
0.295059
0.294024
0.324846
0.323389
0.321974
0.320605
0.319283
0.318011
0.316793
0.315633
0.314533
0.313493
0.312514
0.311589
0.310711
0.309868
0.309045
0.308232
0.307413
0.306576
0.305711
0.304808
0.303878
0.302917
0.301921
0.30089
0.331716
0.330233
0.328801
0.327424
0.326107
0.324856
0.32368
0.322586
0.321582
0.320674
0.319862
0.319145
0.318504
0.317918
0.317363
0.31681
0.316239
0.315627
0.314958
0.314207
0.313384
0.312493
0.311528
0.310487
0.340174
0.338651
0.337196
0.335815
0.334519
0.333321
0.33224
0.331297
0.330505
0.32988
0.329428
0.32914
0.32899
0.328934
0.328918
0.328891
0.32881
0.328638
0.328342
0.327893
0.32724
0.326444
0.325497
0.3244
0.350384
0.348864
0.34744
0.346128
0.344948
0.343929
0.343107
0.342524
0.342222
0.342235
0.342574
0.343202
0.344048
0.345016
0.345999
0.346902
0.347655
0.348198
0.34848
0.348459
0.348068
0.347292
0.346228
0.344893
0.363508
0.36215
0.360947
0.359929
0.359138
0.358631
0.35848
0.358765
0.359554
0.360868
0.362693
0.364845
0.36716
0.369489
0.371685
0.373636
0.375276
0.376503
0.377252
0.377495
0.377203
0.376272
0.374753
0.37281
0.370518
0.382822
0.382095
0.381603
0.381394
0.381538
0.382129
0.383268
0.385041
0.387479
0.390339
0.393531
0.396881
0.400135
0.403027
0.40537
0.407095
0.408225
0.408729
0.408629
0.407985
0.40682
0.40517
0.403011
0.400327
0.397215
0.415174
0.415767
0.416519
0.417472
0.418689
0.42025
0.422175
0.424278
0.426483
0.428634
0.430452
0.431639
0.431952
0.431286
0.429776
0.427521
0.42475
0.421738
0.418649
0.415561
0.412394
0.40909
0.405706
0.4023
0.398927
0.464189
0.464293
0.463767
0.462636
0.460943
0.458733
0.456027
0.452791
0.448845
0.443977
0.438186
0.431744
0.424875
0.417739
0.411141
0.405678
0.40159
0.39882
0.397147
0.396285
0.396329
0.396255
0.395822
0.394901
0.39338
0.491966
0.482449
0.471814
0.460424
0.44861
0.436664
0.42486
0.413403
0.402522
0.392588
0.384361
0.378855
0.376153
0.375551
0.377837
0.383441
0.391758
0.401712
0.412473
0.423902
0.445579
0.465271
0.48477
0.503776
0.521822
0.451115
0.433537
0.417342
0.402955
0.390345
0.379553
0.370791
0.363602
0.358155
0.355369
0.357352
0.365855
0.379257
0.378283
0.388593
0.408675
0.435695
0.468736
0.505414
0.549249
0.704402
0.779269
0.866842
0.954075
1.04649
1.15994
0.434256
0.424947
0.417329
0.410915
0.405174
0.400105
0.395546
0.392726
0.393895
0.404998
0.42796
0.429295
0.453294
0.496643
0.546177
0.610286
0.708775
0.824807
1.03205
1.26723
1.67248
1.77592
1.9497
2.20968
2.67783
0.478805
0.472209
0.466956
0.462953
0.460108
0.458793
0.460989
0.471744
0.500427
0.501305
0.535944
0.609038
0.69657
0.734187
0.913418
1.13128
1.50407
1.90529
1.39565
1.20148
1.17188
1.25956
1.39179
1.5044
0.536713
0.538066
0.540075
0.543255
0.547554
0.553923
0.564696
0.586725
0.629793
0.634786
0.696218
0.762268
0.881015
1.00197
1.22292
0.428319
0.593561
0.948137
0.979994
0.902182
0.902772
0.964313
1.02659
1.07822
0.625392
0.631322
0.639021
0.64825
0.659844
0.676092
0.702001
0.748282
0.753259
0.817467
0.892388
1.08403
0.347162
0.731725
0.875372
0.833579
0.879475
0.967242
1.03942
1.10468
0.694939
0.760633
0.771776
0.891811
1.03804
1.23118
1.17953
1.4973
1.57116
1.64915
1.85458
2.18164
1.09863
1.19747
1.3141
1.46438
0.437369
0.431111
0.42421
0.417019
0.409741
0.403107
0.397611
0.393384
0.3904
0.388522
0.387543
0.387466
0.38727
0.386717
0.385681
0.384036
0.381832
0.42736
0.428587
0.429122
0.42876
0.427438
0.425207
0.422129
0.418607
0.414958
0.411387
0.408001
0.404743
0.401521
0.398341
0.395224
0.3922
0.389215
0.386288
0.391241
0.394241
0.397325
0.400236
0.402713
0.40457
0.405743
0.406151
0.405896
0.405126
0.403944
0.402406
0.40055
0.398246
0.395517
0.392465
0.389209
0.385837
0.3618
0.363636
0.365756
0.367996
0.370199
0.37221
0.373913
0.375177
0.37594
0.376217
0.376017
0.375345
0.374037
0.372325
0.370258
0.367894
0.365297
0.362531
0.342771
0.343159
0.343825
0.34469
0.345649
0.346583
0.347392
0.347995
0.348339
0.348392
0.34813
0.347459
0.346514
0.345306
0.343852
0.342181
0.340332
0.338344
0.330156
0.329738
0.329483
0.32936
0.329319
0.329303
0.329254
0.329124
0.328879
0.32849
0.327921
0.327182
0.326301
0.325271
0.324098
0.322795
0.32138
0.319874
0.320832
0.320041
0.319343
0.318719
0.318147
0.317597
0.317043
0.316457
0.315821
0.315116
0.31432
0.313461
0.312531
0.311525
0.310446
0.309297
0.308087
0.306826
0.313612
0.312642
0.311727
0.310858
0.310022
0.309205
0.308393
0.307569
0.306723
0.305845
0.30493
0.303985
0.303008
0.301994
0.300944
0.299857
0.298738
0.297594
0.308085
0.307014
0.305981
0.304979
0.304002
0.30304
0.302085
0.301129
0.300164
0.299186
0.298196
0.297196
0.296182
0.295153
0.29411
0.293051
0.29198
0.290897
0.304016
0.302875
0.301764
0.300678
0.299611
0.298559
0.297515
0.296476
0.295437
0.294394
0.293352
0.292309
0.291264
0.290216
0.289165
0.288111
0.287054
0.285996
0.301114
0.299922
0.298754
0.297607
0.296477
0.295361
0.294255
0.293156
0.292062
0.290971
0.289886
0.288805
0.287728
0.286655
0.285587
0.284521
0.283461
0.282404
0.299082
0.297851
0.296641
0.295449
0.294273
0.293109
0.291956
0.290811
0.289674
0.288543
0.28742
0.286304
0.285197
0.284097
0.283005
0.281922
0.280846
0.279779
0.297666
0.296406
0.295165
0.293939
0.292727
0.291527
0.290337
0.289156
0.287984
0.286819
0.285664
0.284518
0.283382
0.282256
0.281141
0.280036
0.278941
0.277857
0.296677
0.295395
0.294129
0.292878
0.291638
0.29041
0.289191
0.287982
0.286781
0.285589
0.284407
0.283235
0.282074
0.280924
0.279786
0.278659
0.277546
0.276444
0.295981
0.294683
0.293398
0.292126
0.290865
0.289615
0.288374
0.287141
0.285918
0.284703
0.283499
0.282305
0.281122
0.279951
0.278793
0.277648
0.276516
0.275397
0.295489
0.294177
0.292877
0.29159
0.290312
0.289044
0.287785
0.286534
0.285293
0.28406
0.282837
0.281625
0.280424
0.279236
0.278061
0.276899
0.275751
0.274617
0.295137
0.293815
0.292504
0.291204
0.289913
0.288631
0.287358
0.286093
0.284837
0.28359
0.282352
0.281126
0.27991
0.278708
0.277518
0.276342
0.275181
0.274034
0.294887
0.293556
0.292236
0.290926
0.289625
0.288333
0.287049
0.285773
0.284505
0.283247
0.281998
0.280759
0.279533
0.278319
0.277118
0.275931
0.274759
0.273601
0.29471
0.293373
0.292046
0.290729
0.289421
0.28812
0.286828
0.285543
0.284267
0.283
0.281742
0.280495
0.27926
0.278037
0.276827
0.275632
0.274451
0.273285
0.29459
0.293249
0.291918
0.290595
0.289281
0.287975
0.286677
0.285386
0.284104
0.28283
0.281566
0.280313
0.279071
0.277841
0.276625
0.275423
0.274236
0.273064
0.294515
0.293171
0.291837
0.290511
0.289194
0.287884
0.286582
0.285287
0.284001
0.282724
0.281456
0.280198
0.278952
0.277718
0.276498
0.275292
0.2741
0.272924
0.294481
0.293135
0.291799
0.290472
0.289153
0.287841
0.286537
0.285241
0.283952
0.282673
0.281402
0.280143
0.278894
0.277658
0.276436
0.275227
0.274033
0.272855
0.307097
0.305621
0.304162
0.302721
0.301297
0.299889
0.298497
0.297118
0.295753
0.2944
0.293057
0.291724
0.2904
0.289084
0.287775
0.286474
0.285181
0.283895
0.282617
0.281348
0.280089
0.278841
0.277604
0.27638
0.307125
0.305648
0.304189
0.302748
0.301324
0.299917
0.298525
0.297148
0.295784
0.294433
0.293092
0.291761
0.290439
0.289124
0.287818
0.286519
0.285228
0.283944
0.282668
0.281402
0.280145
0.278899
0.277665
0.276443
0.307192
0.305714
0.304255
0.302814
0.301391
0.299985
0.298594
0.297219
0.295857
0.294508
0.29317
0.291842
0.290523
0.289213
0.28791
0.286615
0.285327
0.284047
0.282776
0.281513
0.28026
0.279019
0.277789
0.276571
0.307297
0.305819
0.304359
0.302919
0.301497
0.300092
0.298704
0.297332
0.295973
0.294628
0.293294
0.291971
0.290658
0.289353
0.288056
0.286767
0.285485
0.284211
0.282946
0.28169
0.280443
0.279208
0.277984
0.276774
0.307455
0.305975
0.304516
0.303076
0.301655
0.300252
0.298867
0.297499
0.296145
0.294805
0.293478
0.292162
0.290855
0.289558
0.288269
0.286988
0.285715
0.28445
0.283193
0.281946
0.280708
0.279482
0.278267
0.277065
0.307679
0.306198
0.304738
0.303299
0.30188
0.30048
0.299099
0.297736
0.296388
0.295056
0.293736
0.292429
0.291132
0.289845
0.288567
0.287297
0.286035
0.284781
0.283536
0.282301
0.281075
0.27986
0.278657
0.277467
0.307993
0.306511
0.305051
0.303613
0.302197
0.300801
0.299426
0.298069
0.296729
0.295406
0.294097
0.292801
0.291517
0.290243
0.288978
0.287722
0.286475
0.285236
0.284006
0.282785
0.281574
0.280374
0.279186
0.27801
0.308434
0.306951
0.305492
0.304056
0.302643
0.301253
0.299885
0.298536
0.297207
0.295895
0.2946
0.293319
0.29205
0.290793
0.289546
0.288308
0.287079
0.285859
0.284647
0.283444
0.282252
0.281071
0.2799
0.278742
0.309057
0.307574
0.306117
0.304685
0.303278
0.301895
0.300536
0.299199
0.297883
0.296587
0.295308
0.294045
0.292797
0.291561
0.290336
0.289121
0.287915
0.286718
0.285529
0.28435
0.28318
0.282021
0.280872
0.279735
0.309946
0.308466
0.307013
0.305587
0.304188
0.302816
0.301469
0.300147
0.298848
0.297571
0.296315
0.295076
0.293853
0.292645
0.291448
0.290262
0.289085
0.287916
0.286756
0.285604
0.284462
0.283329
0.282206
0.281093
0.311225
0.30975
0.308304
0.306888
0.305501
0.304143
0.302813
0.301511
0.300235
0.298984
0.297756
0.296549
0.29536
0.294186
0.293026
0.291877
0.290736
0.289604
0.288478
0.28736
0.28625
0.285148
0.284054
0.282969
0.313075
0.311609
0.310175
0.308772
0.307402
0.306063
0.304756
0.30348
0.302234
0.301017
0.299827
0.298662
0.297517
0.29639
0.295277
0.294175
0.293082
0.291994
0.29091
0.289833
0.288761
0.287694
0.286633
0.285575
0.31575
0.314297
0.312878
0.311493
0.310143
0.308829
0.307551
0.306309
0.305103
0.303931
0.302791
0.301681
0.300596
0.299531
0.298482
0.297443
0.29641
0.29538
0.294349
0.29332
0.292292
0.291265
0.290236
0.289206
0.319575
0.318134
0.31673
0.315364
0.314038
0.312753
0.311509
0.310309
0.309152
0.308039
0.306967
0.305932
0.304929
0.30395
0.302989
0.302037
0.301088
0.300135
0.299174
0.298206
0.297232
0.29625
0.295256
0.29425
0.32489
0.323454
0.322059
0.320707
0.319402
0.318145
0.316941
0.315791
0.314698
0.313664
0.312686
0.311762
0.310881
0.310034
0.309208
0.30839
0.307569
0.306735
0.30588
0.304999
0.3041
0.303176
0.302224
0.30124
0.331939
0.330491
0.329093
0.327747
0.326458
0.325231
0.324074
0.322993
0.321996
0.321085
0.320264
0.319526
0.318858
0.318243
0.317657
0.317078
0.316485
0.315862
0.315194
0.314463
0.313688
0.31286
0.311969
0.311012
0.340795
0.339331
0.33793
0.336598
0.335343
0.334178
0.333114
0.33217
0.331359
0.330696
0.330186
0.329823
0.329583
0.32943
0.329318
0.329202
0.329047
0.328824
0.328505
0.328052
0.327492
0.326819
0.326017
0.325081
0.351723
0.350283
0.348929
0.347673
0.346532
0.345529
0.344693
0.344058
0.343659
0.343526
0.343673
0.344086
0.344697
0.345428
0.346188
0.346896
0.347493
0.347935
0.348185
0.348202
0.347924
0.347422
0.346674
0.345674
0.365992
0.364689
0.363515
0.362494
0.361659
0.361057
0.360743
0.360786
0.36125
0.362168
0.363538
0.365305
0.367245
0.369233
0.371141
0.37287
0.374354
0.375548
0.376412
0.376869
0.376808
0.37631
0.375386
0.374055
0.372354
0.386057
0.385197
0.384527
0.384088
0.383937
0.384153
0.384825
0.386036
0.387868
0.390226
0.392996
0.396074
0.399279
0.402371
0.405134
0.407441
0.40924
0.410521
0.411231
0.411373
0.41098
0.409893
0.40828
0.406169
0.403637
0.416725
0.416791
0.417029
0.417492
0.418261
0.419432
0.421074
0.423103
0.425552
0.428417
0.431595
0.434871
0.437939
0.440546
0.442493
0.443703
0.444122
0.443719
0.442637
0.441025
0.438975
0.436473
0.433475
0.430122
0.426512
0.457814
0.45812
0.458323
0.458496
0.458738
0.459076
0.459505
0.460043
0.460701
0.461465
0.462363
0.463235
0.463997
0.464722
0.464769
0.463889
0.462199
0.45976
0.456592
0.45294
0.449051
0.444707
0.440039
0.435386
0.431052
0.482587
0.480014
0.477034
0.473789
0.470447
0.467207
0.46422
0.461159
0.459154
0.458635
0.460618
0.465641
0.472133
0.479656
0.486569
0.490724
0.492189
0.491053
0.487571
0.482846
0.478457
0.47576
0.473855
0.471934
0.470238
0.471605
0.463844
0.4565
0.449839
0.444154
0.439836
0.437468
0.437826
0.44224
0.453337
0.473255
0.499868
0.501291
0.522119
0.548854
0.565622
0.571308
0.568786
0.559998
0.549282
0.548827
0.585068
0.636499
0.689129
0.735735
0.785477
0.513748
0.509158
0.50624
0.504821
0.505181
0.50815
0.514248
0.526605
0.55176
0.588543
0.596647
0.652604
0.723015
0.749108
0.739373
0.711061
0.690526
0.669003
0.686524
0.835202
1.14131
1.94875
2.19808
2.43154
2.68005
0.705799
0.705966
0.705129
0.704052
0.703964
0.707154
0.720591
0.752006
0.742437
0.795524
0.90735
0.96599
0.978653
0.990816
1.03289
0.984828
1.06753
1.19044
1.8915
2.81699
2.92315
2.3342
2.72418
2.81614
0.923608
0.92538
0.926956
0.929242
0.933334
0.940602
0.954836
0.987264
0.985882
1.06874
1.14146
1.09811
0.790754
1.28902
1.2798
1.37116
1.4045
1.48172
0.926882
0.927074
0.929593
0.936024
0.948781
0.972672
1.02016
1.03719
1.14177
1.24639
1.12874
0.481095
0.91062
0.766644
0.957364
1.10959
1.15305
0.259134
0.608031
0.730776
0.738154
1.11092
1.40046
1.33431
1.72338
1.82865
2.00547
2.20056
2.36736
1.03406
1.12786
1.23342
1.34591
0.456552
0.457066
0.457613
0.45833
0.458917
0.458591
0.457161
0.454775
0.451602
0.447791
0.443703
0.439822
0.435678
0.431316
0.427166
0.423234
0.419564
0.427815
0.430647
0.433516
0.436135
0.438245
0.439632
0.440118
0.439613
0.438357
0.436566
0.434451
0.432152
0.429569
0.426713
0.423612
0.420302
0.416852
0.413344
0.39098
0.393673
0.396625
0.399644
0.40248
0.404912
0.406804
0.40811
0.408741
0.408805
0.408406
0.407539
0.406206
0.40446
0.402313
0.399811
0.397018
0.393975
0.362811
0.364226
0.366004
0.367921
0.369845
0.371641
0.373205
0.374469
0.375357
0.375839
0.375923
0.375529
0.374781
0.373665
0.37219
0.370389
0.368314
0.366017
0.343857
0.344055
0.344513
0.345156
0.345899
0.346639
0.347291
0.347791
0.348095
0.348171
0.347967
0.347541
0.346899
0.346024
0.344915
0.343586
0.342066
0.34039
0.330856
0.330376
0.330044
0.329832
0.329698
0.329593
0.329467
0.329282
0.329006
0.328618
0.32809
0.327461
0.326718
0.325847
0.324846
0.32372
0.322483
0.321151
0.321184
0.320378
0.319656
0.319005
0.318402
0.317825
0.317246
0.316646
0.316005
0.31531
0.314557
0.313755
0.312896
0.311973
0.310984
0.30993
0.308817
0.307654
0.313751
0.312781
0.311865
0.310992
0.310152
0.30933
0.308514
0.307691
0.30685
0.305983
0.305096
0.304186
0.30325
0.302284
0.301286
0.300255
0.299196
0.29811
0.30813
0.307061
0.30603
0.305031
0.304055
0.303096
0.302145
0.301195
0.300239
0.299273
0.298303
0.297325
0.296337
0.295338
0.294325
0.2933
0.292261
0.291213
0.304028
0.30289
0.301781
0.300698
0.299634
0.298585
0.297546
0.296512
0.29548
0.294447
0.293417
0.292388
0.291359
0.290328
0.289295
0.28826
0.287223
0.286183
0.30112
0.29993
0.298765
0.29762
0.296493
0.295379
0.294277
0.293182
0.292093
0.291008
0.28993
0.288857
0.28779
0.286728
0.285669
0.284616
0.283566
0.282521
0.29909
0.297862
0.296654
0.295464
0.294289
0.293128
0.291977
0.290835
0.289701
0.288573
0.287455
0.286345
0.285243
0.284149
0.283064
0.281986
0.280918
0.279857
0.297679
0.296421
0.295181
0.293957
0.292746
0.291547
0.290359
0.28918
0.28801
0.286848
0.285696
0.284553
0.28342
0.282298
0.281186
0.280085
0.278994
0.277915
0.296694
0.295413
0.294149
0.292898
0.29166
0.290432
0.289215
0.288007
0.286808
0.285617
0.284437
0.283267
0.282107
0.280959
0.279823
0.278699
0.277588
0.276488
0.296
0.294702
0.293418
0.292147
0.290887
0.289637
0.288397
0.287166
0.285943
0.28473
0.283526
0.282333
0.281152
0.279982
0.278825
0.277681
0.27655
0.275433
0.295506
0.294195
0.292896
0.291609
0.290332
0.289065
0.287806
0.286556
0.285315
0.284083
0.282861
0.281649
0.280449
0.279262
0.278087
0.276926
0.275779
0.274645
0.295152
0.29383
0.29252
0.29122
0.289929
0.288648
0.287375
0.286111
0.284855
0.283608
0.282371
0.281144
0.27993
0.278727
0.277538
0.276363
0.275202
0.274055
0.294898
0.293567
0.292248
0.290938
0.289638
0.288345
0.287061
0.285785
0.284518
0.283259
0.282011
0.280773
0.279546
0.278332
0.277131
0.275945
0.274772
0.273615
0.294717
0.293381
0.292054
0.290737
0.289429
0.288128
0.286836
0.285552
0.284275
0.283008
0.28175
0.280503
0.279268
0.278045
0.276835
0.27564
0.274459
0.273293
0.294595
0.293254
0.291923
0.2906
0.289286
0.28798
0.286682
0.285391
0.284109
0.282835
0.281571
0.280318
0.279076
0.277846
0.27663
0.275428
0.27424
0.273068
0.294519
0.293175
0.29184
0.290515
0.289197
0.287888
0.286585
0.285291
0.284004
0.282727
0.281459
0.280201
0.278955
0.277721
0.2765
0.275294
0.274102
0.272925
0.294483
0.293138
0.291802
0.290475
0.289155
0.287844
0.286539
0.285243
0.283954
0.282674
0.281404
0.280144
0.278895
0.277659
0.276436
0.275227
0.274033
0.272854
0.3071
0.305624
0.304167
0.302727
0.301304
0.299897
0.298505
0.297127
0.295762
0.294409
0.293067
0.291734
0.29041
0.289094
0.287785
0.286484
0.28519
0.283904
0.282626
0.281357
0.280097
0.278848
0.277611
0.276386
0.307129
0.305653
0.304195
0.302755
0.301332
0.299926
0.298535
0.297159
0.295795
0.294444
0.293103
0.291773
0.290451
0.289137
0.28783
0.286532
0.28524
0.283956
0.28268
0.281413
0.280156
0.27891
0.277675
0.276452
0.307198
0.305722
0.304264
0.302825
0.301403
0.299997
0.298608
0.297233
0.295872
0.294524
0.293186
0.291859
0.29054
0.28923
0.287928
0.286632
0.285345
0.284065
0.282793
0.28153
0.280277
0.279035
0.277804
0.276586
0.307309
0.305832
0.304375
0.302936
0.301515
0.300111
0.298725
0.297353
0.295996
0.294651
0.293319
0.291996
0.290683
0.289379
0.288082
0.286793
0.285512
0.284238
0.282973
0.281716
0.28047
0.279234
0.27801
0.276799
0.307475
0.305997
0.304539
0.303101
0.301682
0.300281
0.298898
0.29753
0.296178
0.29484
0.293513
0.292198
0.290893
0.289596
0.288308
0.287027
0.285755
0.28449
0.283234
0.281986
0.280749
0.279522
0.278308
0.277105
0.307707
0.306228
0.304771
0.303334
0.301917
0.30052
0.299141
0.297779
0.296433
0.295102
0.293785
0.292479
0.291183
0.289897
0.28862
0.287351
0.28609
0.284837
0.283593
0.282357
0.281132
0.279918
0.278715
0.277525
0.308027
0.306548
0.305091
0.303656
0.302242
0.30085
0.299476
0.298122
0.296785
0.295463
0.294156
0.292862
0.29158
0.290308
0.289044
0.28779
0.286544
0.285306
0.284077
0.282857
0.281647
0.280448
0.279261
0.278086
0.308469
0.30699
0.305535
0.304102
0.302693
0.301306
0.299941
0.298596
0.297269
0.29596
0.294667
0.293388
0.292122
0.290867
0.289622
0.288386
0.287159
0.28594
0.28473
0.28353
0.282339
0.281159
0.279991
0.278834
0.309088
0.30761
0.306157
0.30473
0.303327
0.301948
0.300593
0.299259
0.297947
0.296654
0.295378
0.294119
0.292873
0.29164
0.290418
0.289205
0.288002
0.286807
0.285621
0.284444
0.283278
0.282121
0.280976
0.279842
0.309967
0.308493
0.307045
0.305625
0.304231
0.302863
0.301521
0.300204
0.298909
0.297637
0.296384
0.295149
0.29393
0.292725
0.291531
0.290349
0.289175
0.28801
0.286854
0.285706
0.284569
0.283441
0.282323
0.281216
0.311231
0.309763
0.308324
0.306915
0.305534
0.304182
0.302858
0.301562
0.300291
0.299046
0.297822
0.29662
0.295435
0.294266
0.29311
0.291965
0.29083
0.289703
0.288582
0.287471
0.286369
0.285275
0.284189
0.283113
0.313062
0.311606
0.310181
0.308787
0.307425
0.306095
0.304795
0.303527
0.302288
0.301078
0.299894
0.298734
0.297595
0.296473
0.295366
0.29427
0.293183
0.292103
0.291028
0.289961
0.288901
0.287848
0.2868
0.285758
0.31572
0.314281
0.312875
0.311504
0.310166
0.308864
0.307597
0.306366
0.305169
0.304005
0.302874
0.301771
0.300692
0.299634
0.298591
0.29756
0.296536
0.295517
0.294498
0.293486
0.292478
0.291472
0.290467
0.289462
0.319551
0.318131
0.316749
0.315403
0.314097
0.312829
0.311602
0.310417
0.309274
0.308172
0.30711
0.306083
0.305087
0.304116
0.303162
0.302219
0.30128
0.300341
0.299397
0.298455
0.297512
0.296564
0.29561
0.294646
0.324942
0.323541
0.322182
0.320864
0.31959
0.318363
0.317184
0.316057
0.314983
0.313964
0.312998
0.31208
0.311204
0.310359
0.309534
0.30872
0.307905
0.307083
0.306247
0.305404
0.304551
0.303683
0.302794
0.301879
0.332242
0.330857
0.329518
0.328228
0.326991
0.325812
0.324695
0.323647
0.322672
0.321775
0.320957
0.320211
0.319526
0.318888
0.318275
0.317671
0.317059
0.316427
0.315766
0.315083
0.314375
0.313631
0.31284
0.311995
0.341703
0.340343
0.339039
0.337797
0.336623
0.335525
0.334515
0.333604
0.332803
0.332123
0.331567
0.331131
0.330795
0.330529
0.330296
0.330062
0.329803
0.329499
0.329136
0.328718
0.328249
0.327707
0.32707
0.326324
0.353879
0.352587
0.351365
0.350224
0.349175
0.348234
0.347421
0.346761
0.346278
0.345996
0.345925
0.346055
0.34635
0.346749
0.347175
0.347569
0.347889
0.348113
0.348221
0.348208
0.348092
0.347835
0.347399
0.346763
0.369965
0.368799
0.36773
0.366776
0.365959
0.365309
0.364862
0.36466
0.364752
0.365178
0.365949
0.367031
0.368345
0.369755
0.371099
0.37231
0.373344
0.374178
0.374791
0.375157
0.375325
0.375262
0.374937
0.37433
0.373415
0.391346
0.390474
0.38973
0.389144
0.388756
0.388616
0.388789
0.389337
0.390327
0.391805
0.393698
0.395867
0.398185
0.400485
0.402604
0.404432
0.405928
0.407093
0.407926
0.408414
0.40863
0.408523
0.408038
0.407142
0.405849
0.420302
0.420024
0.419805
0.419778
0.419993
0.420526
0.421445
0.422724
0.424415
0.426536
0.429056
0.431853
0.434723
0.437421
0.439715
0.441456
0.442624
0.443273
0.443402
0.443206
0.442785
0.442034
0.440856
0.439154
0.436896
0.4553
0.455577
0.4559
0.456219
0.456587
0.457106
0.457825
0.458809
0.460102
0.461709
0.463606
0.465737
0.467873
0.469806
0.471243
0.471809
0.471425
0.470215
0.468336
0.466226
0.464422
0.462715
0.460602
0.458005
0.455064
0.476913
0.475723
0.474592
0.473615
0.472919
0.472621
0.472886
0.473348
0.474184
0.475774
0.478771
0.483124
0.487665
0.492266
0.495572
0.49748
0.498217
0.497305
0.494756
0.491618
0.489669
0.488637
0.487058
0.484664
0.482067
0.47906
0.474219
0.469795
0.465953
0.462887
0.460586
0.459489
0.461028
0.466113
0.477404
0.495267
0.49641
0.509739
0.531314
0.552433
0.565751
0.569636
0.566552
0.557425
0.545852
0.53693
0.534985
0.542041
0.55189
0.565882
0.584945
0.510946
0.503117
0.49706
0.49282
0.490642
0.491087
0.495307
0.506527
0.535849
0.540328
0.572115
0.634021
0.694921
0.710495
0.702544
0.664528
0.619996
0.577768
0.545554
0.5434
0.560832
0.715162
1.03317
1.21721
1.42171
0.648234
0.641669
0.636444
0.633176
0.633132
0.638637
0.65461
0.645936
0.675163
0.746879
0.829607
0.916409
1.01891
0.984561
1.80564
3.04939
3.97878
3.46641
3.47391
0.827179
0.802677
0.777498
0.751932
0.727382
0.711371
0.697823
0.712948
0.758911
0.829364
0.880341
0.474505
0.832485
1.25121
1.40928
2.07502
1.02692
1.00886
0.994847
0.986308
0.983736
0.981211
0.974199
0.996035
1.019
0.881885
0.322844
0.780741
1.03948
1.10922
0.307704
0.488595
0.869942
1.29102
1.24402
1.52926
1.81555
1.58125
1.68565
0.907135
0.874146
0.918521
0.976519
0.74221
0.740673
0.741808
0.746423
0.459223
0.460818
0.462678
0.464558
0.466172
0.467055
0.466764
0.465458
0.463355
0.460725
0.458134
0.456253
0.454831
0.453244
0.451284
0.448963
0.4464
0.42655
0.428934
0.431548
0.434184
0.436584
0.438496
0.439763
0.440358
0.440246
0.439709
0.438979
0.438274
0.437389
0.436205
0.43465
0.432672
0.430168
0.427475
0.392161
0.394067
0.396225
0.398498
0.400706
0.402672
0.404279
0.405492
0.406316
0.4068
0.406983
0.406928
0.406599
0.405947
0.404937
0.403576
0.401867
0.399802
0.365366
0.366192
0.367325
0.368673
0.37007
0.371371
0.372499
0.373413
0.374093
0.374527
0.374737
0.374747
0.374535
0.374073
0.373348
0.372322
0.370981
0.369373
0.346022
0.34599
0.346161
0.346494
0.346918
0.34735
0.347724
0.347997
0.348146
0.348149
0.348059
0.34786
0.34752
0.347006
0.346295
0.345383
0.344279
0.343005
0.332116
0.331581
0.331166
0.330853
0.330606
0.330384
0.330151
0.329878
0.329546
0.32914
0.328692
0.328187
0.327606
0.326929
0.326143
0.325246
0.324243
0.323148
0.321783
0.320974
0.320239
0.319567
0.318939
0.318335
0.317734
0.317119
0.316478
0.315803
0.315109
0.314386
0.313625
0.312816
0.311951
0.311028
0.31005
0.309021
0.313999
0.313037
0.312125
0.311255
0.310415
0.309595
0.308783
0.307968
0.307142
0.306303
0.305457
0.3046
0.303724
0.302826
0.301902
0.300949
0.299969
0.298965
0.308231
0.307171
0.306147
0.305154
0.304185
0.303233
0.302291
0.301352
0.300411
0.299468
0.298525
0.29758
0.29663
0.295672
0.294703
0.293724
0.292734
0.291732
0.304083
0.302952
0.30185
0.300772
0.299715
0.298673
0.297641
0.296617
0.295596
0.294579
0.293566
0.292557
0.291551
0.290544
0.289538
0.28853
0.287521
0.286511
0.301168
0.299984
0.298824
0.297684
0.296562
0.295454
0.294358
0.29327
0.292189
0.291114
0.290047
0.288986
0.287933
0.286885
0.285842
0.284804
0.283772
0.282743
0.299144
0.29792
0.296716
0.29553
0.29436
0.293203
0.292056
0.290919
0.289791
0.28867
0.287558
0.286455
0.285361
0.284276
0.2832
0.282133
0.281073
0.280023
0.297739
0.296485
0.295248
0.294027
0.29282
0.291625
0.29044
0.289265
0.288098
0.28694
0.285792
0.284654
0.283526
0.282409
0.281302
0.280206
0.279122
0.278047
0.296757
0.29548
0.294218
0.29297
0.291734
0.290509
0.289294
0.288089
0.286892
0.285705
0.284527
0.28336
0.282203
0.281058
0.279925
0.278805
0.277696
0.2766
0.296062
0.294766
0.293485
0.292216
0.290958
0.28971
0.288472
0.287242
0.286021
0.284809
0.283608
0.282417
0.281237
0.280069
0.278913
0.277771
0.276642
0.275526
0.295562
0.294253
0.292956
0.29167
0.290394
0.289128
0.287871
0.286622
0.285382
0.284151
0.28293
0.28172
0.280521
0.279334
0.27816
0.276999
0.275852
0.27472
0.295197
0.293877
0.292568
0.291269
0.28998
0.288699
0.287427
0.286163
0.284908
0.283662
0.282425
0.281199
0.279985
0.278782
0.277593
0.276418
0.275257
0.27411
0.294931
0.293602
0.292283
0.290974
0.289674
0.288383
0.287099
0.285823
0.284556
0.283298
0.282049
0.280811
0.279584
0.27837
0.277169
0.275982
0.274809
0.273651
0.29474
0.293404
0.292078
0.290761
0.289453
0.288153
0.286861
0.285577
0.284301
0.283033
0.281775
0.280528
0.279292
0.278069
0.276858
0.275662
0.27448
0.273313
0.29461
0.29327
0.291939
0.290617
0.289303
0.287997
0.286698
0.285407
0.284125
0.282851
0.281586
0.280332
0.27909
0.27786
0.276643
0.27544
0.274251
0.273078
0.29453
0.293186
0.291852
0.290526
0.289209
0.287899
0.286597
0.285302
0.284015
0.282737
0.281469
0.28021
0.278963
0.277729
0.276507
0.2753
0.274107
0.272929
0.294493
0.293147
0.291811
0.290484
0.289165
0.287853
0.286548
0.285251
0.283962
0.282682
0.281411
0.280151
0.278901
0.277664
0.27644
0.27523
0.274034
0.272854
0.307106
0.305633
0.304177
0.302738
0.301316
0.299911
0.29852
0.297143
0.295779
0.294427
0.293085
0.291752
0.290428
0.289113
0.287804
0.286503
0.285209
0.283922
0.282643
0.281373
0.280113
0.278863
0.277624
0.276398
0.307138
0.305664
0.304208
0.302769
0.301348
0.299943
0.298554
0.297178
0.295816
0.294465
0.293125
0.291795
0.290474
0.28916
0.287854
0.286555
0.285263
0.283979
0.282702
0.281435
0.280177
0.278929
0.277693
0.276469
0.307214
0.30574
0.304284
0.302846
0.301426
0.300022
0.298635
0.297261
0.295902
0.294554
0.293218
0.291891
0.290573
0.289263
0.287961
0.286666
0.285378
0.284098
0.282826
0.281563
0.280309
0.279066
0.277834
0.276615
0.307337
0.305863
0.304408