/*--------------------------------*- C++ -*----------------------------------*\
  =========                 |
  \\      /  F ield         | OpenFOAM: The Open Source CFD Toolbox
   \\    /   O peration     | Website:  https://openfoam.org
    \\  /    A nd           | Version:  13
     \\/     M anipulation  |
\*---------------------------------------------------------------------------*/
FoamFile
{
    format      ascii;
    class       volScalarField;
    location    "1000";
    object      nut;
}
// * * * * * * * * * * * * * * * * * * * * * * * * * * * * * * * * * * * * * //

dimensions      [0 2 -1 0 0 0 0];

internalField   nonuniform List<scalar> 
171745
(
0.018724
0.0187106
0.0186973
0.0186842
0.0186711
0.0186582
0.0186454
0.0186326
0.0186199
0.0186071
0.0185944
0.0185816
0.0185688
0.0185559
0.0185429
0.0185298
0.0185167
0.0185034
0.0184902
0.0184769
0.0184636
0.0184504
0.0184373
0.0184243
0.018725
0.0187116
0.0186983
0.0186851
0.0186721
0.0186592
0.0186464
0.0186337
0.018621
0.0186083
0.0185956
0.0185829
0.0185701
0.0185573
0.0185443
0.0185313
0.0185182
0.0185051
0.0184919
0.0184787
0.0184655
0.0184524
0.0184393
0.0184264
0.0187271
0.0187137
0.0187004
0.0186873
0.0186743
0.0186614
0.0186487
0.018636
0.0186234
0.0186108
0.0185982
0.0185856
0.0185729
0.0185601
0.0185473
0.0185344
0.0185215
0.0185084
0.0184954
0.0184823
0.0184692
0.0184562
0.0184433
0.0184305
0.0187305
0.0187171
0.0187038
0.0186907
0.0186778
0.018665
0.0186523
0.0186397
0.0186272
0.0186147
0.0186023
0.0185898
0.0185773
0.0185647
0.0185521
0.0185394
0.0185266
0.0185138
0.0185009
0.018488
0.0184752
0.0184624
0.0184497
0.0184371
0.0187355
0.0187221
0.0187088
0.0186957
0.0186829
0.0186701
0.0186576
0.0186451
0.0186328
0.0186205
0.0186083
0.018596
0.0185837
0.0185714
0.018559
0.0185466
0.0185341
0.0185215
0.018509
0.0184964
0.0184838
0.0184713
0.0184589
0.0184466
0.0187425
0.0187291
0.0187159
0.0187029
0.0186901
0.0186775
0.0186651
0.0186528
0.0186407
0.0186286
0.0186167
0.0186047
0.0185927
0.0185808
0.0185687
0.0185566
0.0185445
0.0185323
0.0185201
0.0185079
0.0184957
0.0184836
0.0184716
0.0184597
0.0187522
0.0187388
0.0187257
0.0187128
0.0187001
0.0186877
0.0186755
0.0186635
0.0186516
0.0186399
0.0186283
0.0186167
0.0186052
0.0185936
0.018582
0.0185704
0.0185588
0.0185471
0.0185353
0.0185236
0.0185119
0.0185003
0.0184888
0.0184774
0.0187657
0.0187524
0.0187394
0.0187266
0.0187142
0.018702
0.0186901
0.0186784
0.0186669
0.0186556
0.0186444
0.0186334
0.0186224
0.0186114
0.0186004
0.0185894
0.0185783
0.0185672
0.0185561
0.018545
0.0185339
0.0185229
0.018512
0.0185012
0.0187847
0.0187715
0.0187586
0.0187461
0.0187339
0.0187221
0.0187106
0.0186993
0.0186884
0.0186776
0.0186671
0.0186566
0.0186463
0.0186361
0.0186258
0.0186156
0.0186053
0.018595
0.0185847
0.0185743
0.018564
0.0185538
0.0185436
0.0185335
0.0188114
0.0187985
0.0187859
0.0187738
0.018762
0.0187506
0.0187397
0.018729
0.0187187
0.0187087
0.018699
0.0186894
0.0186801
0.0186707
0.0186615
0.0186522
0.018643
0.0186337
0.0186243
0.0186149
0.0186056
0.0185962
0.0185869
0.0185777
0.0188496
0.018837
0.0188249
0.0188133
0.0188021
0.0187914
0.0187812
0.0187714
0.018762
0.018753
0.0187443
0.0187359
0.0187277
0.0187197
0.0187117
0.0187038
0.0186958
0.0186877
0.0186796
0.0186714
0.0186632
0.0186549
0.0186467
0.0186385
0.018904
0.0188921
0.0188806
0.0188697
0.0188593
0.0188495
0.0188402
0.0188315
0.0188233
0.0188156
0.0188084
0.0188015
0.0187949
0.0187885
0.0187822
0.0187759
0.0187696
0.0187631
0.0187565
0.0187497
0.0187429
0.0187359
0.0187288
0.0187216
0.018981
0.0189697
0.0189591
0.018949
0.0189396
0.0189308
0.0189227
0.0189153
0.0189085
0.0189024
0.0188969
0.0188919
0.0188873
0.018883
0.0188788
0.0188747
0.0188704
0.0188659
0.0188611
0.018856
0.0188507
0.0188452
0.0188393
0.0188331
0.0190856
0.019075
0.019065
0.0190556
0.019047
0.0190392
0.0190321
0.0190259
0.0190206
0.0190161
0.0190124
0.0190095
0.0190072
0.0190053
0.0190036
0.019002
0.0190002
0.0189981
0.0189956
0.0189925
0.018989
0.018985
0.0189804
0.0189753
0.0192152
0.0192044
0.0191942
0.0191847
0.0191761
0.0191683
0.0191615
0.0191558
0.0191512
0.0191477
0.0191455
0.0191443
0.0191441
0.0191446
0.0191455
0.0191466
0.0191477
0.0191484
0.0191487
0.0191482
0.019147
0.0191449
0.0191418
0.0191377
0.0193441
0.0193313
0.0193193
0.0193079
0.0192974
0.0192878
0.0192793
0.0192721
0.0192664
0.0192623
0.0192599
0.0192591
0.0192596
0.0192611
0.0192631
0.0192655
0.0192679
0.0192703
0.0192727
0.019275
0.0192762
0.019276
0.0192743
0.0192711
0.0194061
0.0193893
0.019373
0.0193573
0.0193421
0.0193278
0.0193144
0.0193024
0.0192917
0.0192823
0.0192741
0.0192667
0.0192595
0.0192517
0.0192431
0.0192337
0.0192242
0.0192156
0.0192094
0.0192066
0.0192069
0.0192058
0.0192031
0.0191988
0.0192933
0.0192702
0.0192466
0.0192224
0.0191975
0.0191718
0.0191449
0.0191163
0.019085
0.0190497
0.0190082
0.0189579
0.0188967
0.0188239
0.0187413
0.0186528
0.018564
0.0184812
0.0184111
0.0183595
0.0183317
0.0183202
0.0183109
0.0183037
0.0188576
0.0188197
0.0187773
0.0187293
0.0186739
0.0186085
0.01853
0.0184336
0.0183135
0.0181623
0.0179721
0.017073
0.0161732
0.0157139
0.0156029
0.0157121
0.0159353
0.0158771
0.0156431
0.0154619
0.0153412
0.0152932
0.0152922
0.0153042
0.0153284
0.0178202
0.0177231
0.0176039
0.017458
0.0172795
0.0170612
0.0167947
0.0164708
0.0159668
0.0142999
0.0130089
0.0120924
0.0115278
0.0112669
0.0112318
0.0112988
0.0113838
0.0111654
0.0108452
0.0105928
0.0104091
0.0102951
0.0102626
0.0103045
0.0103672
0.0153927
0.0150612
0.0146835
0.0142611
0.013795
0.0132858
0.0126185
0.0113767
0.0102677
0.00934179
0.00862545
0.00812353
0.00782464
0.00770015
0.00768098
0.00747871
0.00716784
0.00691016
0.00669722
0.00652367
0.00638647
0.00628669
0.00622417
0.00620179
0.00623383
0.010157
0.00963906
0.00914256
0.00866973
0.00821997
0.00779077
0.00737886
0.00698108
0.0065467
0.00611486
0.00577127
0.00552952
0.00528652
0.00506106
0.0048851
0.00475136
0.00464776
0.00456089
0.00447992
0.00440012
0.0043177
0.00424943
0.00420238
0.00417644
0.00416924
0.00490081
0.00468726
0.00449934
0.0043339
0.004188
0.00405912
0.00394538
0.00384559
0.00375979
0.00369018
0.00364273
0.00362567
0.0036394
0.00366731
0.00371717
0.00377702
0.00382074
0.00381789
0.00375644
0.00365433
0.00351107
0.00345246
0.0034528
0.00349107
0.00355408
0.00275119
0.00274035
0.00274071
0.00275243
0.00277492
0.0028083
0.00285381
0.00291107
0.00298276
0.00307592
0.0032046
0.0033784
0.00357038
0.00360464
0.00375774
0.00394141
0.00405948
0.00395409
0.00363883
0.00331417
0.00290383
0.00309801
0.0030823
0.00305771
0.0030831
0.00310649
0.0026588
0.00276091
0.00286734
0.00297719
0.00308951
0.00320533
0.00332571
0.00345818
0.00361695
0.00383446
0.00409539
0.00414727
0.00437054
0.00457625
0.00443126
0.00391672
0.0028665
0.00244155
0.00243007
0.00268758
0.00291357
0.00362234
0.00416349
0.00490309
0.00606364
0.00350702
0.00365355
0.00380097
0.00394942
0.00409911
0.0042524
0.00441896
0.00462266
0.00489506
0.00493808
0.00395269
0.00429587
0.00463668
0.00408112
0.0018757
0.00167134
0.00134773
0.00252294
0.00485063
0.00752325
0.00937521
0.00950656
0.00968346
0.0104941
0.00457905
0.00477059
0.00495687
0.00513941
0.00531678
0.00549049
0.00566592
0.00586041
0.00474952
0.0053019
0.00285806
0.00318705
0.00188133
0.00175198
0.000646096
0.000958551
0.00182595
0.00621415
0.00764993
0.00896094
0.00871706
0.00871745
0.0089498
0.00922539
0.00622969
0.00640582
0.00657569
0.00660243
0.00628904
0.00576349
0.00498259
0.00404248
0.00597237
0.00293787
0.00355823
0.00134438
0.000314542
0.0025343
0.00784133
0.0071707
0.00687406
0.0068709
0.00729974
0.00767212
0.005724
0.00687856
0.00647686
0.00640294
0.00661122
0.00691775
0.00699832
0.00206104
0.00275574
0.00338149
0.00409595
0.00534324
0.00341625
0.0032625
0.00330963
0.00338082
0.00599866
0.00567243
0.0053778
0.00512532
0.00491851
0.00475973
0.0046418
0.00455331
0.00448277
0.00442107
0.00436328
0.00430252
0.00425103
0.00421551
0.00419662
0.00419328
0.00421624
0.00918129
0.0085006
0.00803177
0.00777182
0.00770153
0.00762912
0.00728221
0.0069989
0.00676836
0.00658218
0.00643479
0.00632248
0.00624522
0.0062022
0.00620627
0.00626058
0.00633536
0.00642747
0.0140641
0.0128331
0.0119703
0.0114639
0.0112804
0.0113561
0.0115649
0.0113303
0.0109799
0.0106981
0.010484
0.0103374
0.0102583
0.0102699
0.0103237
0.0103979
0.0104907
0.0105999
0.0180177
0.017808
0.0168636
0.0160337
0.015664
0.0156808
0.0159643
0.0159717
0.0157168
0.0155103
0.0153602
0.0152721
0.0152639
0.0152697
0.0152888
0.0153198
0.0153615
0.0154125
0.0190009
0.018953
0.0188957
0.0188273
0.0187481
0.0186606
0.0185697
0.0184818
0.0184035
0.0183409
0.0182992
0.0182849
0.0182744
0.0182664
0.0182608
0.0182576
0.0182568
0.0182582
0.019266
0.0192566
0.0192479
0.0192392
0.01923
0.01922
0.0192095
0.0191994
0.0191909
0.0191853
0.0191837
0.0191829
0.0191807
0.0191772
0.0191721
0.0191658
0.0191583
0.0191502
0.0192576
0.0192551
0.0192542
0.0192546
0.019256
0.0192579
0.01926
0.0192622
0.0192644
0.0192666
0.0192683
0.0192687
0.0192678
0.0192653
0.0192613
0.0192558
0.019249
0.019241
0.0191475
0.0191453
0.0191443
0.0191441
0.0191447
0.0191456
0.0191468
0.0191477
0.0191483
0.0191484
0.0191476
0.019146
0.0191435
0.0191399
0.0191353
0.0191296
0.019123
0.0191157
0.0190176
0.019014
0.0190112
0.0190089
0.0190071
0.0190054
0.0190037
0.0190019
0.0189997
0.0189971
0.0189939
0.0189903
0.0189861
0.0189813
0.0189759
0.0189699
0.0189634
0.0189565
0.0189046
0.0188991
0.0188941
0.0188896
0.0188853
0.0188811
0.0188769
0.0188726
0.018868
0.0188631
0.018858
0.0188527
0.018847
0.0188411
0.0188349
0.0188283
0.0188215
0.0188145
0.018818
0.0188107
0.0188039
0.0187973
0.0187909
0.0187846
0.0187783
0.0187719
0.0187654
0.0187587
0.0187519
0.018745
0.018738
0.0187309
0.0187237
0.0187164
0.018709
0.0187016
0.0187554
0.0187467
0.0187383
0.0187301
0.0187221
0.018714
0.0187061
0.018698
0.0186899
0.0186818
0.0186736
0.0186653
0.0186571
0.0186489
0.0186407
0.0186325
0.0186243
0.0186162
0.0187112
0.0187014
0.0186918
0.0186824
0.018673
0.0186637
0.0186544
0.0186451
0.0186358
0.0186264
0.018617
0.0186076
0.0185983
0.0185891
0.0185799
0.0185708
0.0185619
0.018553
0.01868
0.0186694
0.018659
0.0186486
0.0186383
0.018628
0.0186177
0.0186073
0.018597
0.0185866
0.0185763
0.018566
0.0185557
0.0185456
0.0185356
0.0185257
0.018516
0.0185064
0.0186579
0.0186467
0.0186356
0.0186245
0.0186135
0.0186024
0.0185913
0.0185802
0.0185691
0.0185579
0.0185468
0.0185357
0.0185247
0.0185138
0.0185031
0.0184925
0.0184821
0.0184719
0.0186421
0.0186305
0.0186188
0.0186072
0.0185956
0.0185839
0.0185722
0.0185605
0.0185488
0.018537
0.0185252
0.0185136
0.0185019
0.0184905
0.0184791
0.0184679
0.018457
0.0184462
0.0186307
0.0186187
0.0186067
0.0185946
0.0185826
0.0185705
0.0185583
0.0185461
0.0185339
0.0185216
0.0185094
0.0184972
0.0184851
0.0184731
0.0184613
0.0184496
0.0184382
0.0184269
0.0186225
0.0186102
0.0185979
0.0185855
0.0185731
0.0185607
0.0185481
0.0185356
0.018523
0.0185103
0.0184977
0.0184852
0.0184727
0.0184603
0.0184481
0.018436
0.0184242
0.0184126
0.0186166
0.0186041
0.0185916
0.018579
0.0185663
0.0185536
0.0185408
0.018528
0.0185151
0.0185022
0.0184893
0.0184764
0.0184636
0.018451
0.0184385
0.0184261
0.018414
0.0184021
0.0186126
0.0185999
0.0185872
0.0185745
0.0185616
0.0185487
0.0185358
0.0185227
0.0185097
0.0184965
0.0184834
0.0184704
0.0184574
0.0184445
0.0184318
0.0184192
0.0184069
0.0183947
0.0186101
0.0185973
0.0185845
0.0185717
0.0185587
0.0185457
0.0185326
0.0185195
0.0185063
0.018493
0.0184798
0.0184666
0.0184535
0.0184404
0.0184276
0.0184149
0.0184024
0.0183901
0.0186089
0.0185961
0.0185832
0.0185703
0.0185573
0.0185442
0.0185311
0.0185179
0.0185046
0.0184913
0.018478
0.0184647
0.0184515
0.0184384
0.0184255
0.0184127
0.0184001
0.0183878
0.018724
0.0187106
0.0186974
0.0186842
0.0186712
0.0186583
0.0186455
0.0186327
0.01862
0.0186073
0.0185945
0.0185818
0.0185689
0.018556
0.0185431
0.01853
0.0185168
0.0185036
0.0184904
0.0184771
0.0184638
0.0184506
0.0184375
0.0184245
0.018725
0.0187116
0.0186984
0.0186852
0.0186722
0.0186593
0.0186465
0.0186338
0.0186211
0.0186085
0.0185958
0.0185831
0.0185703
0.0185575
0.0185446
0.0185316
0.0185185
0.0185054
0.0184922
0.018479
0.0184658
0.0184526
0.0184396
0.0184267
0.0187273
0.0187138
0.0187006
0.0186875
0.0186745
0.0186616
0.0186489
0.0186362
0.0186237
0.0186111
0.0185985
0.0185859
0.0185733
0.0185605
0.0185477
0.0185348
0.0185219
0.0185089
0.0184958
0.0184827
0.0184697
0.0184567
0.0184438
0.018431
0.0187308
0.0187174
0.0187042
0.0186911
0.0186782
0.0186654
0.0186527
0.0186402
0.0186277
0.0186153
0.0186029
0.0185904
0.018578
0.0185654
0.0185528
0.0185401
0.0185274
0.0185145
0.0185017
0.0184888
0.018476
0.0184632
0.0184505
0.018438
0.0187361
0.0187227
0.0187094
0.0186964
0.0186836
0.0186709
0.0186584
0.018646
0.0186337
0.0186214
0.0186092
0.018597
0.0185848
0.0185725
0.0185602
0.0185478
0.0185353
0.0185228
0.0185102
0.0184976
0.0184851
0.0184726
0.0184602
0.018448
0.0187434
0.01873
0.0187168
0.0187039
0.0186911
0.0186786
0.0186662
0.018654
0.018642
0.01863
0.018618
0.0186061
0.0185942
0.0185823
0.0185703
0.0185583
0.0185462
0.018534
0.0185219
0.0185097
0.0184976
0.0184855
0.0184735
0.0184616
0.0187533
0.01874
0.0187269
0.018714
0.0187015
0.0186891
0.018677
0.018665
0.0186533
0.0186416
0.01863
0.0186185
0.0186071
0.0185956
0.018584
0.0185725
0.0185609
0.0185492
0.0185376
0.0185259
0.0185143
0.0185027
0.0184912
0.0184799
0.0187669
0.0187537
0.0187407
0.018728
0.0187156
0.0187036
0.0186917
0.0186801
0.0186687
0.0186575
0.0186464
0.0186354
0.0186245
0.0186136
0.0186027
0.0185917
0.0185807
0.0185697
0.0185587
0.0185477
0.0185367
0.0185257
0.0185149
0.0185042
0.0187858
0.0187727
0.01876
0.0187475
0.0187354
0.0187237
0.0187123
0.0187011
0.0186903
0.0186796
0.0186691
0.0186588
0.0186486
0.0186384
0.0186283
0.0186181
0.0186079
0.0185977
0.0185875
0.0185773
0.0185671
0.0185569
0.0185469
0.0185369
0.0188125
0.0187996
0.0187872
0.0187751
0.0187635
0.0187522
0.0187413
0.0187308
0.0187206
0.0187107
0.0187011
0.0186916
0.0186824
0.0186732
0.018664
0.0186549
0.0186457
0.0186365
0.0186273
0.0186181
0.0186089
0.0185997
0.0185906
0.0185815
0.0188504
0.018838
0.018826
0.0188145
0.0188034
0.0187929
0.0187828
0.0187731
0.0187638
0.0187549
0.0187464
0.0187381
0.0187301
0.0187222
0.0187143
0.0187065
0.0186987
0.0186908
0.0186828
0.0186748
0.0186668
0.0186588
0.0186508
0.0186428
0.0189046
0.0188928
0.0188815
0.0188708
0.0188606
0.0188509
0.0188418
0.0188333
0.0188252
0.0188177
0.0188106
0.0188038
0.0187974
0.0187911
0.018785
0.0187789
0.0187727
0.0187665
0.0187601
0.0187536
0.0187471
0.0187404
0.0187337
0.0187269
0.0189815
0.0189705
0.01896
0.0189502
0.018941
0.0189325
0.0189246
0.0189174
0.0189108
0.0189049
0.0188996
0.0188948
0.0188904
0.0188862
0.0188823
0.0188783
0.0188743
0.0188701
0.0188656
0.018861
0.0188562
0.0188511
0.0188458
0.0188403
0.0190866
0.0190764
0.0190667
0.0190578
0.0190495
0.019042
0.0190353
0.0190295
0.0190244
0.0190202
0.0190168
0.0190142
0.0190121
0.0190104
0.019009
0.0190076
0.0190062
0.0190045
0.0190024
0.019
0.0189972
0.018994
0.0189904
0.0189862
0.0192185
0.0192084
0.0191989
0.0191901
0.0191821
0.019175
0.0191688
0.0191636
0.0191595
0.0191565
0.0191547
0.0191539
0.0191541
0.0191549
0.0191562
0.0191577
0.0191592
0.0191606
0.0191616
0.019162
0.0191619
0.0191611
0.0191594
0.0191569
0.0193542
0.0193428
0.0193319
0.0193219
0.0193125
0.0193042
0.0192968
0.0192907
0.019286
0.0192827
0.0192811
0.0192811
0.0192825
0.019285
0.0192883
0.0192922
0.0192964
0.0193008
0.0193053
0.0193095
0.019313
0.0193153
0.0193164
0.0193161
0.0194315
0.0194172
0.0194033
0.0193899
0.0193771
0.0193651
0.019354
0.0193441
0.0193356
0.0193288
0.0193236
0.0193202
0.0193181
0.0193169
0.0193163
0.0193164
0.0193172
0.0193195
0.0193236
0.0193301
0.0193361
0.0193409
0.0193441
0.0193455
0.0193445
0.0193259
0.0193069
0.0192875
0.0192678
0.0192478
0.0192274
0.0192068
0.0191856
0.0191634
0.0191397
0.0191135
0.0190836
0.0190495
0.019012
0.0189729
0.0189352
0.0189025
0.0188786
0.0188668
0.0188648
0.0188635
0.0188625
0.0188614
0.0189364
0.0189099
0.0188806
0.018848
0.0188116
0.0187701
0.0187222
0.0186659
0.018598
0.0185146
0.018411
0.018283
0.0173796
0.016802
0.0165739
0.0165793
0.0166985
0.0168552
0.0170368
0.016997
0.0169578
0.0169345
0.0169208
0.0169165
0.0169207
0.0179398
0.0178912
0.0178314
0.0177581
0.0176679
0.0175563
0.0174169
0.0172422
0.0170217
0.0160409
0.0147202
0.0137161
0.0130589
0.0127396
0.0127023
0.0128398
0.0130354
0.0132218
0.0131423
0.0129507
0.0128331
0.012795
0.0127803
0.0127894
0.0128204
0.0158622
0.0157229
0.0155519
0.0153458
0.0150997
0.0148074
0.0143691
0.0132405
0.0121371
0.0111383
0.0103097
0.00969153
0.00932872
0.00915937
0.00913896
0.00920151
0.00912054
0.00882293
0.00858245
0.00839898
0.00827276
0.00820899
0.00820132
0.00821935
0.00826223
0.0116192
0.0113112
0.0109833
0.0106385
0.0102774
0.00976257
0.00908735
0.00839175
0.00772374
0.00713145
0.00665625
0.006464
0.00644457
0.00644024
0.00622625
0.00601406
0.00583598
0.00568267
0.00555075
0.00544176
0.00535784
0.00530001
0.00528035
0.00529564
0.00533051
0.00589771
0.00574118
0.00559245
0.00545198
0.00531928
0.00519332
0.00507268
0.00495391
0.00476565
0.00446482
0.00426225
0.00426576
0.00407387
0.00439414
0.00453569
0.00449339
0.00442369
0.00433139
0.00422561
0.00412082
0.00402624
0.00394122
0.00390943
0.00392119
0.0039634
0.00311775
0.00312873
0.00314744
0.00317425
0.00320987
0.00325576
0.00331474
0.00339142
0.00349399
0.00363804
0.00372008
0.0035674
0.0040953
0.00412013
0.00432141
0.00419156
0.00396134
0.00370027
0.00343159
0.0031859
0.00300484
0.00276513
0.00298381
0.00322193
0.00345123
0.00335685
0.00286246
0.00299233
0.00312735
0.00326723
0.00341373
0.0035714
0.0037447
0.00394988
0.00421714
0.00435356
0.00459105
0.00352357
0.00469296
0.00392766
0.00290079
0.00270538
0.00234852
0.0019028
0.00192346
0.00222104
0.00292452
0.00457203
0.0052654
0.00567399
0.00600081
0.00404047
0.00424256
0.00443395
0.00461673
0.00479513
0.00497767
0.00519001
0.00544807
0.00546549
0.00393717
0.00342514
0.0040204
0.00164701
0.00139954
0.000637736
0.000464153
0.000924042
0.00100691
0.00216868
0.00513716
0.00604632
0.0103911
0.00750184
0.00847059
0.00502699
0.00516856
0.00528074
0.00534525
0.00533546
0.00522477
0.00485554
0.0040287
0.00585915
0.00293147
0.00362902
0.00119102
0.00158938
0.00768322
0.00848539
0.00928281
0.00926622
0.00995115
0.00575426
0.00584875
0.00586301
0.00576561
0.00552634
0.00504984
0.00422413
0.00485581
0.00299105
0.00291011
0.000406763
0.000250149
0.00552931
0.00457059
0.005425
0.00608522
0.00661774
0.000167739
0.00224864
0.00490539
0.00465711
0.00537843
0.0060327
0.00621557
0.00262164
0.00331959
0.00462187
0.0054735
0.00627236
0.00448741
0.00446345
0.00420024
0.00418206
0.00689559
0.00645827
0.00631421
0.00624713
0.00623933
0.00601275
0.00583091
0.00568124
0.00555571
0.00545119
0.00536869
0.00531
0.00527393
0.00528027
0.00530643
0.0053497
0.0054094
0.0108734
0.0100721
0.00948877
0.00917824
0.00908527
0.0091638
0.0091598
0.0088412
0.00858379
0.00838316
0.00823799
0.00814773
0.00812911
0.00813864
0.00817308
0.00823102
0.00831002
0.00840784
0.0157368
0.0144586
0.0135013
0.0129037
0.0126686
0.0127479
0.0130331
0.013382
0.0131379
0.0129165
0.0127663
0.0126978
0.0126758
0.0126781
0.0127033
0.0127493
0.0128136
0.0128929
0.0183963
0.0182767
0.0180815
0.0171433
0.0166454
0.0165272
0.0166769
0.0169646
0.0170453
0.016934
0.0168659
0.0168399
0.0168245
0.0168194
0.0168237
0.0168364
0.0168564
0.016883
0.0191194
0.0190915
0.0190605
0.0190256
0.0189867
0.0189451
0.0189034
0.0188648
0.0188334
0.0188129
0.018807
0.0188048
0.0188036
0.0188032
0.0188031
0.0188033
0.0188037
0.0188046
0.0193118
0.0193059
0.0193016
0.0192987
0.0192967
0.0192954
0.0192948
0.0192953
0.0192974
0.0193017
0.0193076
0.0193127
0.0193166
0.0193191
0.0193198
0.0193187
0.0193162
0.0193123
0.0192769
0.0192752
0.0192752
0.0192765
0.0192791
0.0192824
0.0192862
0.0192904
0.0192947
0.019299
0.0193028
0.0193056
0.0193074
0.0193078
0.0193068
0.0193044
0.0193006
0.0192957
0.0191556
0.0191538
0.0191531
0.0191533
0.0191542
0.0191556
0.0191571
0.0191586
0.0191598
0.0191607
0.0191609
0.0191606
0.0191594
0.0191574
0.0191545
0.0191506
0.0191459
0.0191404
0.0190213
0.0190179
0.0190153
0.0190132
0.0190116
0.0190102
0.0190088
0.0190073
0.0190056
0.0190034
0.0190009
0.0189981
0.0189947
0.0189909
0.0189865
0.0189816
0.0189762
0.0189704
0.0189068
0.0189015
0.0188967
0.0188923
0.0188881
0.0188841
0.0188802
0.0188761
0.0188718
0.0188673
0.0188627
0.0188578
0.0188527
0.0188473
0.0188417
0.0188359
0.0188298
0.0188234
0.0188198
0.0188127
0.018806
0.0187995
0.0187933
0.0187871
0.018781
0.0187748
0.0187685
0.018762
0.0187556
0.018749
0.0187424
0.0187356
0.0187288
0.0187219
0.018715
0.018708
0.0187573
0.0187487
0.0187404
0.0187323
0.0187243
0.0187165
0.0187086
0.0187007
0.0186928
0.0186848
0.0186768
0.0186688
0.0186608
0.0186528
0.0186449
0.0186369
0.0186291
0.0186212
0.0187131
0.0187034
0.0186939
0.0186846
0.0186753
0.0186661
0.0186569
0.0186477
0.0186385
0.0186292
0.01862
0.0186108
0.0186016
0.0185926
0.0185836
0.0185747
0.0185659
0.0185573
0.018682
0.0186714
0.0186611
0.0186508
0.0186405
0.0186303
0.0186201
0.0186099
0.0185996
0.0185893
0.0185791
0.0185689
0.0185588
0.0185488
0.0185389
0.0185291
0.0185195
0.0185101
0.0186598
0.0186487
0.0186376
0.0186266
0.0186156
0.0186046
0.0185936
0.0185826
0.0185715
0.0185604
0.0185494
0.0185384
0.0185275
0.0185167
0.018506
0.0184955
0.0184852
0.0184751
0.0186438
0.0186322
0.0186206
0.018609
0.0185975
0.0185859
0.0185742
0.0185626
0.0185509
0.0185392
0.0185275
0.0185158
0.0185043
0.0184929
0.0184816
0.0184705
0.0184596
0.0184488
0.0186321
0.0186201
0.0186081
0.0185961
0.0185841
0.018572
0.0185599
0.0185477
0.0185355
0.0185233
0.0185111
0.018499
0.0184869
0.018475
0.0184632
0.0184516
0.0184402
0.018429
0.0186234
0.0186111
0.0185988
0.0185865
0.0185741
0.0185617
0.0185492
0.0185367
0.0185241
0.0185115
0.0184989
0.0184864
0.0184739
0.0184616
0.0184494
0.0184374
0.0184255
0.0184139
0.0186172
0.0186047
0.0185922
0.0185796
0.018567
0.0185543
0.0185415
0.0185287
0.0185158
0.0185029
0.01849
0.0184772
0.0184644
0.0184518
0.0184392
0.0184269
0.0184148
0.0184029
0.0186129
0.0186003
0.0185876
0.0185748
0.018562
0.0185491
0.0185362
0.0185231
0.01851
0.0184969
0.0184838
0.0184708
0.0184578
0.0184449
0.0184322
0.0184197
0.0184073
0.0183952
0.0186103
0.0185975
0.0185847
0.0185719
0.018559
0.018546
0.0185329
0.0185197
0.0185065
0.0184933
0.01848
0.0184668
0.0184537
0.0184407
0.0184278
0.0184151
0.0184026
0.0183903
0.018609
0.0185962
0.0185834
0.0185705
0.0185575
0.0185444
0.0185313
0.018518
0.0185047
0.0184914
0.0184781
0.0184649
0.0184517
0.0184386
0.0184256
0.0184128
0.0184002
0.0183879
0.0187242
0.0187108
0.0186976
0.0186845
0.0186715
0.0186586
0.0186458
0.018633
0.0186203
0.0186077
0.0185949
0.0185822
0.0185694
0.0185565
0.0185435
0.0185304
0.0185173
0.0185041
0.0184908
0.0184775
0.0184643
0.018451
0.0184379
0.0184249
0.0187253
0.0187119
0.0186987
0.0186856
0.0186726
0.0186598
0.018647
0.0186343
0.0186217
0.018609
0.0185964
0.0185837
0.0185709
0.0185581
0.0185452
0.0185322
0.0185191
0.018506
0.0184928
0.0184796
0.0184664
0.0184533
0.0184402
0.0184273
0.0187278
0.0187144
0.0187012
0.0186881
0.0186752
0.0186624
0.0186497
0.0186371
0.0186246
0.018612
0.0185995
0.0185869
0.0185743
0.0185616
0.0185488
0.018536
0.018523
0.01851
0.018497
0.0184839
0.0184709
0.0184579
0.018445
0.0184322
0.0187319
0.0187186
0.0187054
0.0186924
0.0186796
0.0186669
0.0186543
0.0186418
0.0186294
0.018617
0.0186046
0.0185922
0.0185798
0.0185673
0.0185548
0.0185421
0.0185294
0.0185166
0.0185038
0.018491
0.0184782
0.0184654
0.0184527
0.0184402
0.0187381
0.0187248
0.0187117
0.0186988
0.018686
0.0186734
0.018661
0.0186487
0.0186365
0.0186243
0.0186122
0.0186001
0.0185879
0.0185757
0.0185634
0.0185511
0.0185387
0.0185262
0.0185137
0.0185012
0.0184887
0.0184763
0.018464
0.0184518
0.0187465
0.0187332
0.0187202
0.0187074
0.0186948
0.0186824
0.0186701
0.018658
0.0186461
0.0186342
0.0186224
0.0186106
0.0185988
0.018587
0.0185751
0.0185632
0.0185512
0.0185392
0.0185271
0.018515
0.018503
0.018491
0.0184791
0.0184673
0.0187573
0.0187442
0.0187312
0.0187186
0.0187061
0.018694
0.018682
0.0186702
0.0186586
0.0186471
0.0186357
0.0186243
0.018613
0.0186016
0.0185903
0.0185789
0.0185674
0.0185559
0.0185444
0.0185328
0.0185213
0.0185099
0.0184986
0.0184874
0.0187715
0.0187584
0.0187457
0.0187332
0.018721
0.0187091
0.0186975
0.0186861
0.0186749
0.0186638
0.0186529
0.0186421
0.0186314
0.0186207
0.0186099
0.0185992
0.0185884
0.0185775
0.0185667
0.0185558
0.018545
0.0185343
0.0185237
0.0185131
0.0187906
0.0187777
0.0187651
0.018753
0.0187411
0.0187296
0.0187184
0.0187075
0.0186968
0.0186864
0.0186762
0.0186661
0.0186561
0.0186461
0.0186362
0.0186263
0.0186163
0.0186063
0.0185963
0.0185863
0.0185764
0.0185665
0.0185567
0.018547
0.0188171
0.0188045
0.0187923
0.0187805
0.0187692
0.0187582
0.0187476
0.0187373
0.0187274
0.0187178
0.0187084
0.0186992
0.0186902
0.0186812
0.0186723
0.0186635
0.0186546
0.0186457
0.0186367
0.0186278
0.0186189
0.01861
0.0186013
0.0185926
0.0188547
0.0188426
0.0188309
0.0188198
0.018809
0.0187988
0.018789
0.0187796
0.0187707
0.0187621
0.0187539
0.0187459
0.0187381
0.0187305
0.018723
0.0187155
0.018708
0.0187004
0.0186928
0.0186852
0.0186776
0.01867
0.0186625
0.018655
0.0189085
0.0188971
0.0188862
0.0188759
0.0188661
0.0188568
0.0188481
0.0188399
0.0188322
0.0188251
0.0188183
0.0188119
0.0188058
0.0188
0.0187942
0.0187885
0.0187827
0.0187769
0.018771
0.018765
0.018759
0.018753
0.0187469
0.0187408
0.0189851
0.0189746
0.0189647
0.0189555
0.0189468
0.0189388
0.0189314
0.0189247
0.0189187
0.0189132
0.0189083
0.018904
0.0189
0.0188963
0.0188928
0.0188893
0.0188858
0.0188821
0.0188783
0.0188744
0.0188704
0.0188662
0.0188619
0.0188574
0.0190909
0.0190814
0.0190726
0.0190644
0.019057
0.0190503
0.0190443
0.0190392
0.0190348
0.0190313
0.0190285
0.0190265
0.019025
0.0190239
0.019023
0.0190223
0.0190215
0.0190206
0.0190194
0.019018
0.0190165
0.0190146
0.0190124
0.0190097
0.0192263
0.0192174
0.0192092
0.0192018
0.0191951
0.0191892
0.0191843
0.0191802
0.0191773
0.0191753
0.0191745
0.0191746
0.0191756
0.0191773
0.0191794
0.0191818
0.0191842
0.0191866
0.0191888
0.0191908
0.0191925
0.0191937
0.0191942
0.0191941
0.0193729
0.0193637
0.0193552
0.0193474
0.0193403
0.0193341
0.0193289
0.0193248
0.0193219
0.0193204
0.0193204
0.0193219
0.0193247
0.0193286
0.0193335
0.019339
0.019345
0.0193514
0.0193581
0.0193647
0.019371
0.0193766
0.0193814
0.0193849
0.0194763
0.019466
0.0194561
0.0194466
0.0194377
0.0194294
0.019422
0.0194155
0.0194103
0.0194067
0.0194048
0.0194047
0.0194066
0.0194101
0.019415
0.0194213
0.019429
0.0194384
0.0194498
0.0194619
0.0194739
0.0194854
0.0194958
0.0195047
0.0194361
0.0194243
0.0194121
0.0193995
0.0193865
0.0193733
0.0193599
0.0193464
0.0193331
0.0193202
0.0193079
0.0192963
0.0192855
0.0192758
0.0192675
0.0192612
0.0192582
0.0192602
0.0192687
0.0192818
0.0192961
0.0193108
0.019325
0.019338
0.019077
0.0190642
0.019049
0.0190314
0.0190112
0.018988
0.0189613
0.0189302
0.0188939
0.0188515
0.0188019
0.0187445
0.01868
0.018521
0.0180813
0.0178745
0.0177521
0.0175878
0.017352
0.0170982
0.0169266
0.0169467
0.0172463
0.0178256
0.0183191
0.0181083
0.0180979
0.0180805
0.0180555
0.0180217
0.0179771
0.0179188
0.017843
0.0177443
0.0176168
0.0170014
0.0159697
0.0151305
0.0145869
0.0143749
0.0144196
0.0145473
0.0145962
0.0144989
0.0142724
0.0140269
0.0139417
0.0141387
0.0146153
0.0152703
0.0160566
0.0160481
0.0160343
0.0159993
0.0159404
0.0158523
0.0156785
0.0149849
0.0142275
0.0134587
0.0127333
0.0121003
0.0115614
0.0111978
0.0111162
0.0112984
0.0115695
0.0117688
0.0115827
0.0114498
0.0112375
0.0110153
0.0110935
0.0112375
0.0112637
0.0116601
0.0117335
0.0117322
0.0116502
0.011481
0.0112301
0.0108959
0.0104546
0.00994909
0.00945053
0.00903292
0.00868422
0.00846496
0.0082978
0.00826291
0.00816737
0.00793701
0.00774346
0.00758906
0.00748561
0.00742121
0.00738842
0.0073844
0.00740798
0.00745705
0.0070494
0.00703891
0.00701452
0.00697736
0.00692803
0.00687858
0.00679956
0.00648344
0.0061335
0.00581894
0.00558472
0.0051458
0.00540968
0.0056779
0.00561045
0.00552254
0.00544025
0.00535735
0.00528009
0.00522385
0.00520773
0.00521305
0.00523036
0.00526273
0.00531378
0.00384926
0.00388504
0.00392012
0.00395543
0.0039913
0.00402638
0.00406079
0.00411265
0.00417961
0.00427058
0.00390085
0.00440085
0.0038259
0.00374663
0.00411006
0.00438345
0.00425402
0.00409652
0.00393284
0.00379976
0.00371707
0.00363567
0.00356049
0.00365801
0.00379227
0.00396453
0.00296619
0.00305742
0.00315236
0.00325145
0.00335569
0.00346711
0.00359022
0.00374581
0.0039908
0.00407321
0.00287926
0.00288408
0.00322926
0.00319844
0.00274298
0.00243604
0.00221722
0.00206297
0.00198097
0.00193428
0.00202787
0.00253378
0.00335523
0.00408425
0.0049317
0.00361535
0.00375264
0.00389136
0.00403484
0.00418949
0.0043672
0.00459058
0.00463718
0.00347771
0.00258033
0.00253242
0.00115452
0.00011304
0.000764205
0.00181886
0.0042495
0.00801293
0.0101883
0.010233
0.00569971
0.00578231
0.00583848
0.00587337
0.00589723
0.00595411
0.00603093
0.00497702
0.00341487
0.00276687
0.00108811
0.000716617
0.00389913
0.00576212
0.00733139
0.0103049
0.00669122
0.00682669
0.0069729
0.00713892
0.0073264
0.00673412
0.00574916
0.0032583
0.00234023
0.000344991
0.00131014
0.00337673
0.00474671
0.00558211
0.00115766
0.00264085
0.00324608
0.00472566
0.00509799
0.00291503
0.00414086
0.00455684
0.00523365
0.00376212
0.00413797
0.00434367
0.00462101
0.00639898
0.00619848
0.00609208
0.0060574
0.00919436
0.00874958
0.00840953
0.00825307
0.00818828
0.00812196
0.00787878
0.00768171
0.00752288
0.00740399
0.00733157
0.00729328
0.00728648
0.00730734
0.0073525
0.00741942
0.00750622
0.0132063
0.0124684
0.0118443
0.0113537
0.011076
0.0111029
0.0114118
0.0117263
0.0115027
0.0113416
0.011231
0.0111533
0.0108109
0.0107372
0.0109512
0.0111625
0.0112317
0.011323
0.0174298
0.0167205
0.0156912
0.0148886
0.014416
0.0143056
0.0144788
0.0147439
0.0148938
0.0148203
0.0145361
0.0141797
0.0139626
0.0140432
0.0144297
0.0150201
0.0154863
0.0155423
0.0187689
0.0187117
0.0186463
0.0185738
0.0182421
0.0178824
0.0177842
0.0177847
0.0177336
0.0175668