/*--------------------------------*- C++ -*----------------------------------*\
  =========                 |
  \\      /  F ield         | OpenFOAM: The Open Source CFD Toolbox
   \\    /   O peration     | Website:  https://openfoam.org
    \\  /    A nd           | Version:  13
     \\/     M anipulation  |
\*---------------------------------------------------------------------------*/
FoamFile
{
    format      ascii;
    class       volScalarField;
    location    "1000";
    object      omega;
}
// * * * * * * * * * * * * * * * * * * * * * * * * * * * * * * * * * * * * * //

dimensions      [0 0 -1 0 0 0 0];

internalField   nonuniform List<scalar> 
171745
(
16.4013
16.3341
16.2677
16.202
16.137
16.0728
16.0091
15.9461
15.8837
15.8218
15.7604
15.6995
15.639
15.579
15.5193
15.46
15.4011
15.3426
15.2845
15.2269
15.1696
15.1128
15.0565
15.0007
16.4019
16.3347
16.2683
16.2026
16.1377
16.0734
16.0098
15.9468
15.8844
15.8225
15.7612
15.7003
15.6399
15.5799
15.5203
15.4611
15.4023
15.3439
15.2858
15.2282
15.171
15.1143
15.0581
15.0024
16.4036
16.3364
16.2699
16.2043
16.1393
16.075
16.0114
15.9485
15.8862
15.8244
15.7631
15.7024
15.642
15.5822
15.5227
15.4636
15.4049
15.3466
15.2886
15.2311
15.1741
15.1175
15.0614
15.0058
16.4062
16.3389
16.2725
16.2068
16.1418
16.0776
16.0141
15.9512
15.889
15.8273
15.7662
15.7056
15.6454
15.5857
15.5264
15.4674
15.4089
15.3508
15.2931
15.2358
15.1789
15.1225
15.0666
15.0112
16.4101
16.3428
16.2763
16.2106
16.1457
16.0816
16.0181
15.9553
15.8932
15.8317
15.7708
15.7103
15.6504
15.5909
15.5318
15.4731
15.4149
15.357
15.2995
15.2425
15.1859
15.1298
15.0741
15.019
16.4158
16.3485
16.2819
16.2163
16.1514
16.0873
16.0239
15.9613
15.8994
15.838
15.7773
15.7171
15.6575
15.5983
15.5395
15.4811
15.4232
15.3657
15.3086
15.2519
15.1956
15.1398
15.0845
15.0298
16.424
16.3566
16.29
16.2244
16.1595
16.0955
16.0323
15.9699
15.9081
15.8471
15.7866
15.7268
15.6675
15.6086
15.5503
15.4923
15.4348
15.3777
15.321
15.2648
15.209
15.1536
15.0988
15.0444
16.4357
16.3682
16.3017
16.236
16.1713
16.1074
16.0444
15.9821
15.9207
15.8599
15.7999
15.7404
15.6816
15.6232
15.5653
15.5079
15.451
15.3944
15.3383
15.2825
15.2273
15.1725
15.1181
15.0643
16.4525
16.385
16.3185
16.2529
16.1882
16.1245
16.0617
15.9998
15.9386
15.8783
15.8187
15.7598
15.7015
15.6437
15.5865
15.5297
15.4734
15.4175
15.362
15.307
15.2524
15.1982
15.1445
15.0913
16.4767
16.4092
16.3427
16.2772
16.2128
16.1493
16.0867
16.0252
15.9645
15.9047
15.8457
15.7874
15.7298
15.6728
15.6163
15.5604
15.5049
15.4498
15.3951
15.3408
15.287
15.2336
15.1806
15.128
16.5117
16.4442
16.3779
16.3125
16.2483
16.1851
16.123
16.0619
16.0018
15.9427
15.8844
15.827
15.7703
15.7142
15.6588
15.6039
15.5494
15.4953
15.4416
15.3882
15.3352
15.2827
15.2304
15.1786
16.5625
16.4952
16.429
16.3639
16.3001
16.2373
16.1757
16.1153
16.0559
15.9977
15.9404
15.8841
15.8286
15.7739
15.7198
15.6661
15.6129
15.5601
15.5075
15.4552
15.4033
15.3516
15.3002
15.249
16.6366
16.5695
16.5036
16.4389
16.3755
16.3134
16.2526
16.1931
16.1348
16.0778
16.022
15.9673
15.9136
15.8606
15.8084
15.7566
15.7051
15.6539
15.6028
15.5518
15.5009
15.4502
15.3995
15.3489
16.7452
16.6784
16.6129
16.5488
16.4862
16.425
16.3653
16.3072
16.2506
16.1956
16.1421
16.09
16.0391
15.9891
15.9397
15.8908
15.842
15.7932
15.7441
15.6948
15.6452
15.5955
15.5455
15.4951
16.9057
16.8394
16.7746
16.7115
16.6501
16.5905
16.5328
16.4772
16.4237
16.3723
16.3231
16.2758
16.2301
16.1856
16.1419
16.0985
16.0548
16.0105
15.9651
15.9183
15.8708
15.8223
15.7729
15.7224
17.1482
17.0828
17.0193
16.958
16.899
16.8426
16.789
16.7385
16.6913
16.6477
16.6077
16.5711
16.5374
16.5057
16.4751
16.4445
16.4127
16.3789
16.3422
16.3013
16.2576
16.2115
16.1628
16.1116
17.5292
17.4659
17.4054
17.3483
17.2948
17.2457
17.2016
17.1635
17.132
17.1079
17.0917
17.0834
17.082
17.0859
17.0928
17.0998
17.104
17.1026
17.0928
17.0719
17.0376
16.9972
16.9502
16.8969
18.1609
18.1038
18.0521
18.0065
17.9684
17.9393
17.9216
17.9179
17.9314
17.9654
18.0225
18.1034
18.2068
18.3286
18.4619
18.5979
18.7274
18.8406
18.9277
18.9798
18.9872
18.9567
18.9083
18.8428
19.2765
19.2432
19.2225
19.2174
19.2321
19.2724
19.346
19.4625
19.6333
19.8691
20.1808
20.5734
21.0423
21.5706
22.1311
22.694
23.2308
23.7136
24.1162
24.4146
24.5876
24.6038
24.5062
24.36
24.1719
21.4825
21.5592
21.6772
21.8464
22.0805
22.3975
22.8207
23.3773
24.0999
25.0195
26.1597
27.5193
29.0572
30.6934
32.334
33.8999
35.3364
36.6068
37.6782
38.5153
39.083
39.3555
39.2697
38.8497
38.3148
26.9721
27.6051
28.3665
29.2736
30.3508
31.6315
33.1566
34.973
37.127
39.6476
42.5129
45.632
48.838
51.9229
54.7216
57.1651
59.2577
61.0316
62.5109
63.7005
64.5731
65.0724
65.1824
64.8683
63.994
45.7014
48.1679
50.7262
53.3622
56.076
58.8816
61.8018
64.8598
68.051
71.3289
74.5884
77.6675
80.3695
82.5398
84.1623
85.3815
86.405
87.4434
88.6505
90.0623
91.7917
93.249
94.1901
94.5545
94.353
100.385
102.928
104.863
106.238
107.118
107.576
107.685
107.501
107.06
106.387
105.514
104.492
103.356
102.405
101.646
101.519
102.535
105.218
109.804
116
126.907
134.765
140.399
144.304
146.823
163.971
158.205
152.275
146.4
140.669
135.154
129.928
124.904
120.075
115.533
111.512
108.292
106.223
104.943
103.411
103.687
107.328
118.545
138.894
165.728
242.577
251.539
259.813
266.85
273.93
283.474
163.328
153.916
145.546
138.021
131.145
124.825
118.936
113.564
108.903
105.621
104.498
103.513
103.716
108.526
123.255
155.816
247.262
337.821
411.657
436.682
431.855
406.097
394.444
384.084
372.051
136.528
129.247
122.852
117.221
112.246
107.89
104.321
102.05
102.231
101.518
104.625
117.649
150.23
179.898
363.922
643.34
803.464
413.183
165.617
133.713
124.997
132.493
143.729
143.356
117.211
112.788
108.955
105.704
102.986
100.888
99.6653
100.117
104.233
104.562
118.205
137.647
205.03
571.911
1149.75
446.84
325.07
152.577
105.738
100.679
103.564
110.619
114.706
116.875
100.389
98.5545
97.1793
96.2796
96.0549
96.9
99.7879
106.8
107.228
121.861
146.679
349.392
659.004
288.728
111.636
116.248
127.941
140.774
142.392
143.987
121.408
110.58
119.159
139.281
157.012
177.975
168.545
457.407
407.441
381.214
369.809
344.391
251.013
269.227
285.745
302.562
72.911
76.0011
78.8818
81.3645
83.3058
84.6912
85.6589
86.3952
87.0891
87.8795
88.8192
90.0556
91.1002
91.7367
91.9028
91.5837
90.5623
40.9777
43.8678
46.9735
50.121
53.0973
55.7348
57.9672
59.8104
61.3085
62.5002
63.4055
64.0164
64.2925
64.2258
63.6814
62.646
61.4353
60.0995
25.6172
26.8178
28.2281
29.7978
31.437
33.0423
34.529
35.8464
36.9671
37.869
38.5297
38.9271
39.0463
38.7781
38.3115
37.7445
37.1004
36.4001
20.0803
20.4198
20.8397
21.3324
21.8763
22.4395
22.9882
23.4901
23.9197
24.2559
24.4799
24.5771
24.5047
24.3832
24.2176
24.0142
23.78
23.5219
18.0397
18.1058
18.1959
18.308
18.4365
18.573
18.7074
18.829
18.9279
18.9954
19.0243
19.0025
18.9617
18.9039
18.83
18.7418
18.6414
18.5311
17.1367
17.1233
17.1179
17.1192
17.1253
17.1334
17.1401
17.1424
17.1373
17.122
17.0938
17.056
17.0119
16.9614
16.9047
16.8423
16.7749
16.7035
16.66
16.6211
16.5856
16.5529
16.522
16.4918
16.4612
16.4289
16.394
16.3556
16.3129
16.2679
16.2204
16.1703
16.1176
16.0626
16.0054
15.9465
16.3787
16.3299
16.283
16.2378
16.1936
16.1501
16.1068
16.063
16.0183
15.9724
15.9252
15.8772
15.8283
15.7782
15.7272
15.675
15.6219
15.5681
16.2
16.1467
16.0948
16.044
15.9942
15.945
15.8961
15.8473
15.7983
15.749
15.6996
15.6499
15.6
15.5497
15.4991
15.4482
15.397
15.3455
16.0816
16.0259
15.9713
15.9177
15.8648
15.8126
15.7608
15.7093
15.6581
15.6068
15.5558
15.5049
15.4541
15.4033
15.3526
15.302
15.2513
15.2008
16.0014
15.9442
15.8879
15.8325
15.7777
15.7236
15.67
15.6168
15.5639
15.5113
15.459
15.407
15.3553
15.3039
15.2527
15.2017
15.151
15.1005
15.9464
15.8882
15.8307
15.774
15.718
15.6625
15.6076
15.553
15.4989
15.4452
15.3918
15.3388
15.2862
15.234
15.1822
15.1307
15.0795
15.0288
15.9084
15.8494
15.7911
15.7335
15.6764
15.6199
15.5639
15.5084
15.4533
15.3986
15.3443
15.2904
15.237
15.184
15.1314
15.0793
15.0277
14.9764
15.882
15.8224
15.7634
15.7051
15.6473
15.59
15.5332
15.4768
15.4208
15.3653
15.3102
15.2556
15.2014
15.1477
15.0945
15.0418
14.9895
14.9378
15.8636
15.8035
15.744
15.685
15.6266
15.5687
15.5112
15.4542
15.3975
15.3413
15.2856
15.2303
15.1755
15.1212
15.0674
15.0141
14.9613
14.909
15.8506
15.7901
15.7302
15.6708
15.6119
15.5534
15.4954
15.4378
15.3807
15.324
15.2677
15.2118
15.1565
15.1016
15.0473
14.9935
14.9402
14.8875
15.8414
15.7806
15.7204
15.6606
15.6013
15.5425
15.4841
15.426
15.3685
15.3113
15.2545
15.1983
15.1425
15.0872
15.0324
14.9782
14.9245
14.8714
15.835
15.7739
15.7134
15.6534
15.5938
15.5346
15.4759
15.4175
15.3596
15.3021
15.245
15.1884
15.1322
15.0766
15.0215
14.9669
14.9129
14.8595
15.8305
15.7693
15.7086
15.6483
15.5885
15.5291
15.4701
15.4115
15.3533
15.2955
15.2381
15.1812
15.1248
15.0689
15.0136
14.9587
14.9045
14.8508
15.8275
15.7661
15.7053
15.6449
15.5849
15.5253
15.4661
15.4073
15.3489
15.291
15.2334
15.1763
15.1197
15.0636
15.0081
14.953
14.8986
14.8447
15.8256
15.7641
15.7032
15.6427
15.5826
15.5229
15.4636
15.4047
15.3462
15.2881
15.2305
15.1732
15.1165
15.0603
15.0046
14.9494
14.8948
14.8408
15.8247
15.7633
15.7023
15.6417
15.5816
15.5219
15.4625
15.4035
15.345
15.2868
15.2291
15.1718
15.115
15.0587
15.0029
14.9477
14.893
14.8389
16.4012
16.3341
16.2676
16.202
16.137
16.0727
16.0091
15.9461
15.8836
15.8218
15.7604
15.6995
15.639
15.579
15.5193
15.46
15.4011
15.3426
15.2845
15.2269
15.1696
15.1128
15.0565
15.0007
16.4018
16.3346
16.2682
16.2025
16.1376
16.0733
16.0097
15.9467
15.8843
15.8225
15.7612
15.7003
15.6399
15.5799
15.5203
15.4611
15.4023
15.3439
15.2858
15.2282
15.1711
15.1143
15.0581
15.0024
16.4034
16.3362
16.2698
16.2041
16.1392
16.0749
16.0114
15.9484
15.8861
15.8243
15.7631
15.7023
15.642
15.5821
15.5227
15.4636
15.4049
15.3465
15.2886
15.2311
15.1741
15.1175
15.0614
15.0058
16.406
16.3387
16.2723
16.2066
16.1417
16.0775
16.0139
15.9511
15.8889
15.8272
15.7661
15.7055
15.6453
15.5856
15.5263
15.4674
15.4088
15.3507
15.293
15.2357
15.1788
15.1224
15.0665
15.0111
16.4098
16.3425
16.276
16.2104
16.1455
16.0813
16.0179
15.9551
15.893
15.8315
15.7706
15.7101
15.6502
15.5907
15.5316
15.4729
15.4147
15.3568
15.2993
15.2423
15.1857
15.1295
15.0739
15.0187
16.4153
16.348
16.2815
16.2158
16.151
16.0869
16.0235
15.9609
15.899
15.8377
15.777
15.7168
15.6571
15.5979
15.5392
15.4808
15.4229
15.3653
15.3082
15.2515
15.1953
15.1395
15.0842
15.0294
16.4234
16.356
16.2895
16.2238
16.159
16.095
16.0318
15.9694
15.9076
15.8466
15.7862
15.7263
15.667
15.6082
15.5498
15.4919
15.4343
15.3772
15.3206
15.2643
15.2085
15.1531
15.0983
15.0439
16.4349
16.3675
16.301
16.2353
16.1706
16.1067
16.0437
15.9815
15.9201
15.8593
15.7993
15.7398
15.681
15.6226
15.5648
15.5073
15.4504
15.3938
15.3377
15.282
15.2267
15.1719
15.1176
15.0637
16.4516
16.3841
16.3176
16.252
16.1874
16.1237
16.0609
15.999
15.9379
15.8776
15.818
15.7591
15.7008
15.643
15.5858
15.529
15.4727
15.4168
15.3614
15.3063
15.2517
15.1976
15.1439
15.0907
16.4755
16.4081
16.3416
16.2762
16.2117
16.1483
16.0858
16.0242
15.9636
15.9038
15.8448
15.7865
15.7289
15.6719
15.6155
15.5596
15.5041
15.449
15.3944
15.3402
15.2864
15.233
15.1801
15.1276
16.5102
16.4429
16.3765
16.3113
16.2471
16.1839
16.1219
16.0608
16.0007
15.9416
15.8834
15.826
15.7693
15.7133
15.6579
15.603
15.5485
15.4945
15.4408
15.3876
15.3347
15.2822
15.2301
15.1784
16.5608
16.4935
16.4274
16.3625
16.2986
16.236
16.1744
16.114
16.0547
15.9965
15.9393
15.883
15.8276
15.7729
15.7188
15.6652
15.6121
15.5593
15.5069
15.4548
15.403
15.3515
15.3003
15.2495
16.6347
16.5677
16.5019
16.4374
16.3741
16.3121
16.2514
16.1919
16.1338
16.0768
16.021
15.9664
15.9127
15.8598
15.8075
15.7558
15.7044
15.6533
15.6024
15.5517
15.5011
15.4508
15.4006
15.3504
16.7434
16.6769
16.6117
16.5478
16.4853
16.4243
16.3648
16.3068
16.2503
16.1953
16.1418
16.0897
16.0387
15.9886
15.9392
15.8903
15.8416
15.7929
15.744
15.6951
15.6461
15.597
15.5477
15.4981
16.905
16.8392
16.7749
16.7121
16.651
16.5917
16.5342
16.4787
16.4252
16.3737
16.3243
16.2766
16.2305
16.1856
16.1414
16.0974
16.0533
16.0086
15.9632
15.9168
15.87
15.8225
15.7741
15.7249
17.1507
17.086
17.0232
16.9625
16.9039
16.8477
16.7942
16.7435
16.6959
16.6514
16.6102
16.5719
16.5362
16.5021
16.4689
16.4355
16.4013
16.3652
16.3268
16.2854
16.2424
16.1975
16.1505
16.1012
17.5383
17.4758
17.4161
17.3594
17.3062
17.2567
17.2117
17.1717
17.1373
17.109
17.0872
17.0714
17.0609
17.054
17.0486
17.0426
17.0339
17.0203
17.0002
16.971
16.9368
16.8978
16.8535
16.8039
18.182
18.1251
18.0728
18.0258
17.985
17.9516
17.9271
17.9134
17.9124
17.9261
17.956
18.0022
18.0625
18.1331
18.2089
18.2838
18.3517
18.4068
18.4434
18.4558
18.443
18.4177
18.379
18.3271
19.3274
19.2856
19.2534
19.2325
19.2254
19.2357
19.2682
19.3286
19.4241
19.5612
19.7457
19.9806
20.2613
20.5762
20.9077
21.2366
21.5448
21.8153
22.0301
22.1726
22.2203
22.2215
22.1849
22.1119
22.0058
21.5195
21.53
21.5646
21.6289
21.7308
21.8812
22.0949
22.3891
22.7867
23.3104
23.9811
24.8057
25.764
26.8047
27.8625
28.8805
29.8149
30.6297
31.2906
31.7645
32.0249
32.0353
31.946
31.7583
31.4839
26.2716
26.5086
26.8153
27.2057
27.7
28.3257
29.1192
30.1254
31.4004
33.0002
34.9568
37.242
39.7359
42.2611
44.6517
46.8087
48.6947
50.2916
51.5747
52.5093
53.0627
53.1701
52.8543
52.3304
51.6218
39.4014
40.5013
41.7291
43.098
44.6358
46.3861
48.4087
50.774
53.5482
56.7697
60.4149
64.3012
68.1413
71.6466
74.6467
77.134
79.1981
80.9057
82.2577
83.2342
83.8119
83.9068
83.3351
82.216
80.865
81.8262
83.6089
85.2996
86.9021
88.4418
89.963
91.5138
93.0899
94.8506
96.8546
99.0806
101.372
103.61
105.467
107.275
109.21
111.262
113.371
115.385
117.172
118.834
120.714
121.208
120.355
118.645
151.264
148.253
145.039
141.715
138.371
135.095
131.976
129.098
126.572
124.61
123.438
123.415
122.406
123.059
127.008
134.943
144.221
153.715
163.189
172.41
182.648
211.588
213.317
213.887
213.181
212.959
179.478
170.154
161.875
154.511
147.985
142.283
137.327
133.322
130.838
129.977
129.457
135.171
154.064
190.726
254.887
262.833
294.026
351.588
356.921
376.04
390.257
413.07
394.462
378.291
364.72
174.682
166.401
159.029
152.5
146.808
142.065
138.842
138.032
135.841
141.577
174.256
227.829
479.039
707.957
1338.96
960.001
866.941
842.753
516.626
351.469
318.095
216.573
265.294
261.445
176.361
169.242
163.203
158.169
154.144
151.232
150.137
153.61
152.561
174.502
216.872
674.01
497.524
151.053
150.824
147.709
151.573
148.899
152.378
148.025
144.526
141.998
140.722
141.536
146.977
148.996
174.902
233.638
1147.65
1576.07
159.294
167.734
176.473
182.342
174.236
1043.99
270.399
145.735
158.5
206.551
232.145
214.672
535.037
414.139
381.877
360.952
334.966
230.436
238.197
245.472
252.052
59.1547
62.7641
66.5518
70.2571
73.5523
76.2697
78.4031
80.0486
81.286
82.1455
82.6465
82.8289
82.6098
81.6844
80.4997
79.1137
77.562
34.2577
36.3157
38.681
41.218
43.7309
46.042
48.0489
49.7233
51.068
52.0766
52.7375
53.0396
52.8432
52.4305
51.8302
51.0632
50.1626
49.1618
23.7808
24.5129
25.3982
26.409
27.4831
28.5458
29.5329
30.3982
31.1116
31.6499
31.991
32.0953
32.0458
31.9023
31.6698
31.3594
30.9843
30.5575
19.722
19.9284
20.1862
20.4885
20.8206
21.1611
21.4878
21.7807
22.0211
22.1944
22.2889
22.3
22.2759
22.2163
22.123
21.9994
21.85
21.6796
17.9848
18.0214
18.0747
18.1417
18.218
18.297
18.3719
18.4359
18.4828
18.507
18.502
18.4815
18.4485
18.4024
18.3435
18.2727
18.1914
18.1015
17.1323
17.1127
17.0993
17.0909
17.0858
17.0814
17.0754
17.0654
17.0493
17.0254
16.9928
16.9557
16.9138
16.8666
16.8142
16.7568
16.695
16.6294
16.6616
16.6212
16.5838
16.5488
16.5154
16.4826
16.4494
16.4147
16.3778
16.3382
16.296
16.252
16.2061
16.1579
16.1075
16.0549
16.0003
15.9442
16.3791
16.33
16.2827
16.237
16.1923
16.1483
16.1044
16.0602
16.0153
15.9693
15.9228
15.8756
15.8277
15.779
15.7292
15.6786
15.6272
15.5749
16.1992
16.1459
16.0939
16.0431
15.9931
15.9439
15.895
15.8462
15.7974
15.7484
15.6994
15.6503
15.601
15.5515
15.5018
15.4518
15.4015
15.351
16.0804
16.0247
15.9701
15.9164
15.8636
15.8114
15.7597
15.7083
15.6572
15.6062
15.5555
15.5049
15.4545
15.4042
15.3539
15.3038
15.2537
15.2036
16.0001
15.943
15.8867
15.8313
15.7766
15.7225
15.6689
15.6157
15.5629
15.5105
15.4583
15.4066
15.3551
15.3039
15.2529
15.2023
15.1518
15.1016
15.9453
15.8871
15.8296
15.773
15.7169
15.6615
15.6065
15.5521
15.498
15.4443
15.391
15.3381
15.2857
15.2336
15.1818
15.1305
15.0795
15.0289
15.9075
15.8485
15.7902
15.7326
15.6755
15.6191
15.5631
15.5075
15.4524
15.3977
15.3435
15.2897
15.2363
15.1834
15.1309
15.0788
15.0272
14.9761
15.8813
15.8217
15.7627
15.7043
15.6465
15.5892
15.5324
15.476
15.4201
15.3646
15.3095
15.2549
15.2007
15.1471
15.0939
15.0411
14.9889
14.9372
15.863
15.8029
15.7433
15.6844
15.626
15.568
15.5106
15.4535
15.3969
15.3407
15.2849
15.2297
15.1748
15.1205
15.0667
15.0134
14.9606
14.9083
15.8501
15.7896
15.7297
15.6703
15.6114
15.5529
15.4949
15.4373
15.3801
15.3234
15.2671
15.2113
15.1559
15.101
15.0467
14.9929
14.9396
14.8869
15.8411
15.7803
15.72
15.6603
15.601
15.5421
15.4837
15.4257
15.368
15.3109
15.2541
15.1978
15.142
15.0867
15.032
14.9777
14.924
14.8709
15.8348
15.7738
15.7132
15.6532
15.5936
15.5344
15.4756
15.4173
15.3593
15.3018
15.2447
15.1881
15.1319
15.0763
15.0212
14.9666
14.9126
14.8591
15.8304
15.7692
15.7085
15.6482
15.5884
15.529
15.47
15.4113
15.3531
15.2953
15.238
15.1811
15.1247
15.0688
15.0134
14.9585
14.9043
14.8505
15.8275
15.7661
15.7053
15.6448
15.5849
15.5253
15.4661
15.4073
15.3489
15.2909
15.2334
15.1763
15.1197
15.0635
15.008
14.9529
14.8985
14.8445
15.8256
15.7642
15.7032
15.6427
15.5826
15.5229
15.4636
15.4047
15.3462
15.2881
15.2304
15.1732
15.1165
15.0602
15.0045
14.9493
14.8947
14.8407
15.8248
15.7633
15.7023
15.6418
15.5816
15.5219
15.4625
15.4035
15.3449
15.2868
15.229
15.1717
15.1149
15.0586
15.0028
14.9476
14.8929
14.8388
16.4012
16.3341
16.2677
16.2021
16.1371
16.0728
16.0092
15.9462
15.8838
15.8219
15.7606
15.6997
15.6392
15.5791
15.5195
15.4602
15.4013
15.3428
15.2847
15.227
15.1697
15.1129
15.0565
15.0007
16.4018
16.3347
16.2683
16.2026
16.1377
16.0734
16.0098
15.9469
15.8845
15.8226
15.7613
15.7005
15.6401
15.5801
15.5205
15.4613
15.4024
15.344
15.2859
15.2283
15.1711
15.1144
15.0581
15.0023
16.4033
16.3362
16.2698
16.2041
16.1392
16.0749
16.0114
15.9485
15.8861
15.8244
15.7631
15.7024
15.6421
15.5822
15.5227
15.4636
15.4049
15.3465
15.2886
15.2311
15.174
15.1174
15.0612
15.0056
16.4056
16.3384
16.272
16.2063
16.1414
16.0772
16.0137
15.9509
15.8887
15.827
15.7659
15.7053
15.6451
15.5854
15.5261
15.4671
15.4086
15.3504
15.2927
15.2354
15.1785
15.122
15.0661
15.0106
16.4091
16.3418
16.2754
16.2097
16.1448
16.0807
16.0172
15.9545
15.8924
15.8309
15.77
15.7095
15.6496
15.5901
15.531
15.4723
15.414
15.3561
15.2986
15.2415
15.1849
15.1287
15.073
15.0178
16.4141
16.3468
16.2803
16.2147
16.1498
16.0858
16.0224
15.9598
15.8979
15.8366
15.7759
15.7157
15.656
15.5968
15.538
15.4796
15.4216
15.3641
15.3069
15.2502
15.1939
15.1381
15.0827
15.0279
16.4217
16.3543
16.2878
16.2222
16.1574
16.0934
16.0302
15.9678
15.9061
15.845
15.7846
15.7247
15.6654
15.6065
15.5482
15.4902
15.4327
15.3755
15.3188
15.2625
15.2067
15.1513
15.0964
15.0419
16.4329
16.3654
16.299
16.2334
16.1686
16.1048
16.0418
15.9796
15.9181
15.8574
15.7974
15.7379
15.679
15.6206
15.5628
15.5053
15.4483
15.3917
15.3355
15.2798
15.2245
15.1697
15.1153
15.0614
16.4491
16.3817
16.3152
16.2497
16.1851
16.1215
16.0587
15.9968
15.9357
15.8754
15.8158
15.7569
15.6985
15.6408
15.5835
15.5268
15.4704
15.4145
15.359
15.304
15.2494
15.1952
15.1415
15.0883
16.4727
16.4053
16.3389
16.2735
16.2091
16.1457
16.0832
16.0217
15.9611
15.9013
15.8423
15.784
15.7265
15.6695
15.613
15.5571
15.5016
15.4465
15.3919
15.3377
15.2839
15.2305
15.1776
15.1252
16.5068
16.4395
16.3733
16.3081
16.244
16.181
16.1189
16.0579
15.9979
15.9388
15.8806
15.8232
15.7665
15.7105
15.6551
15.6002
15.5458
15.4918
15.4382
15.385
15.3322
15.2798
15.2278
15.1762
16.5567
16.4896
16.4236
16.3588
16.2951
16.2326
16.1711
16.1108
16.0516
15.9934
15.9363
15.88
15.8246
15.7699
15.7158
15.6623
15.6092
15.5565
15.5042
15.4522
15.4006
15.3494
15.2985
15.2479
16.6299
16.5632
16.4977
16.4334
16.3704
16.3085
16.248
16.1886
16.1306
16.0737
16.018
15.9633
15.9096
15.8567
15.8045
15.7528
15.7016
15.6506
15.5998
15.5494
15.4993
15.4494
15.3997
15.3501
16.7384
16.6723
16.6075
16.5441
16.482
16.4212
16.362
16.3041
16.2478
16.1929
16.1394
16.0872
16.0362
15.986
15.9366
15.8876
15.8389
15.7903
15.7417
15.6933
15.645
15.5967
15.5483
15.4997
16.9009
16.8358
16.7722
16.7101
16.6496
16.5907
16.5336
16.4783
16.4248
16.3733
16.3237
16.2757
16.2291
16.1837
16.1389
16.0944
16.0499
16.005
15.9596
15.9141
15.8683
15.822
15.7752
15.7277
17.1499
17.0864
17.0247
16.965
16.9072
16.8516
16.7984
16.7477
16.6998
16.6547
16.6123
16.5724
16.5346
16.4982
16.4624
16.4265
16.3897
16.3517
16.3118
16.271
16.2291
16.186
16.1413
16.0947
17.5446
17.484
17.4259
17.3705
17.318
17.2689
17.2235
17.1823
17.1457
17.1138
17.0869
17.0644
17.0455
17.0287
17.0124
16.9949
16.9748
16.9509
16.9224
16.8904
16.8559
16.8181
16.7764
16.7305
18.2073
18.1519
18.1003
18.0532
18.0112
17.9749
17.9454
17.9238
17.9112
17.9085
17.9162
17.9338
17.9591
17.9888
18.0187
18.045
18.0644
18.0742
18.0718
18.0589
18.0396
18.0125
17.9767
17.9317
19.3932
19.3451
19.3044
19.2721
19.2496
19.2389
19.2425
19.2635
19.3053
19.3713
19.4634
19.5807
19.7187
19.8686
20.0195
20.1619
20.2874
20.3887
20.4579
20.4948
20.5149
20.5152
20.4937
20.4496
20.3839
21.6114
21.5756
21.5552
21.5526
21.5715
21.6173
21.6973
21.8202
21.9973
22.2404
22.5589
22.9536
23.4107
23.9011
24.391
24.8528
25.2677
25.6182
25.8832
26.0524
26.178
26.2484
26.2584
26.2058
26.0939
26.1762
26.1728
26.1817
26.2372
26.3477
26.5279
26.7985
27.1859
27.7253
28.455
29.4061
30.572
31.8891
33.2469
34.5416
35.7161
36.7472
37.614
38.2813
38.7086
39.024
39.2025
39.2215
39.0793
38.788
37.0235
37.1453
37.3221
37.5321
37.7876
38.2314
38.9104
39.8872
41.2389
43.0405
45.3264
48.003
50.8336
53.5057
55.8233
57.7675
59.3959
60.7242
61.7119
62.2829
62.5804
62.6272
62.3751
61.8259
61.0247
67.653
67.5847
67.6585
67.8788
68.2617
68.7091
69.2382
70.2047
71.7341
73.9144
76.8002
80.1303
83.3338
86.128
88.3301
90.0817
91.5798
92.8267
93.7022
94.1102
94.0274
93.7335
93.1212
92.0936
90.7201
124.455
122.063
119.842
117.801
115.974
114.392
113.153
112.1
111.521
111.789
113.338
112.799
114.04
118.316
123.835
129.065
133.905
138.301
141.736
143.654
144.45
147.149
152.238
150.871
149.22
147.545
172.257
164.556
157.679
151.569
146.212
141.642
137.96
135.225
134.271
132.654
134.197
149.964
192.598
216.369
256.124
272.791
279.627
280.067
275.397
280.932
276.561
282.251
307.93
298.025
288.281
179.301
170.991
163.553
156.927
151.124
146.235
142.599
139.295
139.285
156.514
215.758
722.443
2361.11
632.395
695.119
591.43
448.617
340.235
308.889
145.127
138.816
133.168
128.024
123.343
119.476
115.707
116.727
125.051
153.121
809.056
662.145
213.505
204.728
192.225
201.363
153.472
147.782
142.673
138.159
134.273
131.345
130.416
142.874
181.149
1100.38
246.419
231.212
218.99
198.71
265.799
185.014
267.998
273.194
244.022
509.822
438.447
347.005
322.079
241.124
211.25
211.462
211.322
115.989
119.493
121.766
123.225
44.6195
47.023
49.7935
52.6687
55.3093
57.5052
59.2432
60.593
61.5928
62.2266
62.4879
62.5579
62.4213
62.0258
61.3783
60.5119
59.4707
29.1485
30.1838
31.4332
32.821
34.219
35.5094
36.6274
37.553
38.2731
38.7695
39.0864
39.2953
39.3742
39.3108
39.1033
38.7614
38.2993
37.7529
22.4995
22.8519
23.2823
23.773
24.2889
24.7895
25.2434
25.6299
25.9309
26.132
26.2634
26.349
26.3811
26.356
26.2728
26.1353
25.9498
25.7235
19.4666
19.5702
19.6996
19.849
20.008
20.1638
20.3052
20.4231
20.5099
20.559
20.5846
20.5921
20.5796
20.5455
20.4897
20.4131
20.3171
20.2043
17.9446
17.9562
17.9777
18.0068
18.0395
18.0708
18.0967
18.1136
18.1185
18.1087
18.0922
18.0688
18.0375
17.9974
17.9482
17.89
17.8233
17.7492
17.1288
17.1033
17.0822
17.0646
17.0488
17.033
17.0154
16.9943
16.9687
16.9377
16.9044
16.8683
16.8288
16.7854
16.7378
16.686
16.6304
16.5714
16.6613
16.6195
16.5802
16.543
16.507
16.4715
16.4356
16.3986
16.3599
16.3194
16.2781
16.2357
16.1919
16.1465
16.0991
16.0499
15.9989
15.9463
16.377
16.3276
16.2799
16.2336
16.1884
16.1438
16.0994
16.0548
16.0098
15.9643
15.9186
15.8726
15.8261
15.779
15.7311
15.6825
15.6331
15.583
16.1959
16.1425
16.0905
16.0395
15.9895
15.9402
15.8912
15.8426
15.7939
15.7453
15.6969
15.6485
15.6001
15.5516
15.5029
15.454
15.4049
15.3555
16.0768
16.0211
15.9665
15.9129
15.86
15.8079
15.7562
15.7049
15.6539
15.6032
15.5528
15.5027
15.4527
15.4029
15.3533
15.3037
15.2542
15.2048
15.9968
15.9396
15.8834
15.8279
15.7732
15.7192
15.6656
15.6125
15.5598
15.5075
15.4555
15.404
15.3527
15.3018
15.2511
15.2008
15.1507
15.1008
15.9423
15.8841
15.8267
15.77
15.714
15.6585
15.6036
15.5491
15.4951
15.4415
15.3883
15.3355
15.2831
15.2311
15.1795
15.1283
15.0775
15.027
15.9049
15.8459
15.7876
15.73
15.6729
15.6164
15.5604
15.5049
15.4498
15.3951
15.3409
15.2871
15.2337
15.1808
15.1284
15.0763
15.0248
14.9736
15.879
15.8194
15.7604
15.702
15.6442
15.5869
15.53
15.4736
15.4177
15.3621
15.307
15.2524
15.1982
15.1445
15.0913
15.0386
14.9863
14.9346
15.861
15.8009
15.7414
15.6824
15.6239
15.566
15.5085
15.4514
15.3947
15.3385
15.2827
15.2274
15.1725
15.1182
15.0643
15.011
14.9582
14.9058
15.8485
15.788
15.7281
15.6686
15.6097
15.5512
15.4932
15.4356
15.3784
15.3216
15.2652
15.2094
15.154
15.0991
15.0447
14.9908
14.9375
14.8847
15.84
15.7791
15.7189
15.6591
15.5998
15.5409
15.4824
15.4244
15.3667
15.3095
15.2528
15.1964
15.1406
15.0853
15.0304
14.9762
14.9224
14.8692
15.8342
15.7731
15.7126
15.6525
15.5929
15.5337
15.4749
15.4166
15.3586
15.301
15.2439
15.1872
15.1311
15.0754
15.0202
14.9656
14.9115
14.858
15.8302
15.769
15.7082
15.648
15.5881
15.5287
15.4697
15.4111
15.3528
15.295
15.2376
15.1807
15.1242
15.0683
15.0129
14.958
14.9037
14.8499
15.8275
15.7662
15.7053
15.6449
15.5849
15.5253
15.4661
15.4073
15.3489
15.2909
15.2333
15.1762
15.1195
15.0634
15.0078
14.9527
14.8982
14.8442
15.8257
15.7643
15.7034
15.6429
15.5828
15.5231
15.4637
15.4048
15.3463
15.2882
15.2305
15.1732
15.1165
15.0602
15.0044
14.9492
14.8946
14.8405
15.8249
15.7635
15.7025
15.6419
15.5818
15.522
15.4626
15.4036
15.345
15.2869
15.2291
15.1718
15.1149
15.0586
15.0028
14.9475
14.8928
14.8386
16.4013
16.3342
16.2679
16.2023
16.1373
16.0731
16.0095
15.9465
15.8841
15.8223
15.7609
15.7
15.6395
15.5795
15.5198
15.4605
15.4016
15.3431
15.2849
15.2272
15.1699
15.113
15.0567
15.0008
16.4018
16.3347
16.2683
16.2027
16.1378
16.0736
16.01
15.9471
15.8847
15.8229
15.7616
15.7007
15.6403
15.5803
15.5207
15.4615
15.4027
15.3442
15.2861
15.2285
15.1712
15.1144
15.0581
15.0023
16.4031
16.3359
16.2696
16.2039
16.139
16.0748
16.0113
15.9484
15.8861
15.8243
15.7631
15.7023
15.642
15.5821
15.5226
15.4635
15.4048
15.3464
15.2884
15.2309
15.1738
15.1171
15.0609
15.0052
16.4047
16.3375
16.2711
16.2055
16.1406
16.0764
16.0129
15.9501
15.8879
15.8262
15.7651
15.7045
15.6443
15.5846
15.5252
15.4663
15.4077
15.3495
15.2917
15.2344
15.1774
15.1209
15.0649
15.0094
16.4069
16.3397
16.2732
16.2076
16.1427
16.0786
16.0152
15.9525
15.8904
15.8289
15.7679
15.7075
15.6475
15.5879
15.5288
15.4701
15.4118
15.3538
15.2963
15.2392
15.1825
15.1263
15.0705
15.0153
16.4103
16.3431
16.2766
16.211
16.1462
16.0821
16.0188
15.9562
15.8942
15.8329
15.7722
15.712
15.6523
15.593
15.5342
15.4758
15.4177
15.3601
15.3029
15.2461
15.1898
15.1339
15.0785
15.0235
16.4165
16.3491
16.2826
16.217
16.1523
16.0883
16.0251
15.9627
15.9009
15.8398
15.7794
15.7195
15.6601
15.6012
15.5428
15.4848
15.4271
15.3699
15.3131
15.2568
15.2008
15.1454
15.0904
15.0359
16.4266
16.3592
16.2927
16.2272
16.1625
16.0986
16.0356
15.9734
15.9119
15.8512
15.7911
15.7316
15.6727
15.6142
15.5563
15.4988
15.4417
15.385
15.3288
15.2729
15.2175
15.1626
15.1082
15.0542
16.4421
16.3747
16.3083
16.2428
16.1782
16.1146
16.0518
15.9899
15.9288
15.8685
15.8089
15.7499
15.6915
15.6337
15.5764
15.5195
15.4631
15.4071
15.3516
15.2964
15.2417
15.1875
15.1337
15.0804
16.4649
16.3976
16.3313
16.266
16.2016
16.1382
16.0758
16.0143
15.9537
15.8939
15.8349
15.7766
15.719
15.6619
15.6054
15.5494
15.4939
15.4388
15.3841
15.3298
15.276
15.2226
15.1696
15.1171
16.4983
16.4312
16.365
16.3
16.2359
16.173
16.111
16.05
15.9901
15.931
15.8728
15.8154
15.7587
15.7027
15.6472
15.5923
15.5378
15.4838
15.4302
15.377
15.3242
15.2719
15.22
15.1684
16.5473
16.4804
16.4147
16.35
16.2865
16.2241
16.1628
16.1026
16.0434
15.9853
15.9282
15.872
15.8165
15.7619
15.7078
15.6543
15.6012
15.5486
15.4963
15.4445
15.393
15.342
15.2913
15.2409
16.6197
16.5533
16.4882
16.4242
16.3614
16.2998
16.2395
16.1804
16.1224
16.0657
16.0101
15.9555
15.9019
15.849
15.7969
15.7452
15.694
15.6432
15.5927
15.5425
15.4928
15.4433
15.394
15.345
16.7277
16.6623
16.5981
16.5352
16.4735
16.4133
16.3544
16.2969
16.2409
16.1862
16.1329
16.0808
16.0298
15.9796
15.9302
15.8813
15.8327
15.7843
15.7361
15.6883
15.6407
15.5932
15.5457
15.4982
16.8912
16.8272
16.7646
16.7034
16.6437
16.5856
16.5292
16.4744
16.4214
16.3701
16.3206
16.2726
16.2259
16.1802
16.1352
16.0905
16.0459
16.0011
15.9562
15.9115
15.8669
15.8221
15.7769
15.7311
17.1439
17.0823
17.0223
16.9641
16.9078
16.8534
16.8011
16.7511
16.7035
16.6584
16.6157
16.5751
16.5363
16.4985
16.4613
16.4239
16.3858
16.3467
16.307
16.2672
16.227
16.1859
16.1437
16.1001
17.5471
17.4895
17.4341
17.3811
17.3307
17.2832
17.2389
17.198
17.1609
17.1277
17.0983
17.0723
17.0489
17.0266
17.0041
16.9801
16.9537
16.9243
16.8931
16.861
16.8274
16.7916
16.753
16.7109
18.2347
18.1825
18.1337
18.0888
18.0482
18.0123
17.9819
17.9576
17.9401
17.9299
17.9271
17.9304
17.938
17.9467
17.9532
17.9548
17.9497
17.9369
17.9196
17.8993
17.8752
17.8462
17.8108
17.7682
19.4648
19.4167
19.3753
19.341
19.3148
19.2978
19.2916
19.298
19.3186
19.3549
19.4071
19.4728
19.546
19.6191
19.6845
19.7369
19.7731
19.7912
19.8006
19.8025
19.7957
19.7782
19.747
19.7
19.6374
21.7858
21.7565
21.7274
21.6995
21.6854
21.6911
21.7202
21.7776
21.8685
21.9981
22.1683
22.3735
22.597
22.8157
23.0105
23.1721
23.2975
23.3839
23.4592
23.5175
23.5567
23.5716
23.5545
23.5005
23.4096
26.4525
26.4246
26.4092