/*--------------------------------*- C++ -*----------------------------------*\
  =========                 |
  \\      /  F ield         | OpenFOAM: The Open Source CFD Toolbox
   \\    /   O peration     | Website:  https://openfoam.org
    \\  /    A nd           | Version:  13
     \\/     M anipulation  |
\*---------------------------------------------------------------------------*/
FoamFile
{
    format      ascii;
    class       volScalarField;
    location    "1000";
    object      p;
}
// * * * * * * * * * * * * * * * * * * * * * * * * * * * * * * * * * * * * * //

dimensions      [0 2 -2 0 0 0 0];

internalField   nonuniform List<scalar> 
171745
(
-1.65555
-2.12336
-2.59645
-3.07439
-3.55644
-4.04154
-4.52828
-5.01487
-5.49912
-5.97856
-6.45043
-6.91184
-7.35966
-7.79064
-8.20151
-8.5891
-8.95042
-9.28274
-9.58373
-9.85148
-10.0846
-10.282
-10.4435
-10.569
-1.66128
-2.12856
-2.60156
-3.07988
-3.56274
-4.04906
-4.53741
-5.02598
-5.51254
-5.99456
-6.46924
-6.93357
-7.38438
-7.81836
-8.23216
-8.62254
-8.9864
-9.32095
-9.62377
-9.89291
-10.1269
-10.3247
-10.486
-10.6109
-1.67195
-2.13814
-2.61092
-3.08988
-3.57427
-4.06298
-4.55455
-5.04711
-5.53836
-6.02567
-6.50608
-6.97646
-7.43346
-7.87363
-8.29346
-8.68953
-9.0586
-9.39768
-9.70423
-9.97618
-10.212
-10.4106
-10.5717
-10.6954
-1.68717
-2.15161
-2.62394
-3.1038
-3.59043
-4.08272
-4.57917
-5.07781
-5.57626
-6.07169
-6.56097
-7.0407
-7.5073
-7.95706
-8.38622
-8.79109
-9.16813
-9.51416
-9.82641
-10.1026
-10.3412
-10.5411
-10.7018
-10.8238
-1.70541
-2.16732
-2.63892
-3.11989
-3.60949
-4.1066
-4.60965
-5.11659
-5.62485
-6.13144
-6.63292
-7.12559
-7.60551
-8.0686
-8.51071
-8.92775
-9.31586
-9.67147
-9.99157
-10.2737
-10.516
-10.7175
-10.8778
-10.9972
-1.72521
-2.18365
-2.6541
-3.13632
-3.62959
-4.13276
-4.64421
-5.16175
-5.68269
-6.2037
-6.72106
-7.23063
-7.728
-8.20859
-8.66771
-9.10076
-9.50336
-9.87154
-10.2019
-10.4917
-10.7389
-10.9425
-11.102
-11.2181
-1.74422
-2.19805
-2.66681
-3.15033
-3.64792
-4.15842
-4.68015
-5.21082
-5.74747
-6.28654
-6.82385
-7.35478
-7.8743
-8.37714
-8.85793
-9.31138
-9.73246
-10.1166
-10.46
-10.7595
-11.0128
-11.2189
-11.3774
-11.489
-1.75972
-2.20754
-2.67388
-3.15861
-3.66111
-4.18021
-4.71419
-5.26062
-5.81639
-6.37752
-6.93942
-7.49679
-8.04384
-8.57446
-9.08237
-9.56135
-10.0055
-10.4097
-10.7693
-11.0808
-11.3418
-11.5508
-11.7078
-11.8137
-1.76818
-2.20832
-2.67127
-3.15697
-3.66485
-4.19378
-4.74202
-5.3071
-5.88563
-6.47337
-7.06509
-7.65477
-8.23568
-8.80059
-9.34204
-9.85266
-10.3255
-10.7544
-11.134
-11.4604
-11.7306
-11.9432
-12.0981
-12.1967
-1.76536
-2.19584
-2.65419
-3.14039
-3.65395
-4.19382
-4.75836
-5.34503
-5.95038
-6.56974
-7.19733
-7.82621
-8.44844
-9.05541
-9.63814
-10.1878
-10.6959
-11.1552
-11.5596
-11.9041
-12.1856
-12.4023
-12.5544
-12.6437
-1.74617
-2.16469
-2.61691
-3.10286
-3.62212
-4.17385
-4.75655
-5.3679
-6.00433
-6.66098
-7.33136
-8.00751
-8.68001
-9.33844
-9.97183
-10.5694
-11.1209
-11.6177
-12.0523
-12.4191
-12.7142
-12.9357
-13.0839
-13.1614
-1.70461
-2.10857
-2.55282
-3.03736
-3.56194
-4.12602
-4.72852
-5.36743
-6.03949
-6.73963
-7.46081
-8.19381
-8.92738
-9.64874
-10.3443
-11.0008
-11.6057
-12.1483
-12.62
-13.0141
-13.3259
-13.553
-13.6962
-13.7587
-1.63377
-2.0203
-2.45434
-2.9358
-3.46468
-4.04092
-4.66416
-5.33319
-6.0453
-6.79571
-7.57683
-8.3781
-9.18592
-9.98441
-10.7565
-11.4855
-12.1559
-12.755
-13.2723
-13.7
-14.0322
-14.2662
-14.4026
-14.4459
-1.52591
-1.892
-2.31324
-2.78934
-3.32059
-3.90774
-4.55162
-5.25238
-6.00866
-6.81638
-7.66789
-8.55111
-9.44948
-10.3429
-11.2095
-12.0278
-12.7789
-13.4473
-14.0207
-14.4898
-14.8475
-15.0899
-15.2176
-15.2365
-1.3724
-1.71501
-2.12036
-2.58782
-3.11808
-3.7131
-4.37558
-5.10805
-5.91143
-6.78354
-7.71712
-8.69866
-9.70791
-10.7189
-11.7028
-12.6317
-13.4821
-14.2357
-14.8783
-15.3991
-15.789
-16.0421
-16.1586
-16.1463
-1.16529
-1.48203
-1.86833
-2.32293
-2.84705
-3.44435
-4.12035
-4.88131
-5.73241
-6.6749
-7.70335
-8.80301
-9.94889
-11.1066
-12.2372
-13.3037
-14.2765
-15.1348
-15.863
-16.4484
-16.8797
-17.1474
-17.2501
-17.1977
-0.893182
-1.18212
-1.5457
-1.98166
-2.49181
-3.0821
-3.76208
-4.54383
-5.43925
-6.45607
-7.59305
-8.83568
-10.1523
-11.4961
-12.8123
-14.0505
-15.1736
-16.1595
-16.9937
-17.661
-18.1458
-18.4341
-18.52
-18.4157
-0.555431
-0.816618
-1.15403
-1.56387
-2.04852
-2.61699
-3.28465
-4.07188
-5.00106
-6.09099
-7.34925
-8.76353
-10.2943
-11.8763
-13.43
-14.8831
-16.1897
-17.3304
-18.2957
-19.0693
-19.6262
-19.9436
-20.0108
-19.8403
-0.133061
-0.369286
-0.678233
-1.05368
-1.49824
-2.02432
-2.6546
-3.42118
-4.36228
-5.51428
-6.9011
-8.52016
-10.3251
-12.2211
-14.0854
-15.81
-17.3383
-18.6632
-19.7894
-20.701
-21.3582
-21.7176
-21.7584
-21.4999
-20.999
0.342505
0.126541
-0.150984
-0.48036
-0.863478
-1.31595
-1.86869
-2.56793
-3.47473
-4.65725
-6.1727
-8.04016
-10.2074
-12.531
-14.8088
-16.872
-18.6578
-20.1939
-21.5175
-22.6139
-23.4205
-23.8544
-23.8644
-23.4773
-22.7947
0.909085
0.700126
0.450845
0.175901
-0.124142
-0.466216
-0.889302
-1.45887
-2.26836
-3.43409
-5.07001
-7.24217
-9.90361
-12.8383
-15.689
-18.1634
-20.2123
-21.9552
-23.499
-24.829
-25.8461
-26.3993
-26.371
-25.8152
-24.898
1.45381
1.24032
1.01813
0.808546
0.616988
0.427564
0.195179
-0.16536
-0.78812
-1.85441
-3.56844
-6.09064
-9.41313
-13.2143
-16.9202
-19.9521
-22.2756
-24.1985
-25.9715
-27.5926
-28.9367
-29.6399
-29.4997
-28.6547
-27.4004
1.92597
1.66974
1.44652
1.28463
1.19707
1.17331
1.16848
1.08854
0.765771
-0.0610662
-1.73562
-4.6012
-8.73858
-13.5685
-18.2893
-21.9775
-24.5568
-26.6009
-28.5808
-30.4922
-32.6569
-33.7467
-33.3604
-32.06
-30.3317
1.82538
1.50838
1.2783
1.17053
1.20774
1.393
1.69684
2.03495
2.22929
1.95592
0.684574
-2.25512
-7.31582
-12.4566
-18.5272
-23.1213
-26.137
-28.2419
-30.3079
-32.4057
-36.5839
-38.6762
-37.7405
-35.8236
-33.4966
-31.0565
0.837733
0.659225
0.655086
0.863751
1.31255
2.00788
2.91016
3.88574
4.63371
4.49703
2.42765
-2.93856
-10.7334
-20.0835
-27.2458
-30.5772
-32.7171
-34.3039
-36.435
-38.3451
-42.4023
-40.2297
-37.6478
-34.3756
-31.0531
-0.221226
-0.121286
0.251666
0.953201
2.03294
3.52457
5.40047
7.50284
9.42564
7.6545
4.28112
-4.73343
-17.0526
-28.708
-39.2599
-38.5428
-36.424
-37.7849
-39.8443
-41.511
-40.5971
-39.0714
-36.4208
-32.9318
-0.909374
-0.765596
-0.324594
0.491935
1.76447
3.57007
5.97131
8.94777
12.211
13.2242
13.5359
8.60323
0.878437
-17.8189
-88.3123
-48.8735
-37.4885
-37.5867
-38.9748
-40.394
-40.1604
-38.5711
-36.1156
-33.1972
-1.15291
-0.811134
-0.109674
1.01824
2.62017
4.70643
7.17638
9.70362
11.9888
12.8196
12.2844
11.9853
-37.6122
-38.349
-39.3307
-41.4138
-41.5234
-39.3004
-36.3693
-32.9995
-39.6037
-41.1466
-42.8084
-43.9338
-41.6953
-37.6573
-33.5116
-40.7394
-44.894
-43.6712
-40.6858
-36.8049
-41.8054
-41.2362
-39.0738
-36.4087
-2.54335
-4.34764
-6.97709
-10.434
-14.3898
-18.2374
-21.339
-23.6079
-25.3296
-26.7914
-28.05
-29.013
-29.3882
-28.9809
-27.9351
-26.5646
-25.0598
-4.07063
-5.77984
-8.03564
-10.7915
-13.824
-16.7548
-19.26
-21.263
-22.8723
-24.2074
-25.2834
-26.0271
-26.318
-26.0662
-25.3332
-24.2858
-23.078
-21.8036
-5.24249
-6.81432
-8.74305
-10.9739
-13.3575
-15.6786
-17.7509
-19.4961
-20.9352
-22.1116
-23.0254
-23.631
-23.8663
-23.6951
-23.1572
-22.3588
-21.4072
-20.3785
-6.05171
-7.48025
-9.14212
-10.9882
-12.9188
-14.8033
-16.5236
-18.0142
-19.2638
-20.2804
-21.0569
-21.5646
-21.7731
-21.6721
-21.2878
-20.6847
-19.9379
-19.1078
-6.58348
-7.87214
-9.31557
-10.8718
-12.472
-14.0315
-15.4723
-16.7435
-17.8236
-18.7047
-19.3757
-19.8196
-20.0208
-19.9741
-19.7007
-19.2452
-18.6601
-17.9911
-6.90753
-8.06617
-9.32812
-10.6596
-12.0111
-13.3247
-14.5464
-15.6367
-16.5722
-17.3394
-17.9268
-18.3233
-18.5186
-18.5134
-18.3253
-17.9851
-17.5293
-16.9923
-7.08923
-8.13258
-9.24446
-10.3981
-11.557
-12.6802
-13.7286
-14.6713
-15.4865
-16.1599
-16.681
-17.041
-17.234
-17.2631
-17.1417
-16.8913
-16.5381
-16.1078
-7.16507
-8.1086
-9.09717
-10.1092
-11.1172
-12.091
-13.0014
-13.8241
-14.5405
-15.1372
-15.6049
-15.9364
-16.1284
-16.1843
-16.1143
-15.9339
-15.662
-15.3182
-7.16898
-8.02671
-8.91326
-9.81105
-10.6989
-11.554
-12.3541
-13.0798
-13.7156
-14.2498
-14.6742
-14.9831
-15.1746
-15.2516
-15.2215
-15.096
-14.8889
-14.6152
-7.12304
-7.90757
-8.70953
-9.51454
-10.3059
-11.0659
-11.7772
-12.4244
-12.9945
-13.4779
-13.8672
-14.158
-14.3489
-14.4421
-14.4433
-14.3611
-14.2059
-13.9893
-7.04498
-7.76746
-8.49929
-9.22856
-9.94188
-10.6252
-11.2648
-11.8482
-12.365
-12.8068
-13.1676
-13.4435
-13.6335
-13.7393
-13.7651
-13.7173
-13.6039
-13.4338
-6.94731
-7.61745
-8.29111
-8.95832
-9.6082
-10.2294
-10.8109
-11.3426
-11.8159
-12.2238
-12.5613
-12.825
-13.014
-13.1295
-13.1746
-13.1542
-13.0745
-12.9423
-6.83971
-7.46591
-8.09136
-8.70768
-9.30585
-9.87663
-10.411
-10.9007
-11.3386
-11.7188
-12.0371
-12.2907
-12.4785
-12.6015
-12.6618
-12.6633
-12.6108
-12.5096
-6.72934
-7.31883
-7.90443
-8.47902
-9.03505
-9.56486
-10.061
-10.5166
-10.9256
-11.2833
-11.5859
-11.831
-12.0176
-12.1462
-12.2187
-12.2377
-12.2071
-12.1313
-6.62163
-7.18066
-7.73348
-8.27397
-8.79573
-9.29231
-9.75744
-10.1854
-10.5711
-10.9104
-11.2001
-11.4381
-11.6235
-11.7566
-11.8385
-11.8716
-11.8587
-11.8035
-6.52067
-7.05467
-7.58073
-8.09353
-8.58758
-9.05734
-9.4975
-9.90316
-10.27
-10.5944
-10.8737
-11.1059
-11.2901
-11.4265
-11.5159
-11.5602
-11.5616
-11.523
-6.42959
-6.94329
-7.44778
-7.93835
-8.41021
-8.85856
-9.2788
-9.66668
-10.0184
-10.331
-10.6018
-10.8293
-11.0125
-11.1514
-11.2467
-11.2997
-11.3124
-11.2872
-6.35069
-6.84827
-7.33569
-7.80874
-8.26316
-8.69472
-9.09934
-9.47328
-9.81323
-10.1164
-10.3806
-10.6043
-10.7866
-10.9274
-11.0271
-11.087
-11.1086
-11.0939
-6.28579
-6.77098
-7.24532
-7.70499
-8.14612
-8.56488
-8.95763
-9.32097
-9.65191
-9.94794
-10.2071
-10.4278
-10.6094
-10.7515
-10.8547
-10.9197
-10.948
-10.9413
-6.236
-6.71219
-7.17706
-7.62704
-8.05858
-8.46812
-8.8523
-9.208
-9.53246
-9.82334
-10.0788
-10.2974
-10.4784
-10.6215
-10.7271
-10.7959
-10.829
-10.8281
-6.20248
-6.67281
-7.13152
-7.57523
-8.00054
-8.4041
-8.78273
-9.13349
-9.45374
-9.74128
-9.99432
-10.2116
-10.3922
-10.536
-10.6431
-10.7142
-10.7505
-10.7533
-6.18534
-6.65281
-7.1085
-7.54913
-7.97139
-8.37204
-8.74796
-9.09631
-9.41453
-9.70045
-9.95234
-10.1689
-10.3494
-10.4935
-10.6014
-10.6738
-10.7117
-10.7164
-1.64657
-2.11482
-2.58835
-3.06671
-3.54915
-4.03458
-4.52161
-5.00841
-5.49284
-5.97237
-6.44432
-6.90574
-7.35354
-7.78449
-8.19531
-8.58287
-8.94415
-9.27646
-9.57746
-9.84523
-10.0783
-10.2759
-10.4374
-10.563
-1.65227
-2.12
-2.59345
-3.0722
-3.55546
-4.04215
-4.53081
-5.01963
-5.50638
-5.98853
-6.46328
-6.92763
-7.37841
-7.81232
-8.22605
-8.61634
-8.98015
-9.31466
-9.61747
-9.88663
-10.1206
-10.3185
-10.4799
-10.6049
-1.66291
-2.12959
-2.60284
-3.08227
-3.5671
-4.05621
-4.54813
-5.04095
-5.53242
-6.01986
-6.50036
-6.97074
-7.4277
-7.86777
-8.28748
-8.68344
-9.0524
-9.39141
-9.69792
-9.96986
-10.2057
-10.4044
-10.5656
-10.6894
-1.6781
-2.14308
-2.61595
-3.09633
-3.58345
-4.07619
-4.57301
-5.07197
-5.57063
-6.06621
-6.55556
-7.03529
-7.50183
-7.95146
-8.38047
-8.78517
-9.16207
-9.50797
-9.82013
-10.0963
-10.3349
-10.5348
-10.6956
-10.8177
-1.69631
-2.15886
-2.63107
-3.11263
-3.60279
-4.1004
-4.60388
-5.11114
-5.61967
-6.1264
-6.62796
-7.12062
-7.60045
-8.06338
-8.50529
-8.92212
-9.31
-9.66543
-9.98538
-10.2674
-10.5097
-10.7112
-10.8715
-10.991
-1.71608
-2.17528
-2.64645
-3.12936
-3.62328
-4.12703
-4.63895
-5.1569
-5.67809
-6.19929
-6.71672
-7.22626
-7.72352
-8.2039
-8.66277
-9.09552
-9.49783
-9.86573
-10.1958
-10.4854
-10.7326
-10.936
-11.0956
-11.2116
-1.73511
-2.18983
-2.65945
-3.14379
-3.64214
-4.15332
-4.67563
-5.20673
-5.74373
-6.28298
-6.82038
-7.35126
-7.87062
-8.3732
-8.85365
-9.30672
-9.72738
-10.1111
-10.4541
-10.7533
-11.0065
-11.2123
-11.3707
-11.4823
-1.75066
-2.19956
-2.66693
-3.15265
-3.65605
-4.17597
-4.71062
-5.25762
-5.81375
-6.37514
-6.93711
-7.49442
-8.04127
-8.57156
-9.07902
-9.55748
-10.0011
-10.4047
-10.7638
-11.0748
-11.3354
-11.5441
-11.7009
-11.8067
-1.75924
-2.20069
-2.66488
-3.15177
-3.66075
-4.19065
-4.73975
-5.30547
-5.88451
-6.47253
-7.06437
-7.65397
-8.23463
-8.79911
-9.33998
-9.84992
-10.322
-10.7501
-11.129
-11.4547
-11.7243
-11.9363
-12.0909
-12.1892
-1.75663
-2.1887
-2.64855
-3.1362
-3.65109
-4.19218
-4.75773
-5.34528
-5.95122
-6.571
-7.19875
-7.82755
-8.44947
-9.05589
-9.63787
-10.1866
-10.6937
-11.152
-11.5553
-11.8988
-12.1794
-12.3952
-12.5466
-12.6355
-1.73776
-2.1582
-2.61226
-3.09996
-3.62087
-4.17409
-4.75812
-5.37052
-6.00781
-6.665
-7.33566
-8.01176
-8.68389
-9.34163
-9.97405
-10.5704
-11.1206
-11.6159
-12.049
-12.4144
-12.7081
-12.9284
-13.0756
-13.1523
-1.69664
-2.10292
-2.54941
-3.03611
-3.56272
-4.12869
-4.73284
-5.37321
-6.04638
-6.74735
-7.46898
-8.20202
-8.9352
-9.65573
-10.3501
-11.0049
-11.6079
-12.1486
-12.6183
-13.0104
-13.3202
-13.5456
-13.6872
-13.7483
-1.62636
-2.01569
-2.45245
-2.93657
-3.46799
-4.0466
-4.67203
-5.34294
-6.05669
-6.8083
-7.59022
-8.39174
-9.19922
-9.99673
-10.7672
-11.494
-12.1619
-12.7582
-13.2728
-13.6976
-14.0271
-14.2584
-14.3925
-14.4338
-1.51916
-1.88863
-2.31318
-2.79254
-3.32696
-3.91716
-4.56386
-5.26726
-6.02581
-6.83547
-7.68834
-8.57222
-9.47043
-10.3627
-11.2272
-12.0426
-12.7902
-13.4548
-14.0244
-14.4897
-14.8435
-15.082
-15.2062
-15.222
-1.36632
-1.71297
-2.12235
-2.59382
-3.12806
-3.72696
-4.39323
-5.12925
-5.93601
-6.81106
-7.74708
-8.73018
-9.73978
-10.7496
-11.7308
-12.6557
-13.5013
-14.2496
-14.887
-15.4027
-15.7872
-16.0347
-16.1459
-16.1286
-1.1598
-1.48135
-1.87251
-2.33204
-2.86113
-3.46346
-4.14449
-4.91056
-5.76656
-6.71376
-7.74638
-8.84934
-9.99678
-11.1536
-12.2806
-13.3413
-14.3069
-15.1577
-15.8789
-16.4577
-16.8817
-17.1412
-17.2355
-17.1752
-0.887814
-1.18249
-1.55198
-1.994
-2.51039
-3.10714
-3.79401
-4.58292
-5.48574
-6.50996
-7.65419
-8.90288
-10.2233
-11.567
-12.8784
-14.1075
-15.2198
-16.1952
-17.0201
-17.6792
-18.1549
-18.4309
-18.5031
-18.3859
-0.550775
-0.818724
-1.16321
-1.58043
-2.07282
-2.64951
-3.32599
-4.12291
-5.06261
-6.16425
-7.43495
-8.86129
-10.4014
-11.9857
-13.5322
-14.9703
-16.2592
-17.3843
-18.3376
-19.101
-19.6466
-19.9468
-19.9912
-19.7989
-0.126995
-0.371222
-0.688713
-1.07319
-1.52733
-2.0637
-2.70542
-3.48486
-4.44132
-5.61259
-7.02234
-8.66499
-10.4889
-12.3914
-14.2439
-15.9417
-17.4402
-18.7423
-19.8549
-20.7562
-21.3981
-21.7317
-21.7362
-21.4404
-20.9123
0.345401
0.120104
-0.167448
-0.507514
-0.902009
-1.3668
-1.93334
-2.64934
-3.57705
-4.78675
-6.33749
-8.247
-10.4535
-12.7938
-15.0521
-17.0681
-18.8048
-20.3103
-21.6237
-22.7152
-23.4995
-23.8837
-23.8298
-23.3854
-22.661
0.914428
0.692849
0.430891
0.143161
-0.16984
-0.52535
-0.962757
-1.54851
-2.37913
-3.57611
-5.2628
-7.51197
-10.2646
-13.2466
-16.0594
-18.4406
-20.3993
-22.098
-23.6442
-24.9881
-25.9739
-26.4359
-26.3008
-25.6526
-24.6725
1.44049
1.21195
0.976213
0.755752
0.556408
0.362598
0.130709
-0.225997
-0.848435
-1.9337
-3.71334
-6.38417
-9.91632
-13.8743
-17.5109
-20.3461
-22.4813
-24.3262
-26.1325
-27.8073
-29.0646
-29.6223
-29.3255
-28.3675
-27.0401
1.9224
1.64311
1.4047
1.23678
1.15447
1.15227
1.19091
1.17446
0.920233
0.130932
-1.61073
-4.77334
-9.38586
-14.5881
-19.2546
-22.5799
-24.7811
-26.7046
-28.8356
-30.9672
-32.6144
-33.5117
-33.0128
-31.5775
-29.7517
1.90074
1.55622
1.30774
1.19439
1.24338
1.46394
1.83588
2.28702
2.63322
2.48892
1.17842
-2.17597
-7.26093
-14.0771
-20.032
-24.2083
-26.3893
-28.0514
-30.1817
-32.5509
-34.6649
-37.4165
-37.1777
-35.2348
-32.9063
-30.5631
0.746757
0.542943
0.538902
0.775289
1.28543
2.08536
3.14774
4.35739
5.34838
5.36742
2.15045
-3.12748
-14.0299
-24.2907
-31.5087
-30.3937
-30.7824
-33.7134
-36.3715
-38.4664
-39.8818
-40.3404
-37.6888
-34.7829
-31.6845
-0.743741
-0.622599
-0.196741
0.598754
1.82579
3.52451
5.69086
8.13629
8.89307
9.95595
4.31484
-8.55799
-23.6652
-57.2977
-42.2379
-26.7332
-34.8458
-37.4634
-39.2717
-41.101
-40.9738
-38.8752
-36.8466
-33.6224
-1.39377
-1.24174
-0.770164
0.117749
1.52677
3.57874
6.42062
10.1229
12.7267
16.9709
14.4915
2.27383
-38.6257
-40.428
-40.6455
-39.0686
-36.3215
-33.8108
-1.67365
-1.27308
-0.47425
0.811061
2.65644
5.12302
8.21321
11.3292
15.5336
16.1694
20.1498
-39.4119
-41.6125
-42.6984
-40.3206
-36.9874
-33.7214
-39.1126
-41.3089
-43.627
-44.9394
-42.9459
-38.5922
-34.2216
-40.6031
-43.8164
-45.0691
-41.4724
-37.2803
-40.297
-40.77
-38.5163
-35.5962
-2.6073
-4.47743
-7.25663
-10.9252
-15.0399
-18.8087
-21.703
-23.7889
-25.4709
-27.0181
-28.3763
-29.2894
-29.5105
-28.9042
-27.6996
-26.2227
-24.6706
-4.20242
-5.96065
-8.29172
-11.1369
-14.2143
-17.1029
-19.5113
-21.4271
-23.0074
-24.37
-25.4868
-26.2223
-26.4275
-26.0532
-25.2087
-24.0866
-22.8431
-21.5618
-5.36498
-6.97033
-8.93879
-11.2063
-13.6038
-15.9029
-17.9269
-19.6251
-21.0407
-22.2184
-23.1413
-23.7369
-23.9284
-23.6921
-23.0901
-22.2424
-21.2628
-20.225
-6.14544
-7.59546
-9.27911
-11.1421
-13.077
-14.9477
-16.6403
-18.1021
-19.3329
-20.3425
-21.1166
-21.6167
-21.8033
-21.666
-21.2436
-20.611
-19.8468
-19.0101
-6.65311
-7.95337
-9.4078
-10.972
-12.5731
-14.1242
-15.5495
-16.8035
-17.8702
-18.7429
-19.4086
-19.845
-20.0307
-19.9631
-19.6687
-19.1961
-18.5998
-17.9258
-6.95857
-8.12382
-9.39113
-10.7256
-12.0763
-13.3844
-14.5969
-15.6767
-16.6028
-17.3627
-17.9444
-18.3335
-18.5185
-18.5014
-18.3013
-17.9508
-17.4879
-16.9474
-7.12581
-8.173
-9.28767
-10.4423
-11.5999
-12.7192
-13.7617
-14.6974
-15.506
-16.1735
-16.6894
-17.0433
-17.2295
-17.2513
-17.1226
-16.8661
-16.5085
-16.076
-7.19078
-8.13643
-9.12626
-10.1383
-11.145
-12.1159
-13.0224
-13.8405
-14.5521
-15.1444
-15.6077
-15.9346
-16.122
-16.1733
-16.0988
-15.9145
-15.64
-15.2949
-7.18657
-8.04545
-8.93249
-9.82995
-10.7166
-11.5696
-12.3668
-13.0892
-13.7215
-14.2524
-14.6736
-14.9791
-15.1674
-15.2413
-15.2084
-15.0806
-14.872
-14.5977
-7.13442
-7.9196
-8.72171
-9.5263
-10.3167
-11.0751
-11.7843
-12.4291
-12.9967
-13.4776
-13.8645
-14.1529
-14.3415
-14.4327
-14.4322
-14.3486
-14.1926
-13.9757
-7.0517
-7.77454
-8.50636
-9.2352
-9.9477
-10.6298
-11.2679
-11.8496
-12.3646
-12.8046
-13.1636
-13.4379
-13.6263
-13.7308
-13.7554
-13.7068
-13.593
-13.4229
-6.95051
-7.62087
-8.29445
-8.96129
-9.61052
-10.2308
-10.8112
-11.3417
-11.8137
-12.2203
-12.5565
-12.819
-13.0069
-13.1215
-13.1659
-13.1451
-13.0652
-12.9331
-6.84028
-7.46661
-8.09197
-8.70799
-9.30566
-9.87578
-10.4094
-10.8982
-11.3351
-11.7144
-12.0318
-12.2845
-12.4716
-12.594
-12.654
-12.6553
-12.6027
-12.5017
-6.72793
-7.31751
-7.90304
-8.47739
-9.03305
-9.56236
-10.0579
-10.5128
-10.9212
-11.2782
-11.5802
-11.8247
-12.0109
-12.1391
-12.2114
-12.2303
-12.1999
-12.1242
-6.61875
-7.17785
-7.73062
-8.27094
-8.79242
-9.28864
-9.75335
-10.1808
-10.566
-10.9049
-11.1942
-11.4318
-11.6169
-11.7498
-11.8316
-11.8647
-11.852
-11.7971
-6.51669
-7.05075
-7.57679
-8.08947
-8.58331
-9.05282
-9.49269
-9.89802
-10.2645
-10.5886
-10.8676
-11.0996
-11.2837
-11.4199
-11.5094
-11.5537
-11.5553
-11.517
-6.4248
-6.93857
-7.44304
-7.93354
-8.40526
-8.85344
-9.27348
-9.66114
-10.0127
-10.325
-10.5957
-10.823
-11.0061
-11.145
-11.2403
-11.2935
-11.3064
-11.2815
-6.34531
-6.84296
-7.33038
-7.80339
-8.25772
-8.68917
-9.09366
-9.46746
-9.80726
-10.1103
-10.3744
-10.598
-10.7803
-10.9211
-11.021
-11.081
-11.1028
-11.0884
-6.27999
-6.76525
-7.23961
-7.69926
-8.14034
-8.55903
-8.95169
-9.31495
-9.64581
-9.94177
-10.2008
-10.4216
-10.6031
-10.7454
-10.8487
-10.9139
-10.9424
-10.9359
-6.22991
-6.70617
-7.17107
-7.62106
-8.05257
-8.46207
-8.8462
-9.20185
-9.52627
-9.81711
-10.0725
-10.2912
-10.4722
-10.6155
-10.7212
-10.7901
-10.8235
-10.8228
-6.19621
-6.66662
-7.12537
-7.56909
-7.99439
-8.39793
-8.77654
-9.12726
-9.44749
-9.73502
-9.98807
-10.2053
-10.386
-10.5299
-10.6372
-10.7085
-10.745
-10.7482
-6.17897
-6.64652
-7.10226
-7.54291
-7.96517
-8.36581
-8.74172
-9.09004
-9.40824
-9.69416
-9.94606
-10.1627
-10.3433
-10.4875
-10.5956
-10.6681
-10.7062
-10.7113
-1.62876
-2.09786
-2.5722
-3.05132
-3.53443
-4.02046
-4.50798
-4.9952
-5.47994
-5.95971
-6.4318
-6.89329
-7.34108
-7.77196
-8.18268
-8.57012
-8.9313
-9.26354
-9.56449
-9.83226
-10.0654
-10.2631
-10.4248
-10.5507
-1.63443
-2.10306
-2.57736
-3.05689
-3.54086
-4.02817
-4.51737
-5.00662
-5.4937
-5.97608
-6.45097
-6.91538
-7.36613
-7.79994
-8.21353
-8.60368
-8.96735
-9.30176
-9.60451
-9.87364
-10.1077
-10.3057
-10.4673
-10.5926
-1.64501
-2.11266
-2.58683
-3.06711
-3.55271
-4.0425
-4.535
-5.0283
-5.52012
-6.0078
-6.48843
-6.95885
-7.41574
-7.85568
-8.27521
-8.67096
-9.03972
-9.37857
-9.68497
-9.95685
-10.1927
-10.3915
-10.5528
-10.6769
-1.66011
-2.12619
-2.60008
-3.08142
-3.56941
-4.06291
-4.56038
-5.05985
-5.55891
-6.05474
-6.54422
-7.02396
-7.49039
-7.93984
-8.36859
-8.773
-9.14962
-9.49528
-9.80725
-10.0833
-10.3218
-10.5217
-10.6827
-10.805
-1.67823
-2.14204
-2.61543
-3.0981
-3.58926
-4.08774
-4.59196
-5.09982
-5.60877
-6.11578
-6.61745
-7.11009
-7.58977
-8.05243
-8.494
-8.91044
-9.29793
-9.65299
-9.97262
-10.2544
-10.4965
-10.698
-10.8583
-10.978
-1.69792
-2.1586
-2.63117
-3.11537
-3.61046
-4.11524
-4.62803
-5.14665
-5.66835
-6.18984
-6.70739
-7.21687
-7.71391
-8.19393
-8.65233
-9.08456
-9.48631
-9.85367
-10.1833
-10.4725
-10.7193
-10.9226
-11.082
-11.1982
-1.71691
-2.1734
-2.64468
-3.13056
-3.6303
-4.1427
-4.66603
-5.19796
-5.73552
-6.27513
-6.81265
-7.34343
-7.86249
-8.36459
-8.84442
-9.29676
-9.71666
-10.0996
-10.4419
-10.7405
-10.9931
-11.1986
-11.3567
-11.4683
-1.73248
-2.18351
-2.65288
-3.14044
-3.64552
-4.16691
-4.70281
-5.25079
-5.80764
-6.36944
-6.93156
-7.48872
-8.03518
-8.56483
-9.07146
-9.54895
-9.99154
-10.394
-10.7521
-11.0622
-11.3219
-11.53
-11.6863
-11.7918
-1.74119
-2.1852
-2.65181
-3.14094
-3.65195
-4.18367
-4.73428
-5.30124
-5.88116
-6.46973
-7.06174
-7.65118
-8.23132
-8.79497
-9.33474
-9.84337
-10.314
-10.7406
-11.1181
-11.4424
-11.7107
-11.9217
-12.0754
-12.1732
-1.73883
-2.174
-2.63678
-3.12716
-3.64456
-4.18787
-4.75535
-5.34443
-5.95155
-6.57204
-7.20007
-7.82869
-8.44997
-9.05533
-9.63586
-10.1828
-10.688
-11.1442
-11.5455
-11.887
-12.1657
-12.38
-12.5301
-12.618
-1.72037
-2.14456
-2.60219
-3.09323
-3.61723
-4.17324
-4.75969
-5.37412
-6.01293
-6.67115
-7.34226
-8.01823
-8.68961
-9.346
-9.97653
-10.5705
-11.1181
-11.6105
-12.0408
-12.4035
-12.6946
-12.9125
-13.0577
-13.1329
-1.67983
-2.09065
-2.54148
-3.03229
-3.56275
-4.13223
-4.73952
-5.38253
-6.05782
-6.76027
-7.48269
-8.21573
-8.94809
-9.66695
-10.3588
-11.0105
-11.6099
-12.1468
-12.6126
-13.0008
-13.3069
-13.5288
-13.6674
-13.7261
-1.6103
-2.0051
-2.44714
-2.93632
-3.47254
-4.05564
-4.68513
-5.35963
-6.07632
-6.83018
-7.61346
-8.41533
-9.22201
-10.0175
-10.7848
-11.5073
-12.1703
-12.7614
-13.2705
-13.69
-14.0143
-14.2407
-14.3703
-14.4079
-1.50399
-1.88004
-2.31102
-2.79662
-3.33706
-3.93299
-4.58506
-5.29331
-6.05611
-6.86917
-7.72442
-8.60935
-9.50701
-10.397
-11.2573
-12.0669
-12.8077
-13.465
-14.0273
-14.4853
-14.8318
-15.0633
-15.1809
-15.1909
-1.35197
-1.70649
-2.12367
-2.60284
-3.14465
-3.75094
-4.42429
-5.16703
-5.9799
-6.86027
-7.80039
-8.78595
-9.79572
-10.803
-11.7786
-12.6955
-13.5315
-14.2697
-14.8973
-15.4031
-15.7775
-16.015
-16.1164
-16.0903
-1.14647
-1.47738
-1.87794
-2.34689
-2.88544
-3.4972
-4.18766
-4.96295
-5.82789
-6.78334
-7.82309
-8.93109
-10.0803
-11.2346
-12.3541
-13.4031
-14.3548
-15.1913
-15.8993
-16.4654
-16.8758
-17.1209
-17.2006
-17.1266
-0.874461
-1.1803
-1.56117
-2.01479
-2.543
-3.15186
-3.85112
-4.65277
-5.56852
-6.60572
-7.76215
-9.02075
-10.3464
-11.688
-12.9887
-14.2001
-15.2914
-16.2467
-17.0543
-17.6979
-18.1563
-18.4117
-18.4616
-18.3224
-0.538821
-0.819405
-1.17713
-1.60815
-2.11498
-2.70681
-3.39932
-4.21333
-5.17158
-6.29314
-7.58475
-9.03051
-10.5839
-12.169
-13.6999
-15.109
-16.3645
-17.4607
-18.3925
-19.1389
-19.6649
-19.9369
-19.9459
-19.7171
-0.115253
-0.373849
-0.706389
-1.1067
-1.57765
-2.13217
-2.79384
-3.596
-4.57875
-5.78176
-7.22976
-8.91314
-10.7688
-12.6787
-14.5048
-16.1501
-17.591
-18.8501
-19.9388
-20.8263
-21.4496
-21.7455
-21.6932
-21.336
-20.7591
0.35415
0.112161
-0.192472
-0.550315
-0.963808
-1.44938
-2.03999
-2.78574
-3.75212
-5.01294
-6.6302
-8.61771
-10.8905
-13.25
-15.4593
-17.3759
-19.0126
-20.4578
-21.7545
-22.8492
-23.622
-23.9535
-23.8044
-23.2574
-22.4574
0.903894
0.664776
0.384403
0.0775627
-0.255492
-0.632966
-1.09608
-1.71456
-2.59177
-3.85952
-5.65418
-8.0538
-10.9483
-13.9739
-16.6811
-18.858
-20.6362
-22.2585
-23.826
-25.232
-26.2383
-26.6117
-26.3009
-25.4798
-24.3899
1.37681
1.12919
0.872474
0.629571
0.4085
0.195441
-0.0532648
-0.428003
-1.08199
-2.24047
-4.18459
-7.14852
-10.9965
-15.0993
-18.5158
-20.8888
-22.6565
-24.3982
-26.3291
-28.2328
-29.6098
-29.9913
-29.364
-28.1025
-26.6166
1.80768
1.51797
1.26699
1.08538
0.98934
0.978274
1.02565
1.04136
0.823544
0.0167684
-1.94295
-5.72278
-10.923
-16.6461
-20.9519
-23.2746
-24.7615
-26.5551
-29.0469
-31.8077
-33.763
-34.0511
-33.0157
-31.1773
-29.1753
1.68091
1.35716
1.12847
1.03698
1.11423
1.37554
1.80864
2.37822
2.9198
2.96946
1.64002
-2.78276
-9.26378
-16.9457
-22.8741
-25.3484
-26.2079
-27.5987
-30.3668
-33.8518
-36.3195
-36.8163
-36.4575
-34.351
-32.0095
-29.7315
0.533823
0.328135
0.340762
0.621753
1.21888
2.17099
3.48023
5.1085
6.7987
5.07538
2.98517
-6.51115
-21.7178
-29.144
-30.605
-28.8225
-28.82
-32.2502
-37.0649
-42.6029
-41.2018
-38.9277
-36.6557
-34.2655
-31.6519
-0.747931
-0.612181
-0.151688
0.721473
2.11144
4.11987
6.80238
8.13421
12.0303
12.6435
2.72434
-29.8786
-51.8702
-50.957
-40.9953
-40.0165
-38.8044
-37.3465
-34.1996
-1.98829
-1.7317
-1.13812
-0.087664
1.54748
3.91529
7.14108
10.4364
16.7473
20.192
8.18415
-40.7319
-40.8242
-38.6583
-37.3326
-35.0179
-2.40345
-1.94672
-1.03088
0.453415
2.60303
5.47439
9.71572
15.6708
20.1544
19.4323
-44.21
-40.5398
-37.4164
-34.2396
-44.1335
-46.9319
-43.9372
-37.3822
-33.321
-43.3231
-45.5119
-40.1438
-35.5538
-40.9165
-38.8567
-36.9812
-33.7273
-37.0315
-35.9198
-33.8698
-31.2256
-2.90285
-4.9362
-8.002
-11.9735
-16.2151
-19.7481
-22.1654
-23.8862
-25.4982
-27.2298
-28.8911
-29.9952
-30.0688
-29.1157
-27.5626
-25.8761
-24.2471
-4.47794
-6.34085
-8.81606
-11.7926
-14.9015
-17.6735
-19.8705
-21.6086
-23.13
-24.5427
-25.758
-26.5511
-26.6941
-26.1471
-25.1132
-23.8604
-22.5581
-21.267
-5.58513
-7.25385
-9.29532
-11.6224
-14.0314
-16.2745
-18.195
-19.7952
-21.1603
-22.3372
-23.2833
-23.889
-24.0422
-23.7159
-23.0079
-22.0767
-21.0509
-19.9984
-6.30832
-7.79461
-9.51585
-11.4064
-13.3441
-15.1844
-16.822
-18.2273
-19.4206
-20.4155
-21.1873
-21.68
-21.8378
-21.6492
-21.1666
-20.4834
-19.6884
-18.8404
-6.77629
-8.09591
-9.56781
-11.1429
-12.7423
-14.2757
-15.6708
-16.8923
-17.9331
-18.7898
-19.4448
-19.8675
-20.0308
-19.9323
-19.6034
-19.1008
-18.485
-17.8028
-7.04948
-8.2258
-9.50165
-10.8398
-12.187
-13.4834
-14.6778
-15.7373
-16.6453
-17.3912
-17.9609
-18.3363
-18.5049
-18.4685
-18.2482
-17.8802
-17.4053
-16.8595
-7.19144
-8.24493
-9.36375
-10.5192
-11.6735
-12.7848
-13.8155
-14.7378
-15.5335
-16.1898
-16.6951
-17.038
-17.2125
-17.2218
-17.0807
-16.8135
-16.4486
-16.0127
-7.2367
-8.18593
-9.17764
-10.1893
-11.1929
-12.1581
-13.0567
-13.8656
-14.568
-15.1516
-15.6066
-15.9251
-16.1041
-16.1471
-16.0647
-15.874
-15.595
-15.2479
-7.21761
-8.07848
-8.96621
-9.86281
-10.7469
-11.5956
-12.3872
-13.1032
-13.7289
-14.2533
-14.6681
-14.9675
-15.1498
-15.2181
-15.1802
-15.0484
-14.8372
-14.5618
-7.15413
-7.94041
-8.74265
-9.54627
-10.3345
-11.0897
-11.7949
-12.4351
-12.9979
-13.474
-13.8562
-14.1401
-14.3245
-14.4119
-14.4082
-14.3222
-14.1648
-13.9475
-7.06287
-7.78633
-8.51803
-9.24597
-9.95677
-10.6365
-11.2716
-11.85
-12.3614
-12.7979
-13.1535
-13.4246
-13.6101
-13.712
-13.7346
-13.6846
-13.5701
-13.3999
-6.95525
-7.62596
-8.29933
-8.9654
-9.6133
-10.2318
-10.81
-11.3381
-11.8075
-12.2115
-12.5452
-12.8055
-12.9914
-13.1043
-13.1475
-13.1259
-13.0457
-12.9139
-6.84018
-7.46672
-8.09188
-8.70726
-9.30392
-9.87268
-10.4046
-10.8917
-11.3267
-11.7042
-12.0198
-12.271
-12.4567
-12.578
-12.6372
-12.6382
-12.5856
-12.485
-6.7242
-7.31392
-7.89928
-8.47314
-9.02803
-9.55634
-10.0507
-10.5043
-10.9114
-11.2671
-11.5678
-11.8112
-11.9965
-12.1241
-12.1959
-12.2148
-12.1845
-12.1093
-6.61229
-7.17152
-7.72416
-8.26411
-8.78503
-9.28051
-9.74436
-10.1709
-10.5552
-10.8931
-11.1815
-11.4185
-11.603
-11.7354
-11.8171
-11.8503
-11.8379
-11.7834
-6.50821
-7.04239
-7.56834
-8.08076
-8.5742
-9.04318
-9.48243
-9.8871
-10.2529
-10.5764
-10.8548
-11.0863
-11.2701
-11.4062
-11.4956
-11.5401
-11.5421
-11.5043
-6.41482
-6.9287
-7.43314
-7.92346
-8.3949
-8.84271
-9.26231
-9.64951
-10.0006
-10.3125
-10.5828
-10.8099
-10.9928
-11.1317
-11.2271
-11.2805
-11.2939
-11.2695
-6.33423
-6.832
-7.31943
-7.79233
-8.24647
-8.67766
-9.08185
-9.45534
-9.79484
-10.0976
-10.3615
-10.585
-10.7672
-10.9081
-11.0082
-11.0685
-11.0907
-11.0768
-6.26812
-6.75351
-7.22791
-7.68751
-8.12846
-8.54699
-8.93945
-9.3025
-9.63317
-9.92897
-10.1879
-10.4086
-10.5902
-10.7326
-10.8361
-10.9017
-10.9307
-10.9248
-6.2175
-6.6939
-7.15886
-7.60883
-8.04026
-8.44966
-8.83366
-9.18918
-9.51348
-9.80424
-10.0596
-10.2783
-10.4594
-10.6029
-10.7089
-10.7782
-10.812
-10.8119
-6.18346
-6.65402
-7.11284
-7.55657
-7.98183
-8.3853
-8.76382
-9.11446
-9.43462
-9.72211
-9.97516
-10.1925
-10.3733
-10.5174
-10.625
-10.6967
-10.7337
-10.7374
-6.16605
-6.63374
-7.08956
-7.53024
-7.95248
-8.35307
-8.72891
-9.07717
-9.39533
-9.68122
-9.93315
-10.1499
-10.3306
-10.475
-10.5834
-10.6564
-10.695
-10.7005
-1.60205
-2.07241
-2.54791
-3.0281
-3.51217
-3.99905
-4.48731
-4.97513
-5.46034
-5.94047
-6.41279
-6.8744
-7.32219
-7.75296
-8.16353
-8.55078
-8.9118
-9.24391
-9.5448
-9.81259
-10.0459
-10.2437
-10.4057
-10.5321
-1.60772
-2.07764
-2.55316
-3.03381
-3.51879
-4.00698
-4.49694
-4.98681
-5.47438
-5.95711
-6.43223
-6.89673
-7.34746
-7.78115
-8.19455
-8.58449
-8.94795
-9.28219
-9.58484
-9.85396
-10.0881
-10.2863
-10.4482
-10.5739
-1.61818
-2.08726
-2.56276
-3.04426
-3.53095
-4.02171
-4.51501
-5.00898
-5.50131
-5.98936
-6.4702
-6.94069
-7.39752
-7.83728
-8.25656
-8.65203
-9.02052
-9.35913
-9.66535
-9.93715
-10.173
-10.3719
-10.5336
-10.6581
-1.63316
-2.10084
-2.57623
-3.05893