/*--------------------------------*- C++ -*----------------------------------*\
  =========                 |
  \\      /  F ield         | OpenFOAM: The Open Source CFD Toolbox
   \\    /   O peration     | Website:  https://openfoam.org
    \\  /    A nd           | Version:  13
     \\/     M anipulation  |
\*---------------------------------------------------------------------------*/
FoamFile
{
    format      ascii;
    class       volScalarField;
    location    "300";
    object      k;
}
// * * * * * * * * * * * * * * * * * * * * * * * * * * * * * * * * * * * * * //

dimensions      [0 2 -2 0 0 0 0];

internalField   nonuniform List<scalar> 
172836
(
0.209369
0.208576
0.207787
0.207003
0.206223
0.205449
0.20468
0.203915
0.209537
0.208745
0.207957
0.207173
0.206395
0.205621
0.204852
0.204088
0.210665
0.20987
0.209079
0.208291
0.207509
0.206731
0.205958
0.20519
0.204426
0.211234
0.210439
0.209647
0.20886
0.208078
0.2073
0.206527
0.205759
0.204995
0.212078
0.211282
0.210489
0.209701
0.208918
0.20814
0.207366
0.206597
0.205833
0.213208
0.212409
0.211615
0.210825
0.21004
0.20926
0.208485
0.207715
0.20695
0.214597
0.213795
0.212998
0.212206
0.211419
0.210637
0.209859
0.209087
0.208321
0.216176
0.215372
0.214572
0.213778
0.212988
0.212204
0.211425
0.210651
0.209884
0.217047
0.216246
0.21545
0.214659
0.213874
0.213094
0.21232
0.211552
0.211594
0.210793
0.209995
0.209202
0.208412
0.207626
0.206844
0.206067
0.205295
0.204528
0.203766
0.203009
0.202268
0.211752
0.210952
0.210156
0.209364
0.208576
0.207791
0.20701
0.206234
0.205463
0.204696
0.203934
0.203178
0.20244
0.212074
0.211274
0.210479
0.209687
0.2089
0.208116
0.207336
0.206561
0.20579
0.205024
0.204263
0.203508
0.202768
0.21263
0.21183
0.211035
0.210243
0.209456
0.208672
0.207892
0.207117
0.206347
0.205581
0.20482
0.204065
0.203325
0.21346
0.212658
0.211862
0.211069
0.210281
0.209496
0.208716
0.20794
0.207169
0.206403
0.205641
0.204886
0.204146
0.214574
0.21377
0.212971
0.212176
0.211386
0.2106
0.209818
0.209041
0.208269
0.207501
0.206738
0.205982
0.205242
0.215944
0.215137
0.214335
0.213537
0.212744
0.211956
0.211172
0.210393
0.209619
0.208849
0.208085
0.207328
0.206587
0.217498
0.216688
0.215882
0.215082
0.214287
0.213497
0.212711
0.21193
0.211154
0.210384
0.209619
0.208861
0.208119
0.219139
0.218326
0.21752
0.216718
0.215922
0.21513
0.214343
0.213562
0.212786
0.212014
0.211249
0.210491
0.20975
0.211398
0.274533
0.273325
0.272125
0.270932
0.269747
0.268569
0.2674
0.266237
0.265083
0.263935
0.262796
0.261664
0.260541
0.259425
0.258317
0.257217
0.256123
0.255035
0.253954
0.25288
0.251812
0.250751
0.249697
0.248649
0.247608
0.246574
0.245547
0.244527
0.243514
0.242508
0.241509
0.240517
0.239533
0.238557
0.237588
0.236627
0.235673
0.234727
0.233788
0.232857
0.231932
0.231015
0.230104
0.2292
0.228303
0.227412
0.226528
0.225649
0.224776
0.223908
0.223046
0.222188
0.221336
0.220488
0.219644
0.218804
0.217969
0.217138
0.216311
0.215487
0.214667
0.213851
0.213037
0.212227
0.211422
0.210622
0.209827
0.209036
0.208249
0.207465
0.206686
0.205911
0.20514
0.204374
0.203613
0.202859
0.202118
0.274648
0.273442
0.272243
0.271052
0.269868
0.268692
0.267524
0.266363
0.265209
0.264063
0.262924
0.261793
0.260671
0.259557
0.258451
0.257351
0.256259
0.255173
0.254093
0.253019
0.251953
0.250892
0.249838
0.248791
0.247751
0.246718
0.245691
0.244671
0.243658
0.242652
0.241653
0.240662
0.239678
0.238701
0.237732
0.236771
0.235817
0.234871
0.233932
0.233
0.232076
0.231158
0.230247
0.229343
0.228446
0.227555
0.226671
0.225792
0.224919
0.224052
0.22319
0.222333
0.22148
0.220632
0.219789
0.21895
0.218115
0.217285
0.216458
0.215636
0.214816
0.214
0.213187
0.212377
0.211574
0.210776
0.209982
0.209192
0.208406
0.207624
0.206845
0.206071
0.205302
0.204536
0.203776
0.203022
0.202284
0.274924
0.273722
0.272527
0.271339
0.270159
0.268986
0.26782
0.266662
0.26551
0.264366
0.263229
0.262101
0.26098
0.259868
0.258763
0.257666
0.256575
0.25549
0.254412
0.25334
0.252274
0.251215
0.250162
0.249116
0.248076
0.247043
0.246017
0.244997
0.243985
0.242979
0.24198
0.240988
0.240003
0.239026
0.238057
0.237095
0.236141
0.235194
0.234254
0.233322
0.232397
0.231478
0.230566
0.229662
0.228764
0.227872
0.226987
0.226107
0.225234
0.224366
0.223503
0.222645
0.221792
0.220944
0.2201
0.219261
0.218426
0.217595
0.216769
0.215946
0.215127
0.214311
0.213498
0.212689
0.211886
0.211088
0.210295
0.209506
0.208721
0.207939
0.207162
0.206388
0.205619
0.204855
0.204095
0.203342
0.202604
0.27544
0.274244
0.273054
0.271871
0.270695
0.269526
0.268364
0.267209
0.26606
0.264918
0.263784
0.262658
0.26154
0.260429
0.259327
0.258231
0.257142
0.256059
0.254982
0.253911
0.252847
0.251788
0.250736
0.249691
0.248652
0.247619
0.246593
0.245574
0.244561
0.243555
0.242556
0.241564
0.240579
0.239602
0.238632
0.237669
0.236714
0.235766
0.234826
0.233892
0.232965
0.232046
0.231133
0.230226
0.229327
0.228434
0.227547
0.226666
0.225791
0.224922
0.224058
0.223198
0.222344
0.221494
0.22065
0.219809
0.218973
0.218141
0.217314
0.21649
0.21567
0.214853
0.21404
0.213232
0.212429
0.211631
0.210837
0.210048
0.209263
0.208482
0.207704
0.206931
0.206162
0.205398
0.204639
0.203886
0.203147
0.276279
0.275089
0.273906
0.272728
0.271557
0.270392
0.269233
0.268081
0.266935
0.265796
0.264664
0.263539
0.262422
0.261313
0.260212
0.259117
0.258029
0.256947
0.255871
0.254801
0.253736
0.252678
0.251626
0.250581
0.249542
0.248509
0.247483
0.246463
0.245449
0.244443
0.243443
0.242449
0.241463
0.240484
0.239513
0.238548
0.237591
0.236642
0.235699
0.234763
0.233834
0.232912
0.231996
0.231087
0.230185
0.229289
0.2284
0.227516
0.226639
0.225767
0.2249
0.224038
0.223181
0.222329
0.221481
0.220638
0.2198
0.218966
0.218136
0.21731
0.216488
0.215669
0.214855
0.214045
0.213241
0.212442
0.211647
0.210857
0.210071
0.209289
0.208511
0.207737
0.206968
0.206203
0.205443
0.20469
0.203952
0.277461
0.276279
0.275101
0.273929
0.272762
0.271602
0.270447
0.269297
0.268154
0.267016
0.265885
0.264762
0.263646
0.262538
0.261437
0.260343
0.259255
0.258173
0.257097
0.256026
0.254962
0.253903
0.25285
0.251804
0.250764
0.24973
0.248703
0.247682
0.246667
0.245659
0.244657
0.243662
0.242674
0.241693
0.240719
0.239752
0.238792
0.237839
0.236893
0.235953
0.235021
0.234095
0.233175
0.232262
0.231356
0.230456
0.229562
0.228674
0.227792
0.226915
0.226043
0.225177
0.224315
0.223459
0.222607
0.22176
0.220918
0.22008
0.219246
0.218416
0.217591
0.216769
0.215952
0.215139
0.214333
0.213531
0.212735
0.211943
0.211155
0.210371
0.209592
0.208817
0.208047
0.207281
0.20652
0.205766
0.205027
0.278918
0.277743
0.276572
0.275406
0.274245
0.273088
0.271937
0.270791
0.269649
0.268514
0.267385
0.266262
0.265148
0.26404
0.26294
0.261846
0.260758
0.259676
0.258599
0.257529
0.256463
0.255404
0.254351
0.253304
0.252263
0.251228
0.250199
0.249177
0.248161
0.247151
0.246147
0.24515
0.244159
0.243176
0.242199
0.241229
0.240265
0.239309
0.238359
0.237416
0.236479
0.235549
0.234624
0.233707
0.232795
0.23189
0.230991
0.230098
0.22921
0.228328
0.227451
0.226579
0.225712
0.224851
0.223994
0.223142
0.222294
0.221451
0.220613
0.219779
0.218949
0.218123
0.217302
0.216486
0.215677
0.214872
0.214073
0.213278
0.212487
0.211702
0.21092
0.210144
0.209372
0.208605
0.207843
0.207088
0.206348
0.280495
0.27933
0.278168
0.277009
0.275854
0.274704
0.273557
0.272415
0.271278
0.270146
0.269019
0.2679
0.266787
0.265682
0.264583
0.263491
0.262404
0.261324
0.260248
0.259179
0.258115
0.257056
0.256004
0.254957
0.253917
0.252883
0.251855
0.250832
0.249816
0.248806
0.247802
0.246805
0.245813
0.244828
0.24385
0.242878
0.241913
0.240954
0.240001
0.239055
0.238114
0.23718
0.236252
0.235329
0.234413
0.233503
0.232599
0.231701
0.230808
0.22992
0.229038
0.22816
0.227288
0.22642
0.225558
0.224701
0.223848
0.223
0.222157
0.221318
0.220484
0.219654
0.21883
0.21801
0.217197
0.21639
0.215588
0.21479
0.213998
0.213211
0.212428
0.21165
0.210877
0.210109
0.209346
0.20859
0.20785
0.28206
0.280907
0.279755
0.278606
0.27746
0.276317
0.275177
0.274041
0.272909
0.271781
0.270659
0.269544
0.268435
0.267333
0.266237
0.265148
0.264064
0.262986
0.261914
0.260846
0.259785
0.258729
0.257679
0.256635
0.255597
0.254565
0.253539
0.252518
0.251504
0.250496
0.249493
0.248496
0.247506
0.246521
0.245543
0.244571
0.243605
0.242646
0.241692
0.240744
0.239802
0.238865
0.237934
0.237009
0.23609
0.235176
0.234268
0.233366
0.232469
0.231577
0.23069
0.229808
0.228932
0.22806
0.227193
0.226331
0.225474
0.224622
0.223775
0.222933
0.222095
0.221262
0.220434
0.219613
0.218798
0.217988
0.217184
0.216385
0.215591
0.214803
0.214019
0.213241
0.212468
0.2117
0.210937
0.210182
0.209442
0.283574
0.282434
0.281294
0.280156
0.279019
0.277884
0.276752
0.275622
0.274496
0.273373
0.272256
0.271144
0.270039
0.268941
0.267849
0.266763
0.265683
0.264608
0.263539
0.262476
0.261417
0.260365
0.259319
0.258278
0.257244
0.256215
0.255193
0.254176
0.253165
0.252159
0.25116
0.250166
0.249177
0.248195
0.247218
0.246247
0.245282
0.244322
0.243368
0.242419
0.241476
0.240538
0.239605
0.238677
0.237755
0.236838
0.235927
0.23502
0.23412
0.233224
0.232333
0.231446
0.230565
0.229689
0.228818
0.227952
0.227091
0.226235
0.225384
0.224539
0.223698
0.222863
0.222033
0.221209
0.220392
0.219581
0.218776
0.217977
0.217184
0.216396
0.215613
0.214835
0.214062
0.213295
0.212533
0.211779
0.211041
0.285089
0.283964
0.282838
0.281711
0.280584
0.279458
0.278333
0.277209
0.276088
0.274969
0.273856
0.272747
0.271646
0.27055
0.269461
0.268378
0.2673
0.266228
0.265161
0.2641
0.263045
0.261996
0.260952
0.259915
0.258884
0.257859
0.256839
0.255826
0.254818
0.253815
0.252818
0.251827
0.25084
0.249859
0.248884
0.247914
0.246949
0.245989
0.245034
0.244084
0.243139
0.242198
0.241263
0.240332
0.239406
0.238485
0.23757
0.236659
0.235754
0.234853
0.233957
0.233066
0.23218
0.231299
0.230423
0.229552
0.228687
0.227827
0.226973
0.226124
0.22528
0.224442
0.223609
0.222783
0.221965
0.221153
0.220347
0.219547
0.218754
0.217966
0.217184
0.216407
0.215636
0.21487
0.21411
0.213358
0.212622
0.286689
0.285581
0.284469
0.283354
0.282238
0.28112
0.280002
0.278883
0.277765
0.27665
0.275538
0.274432
0.273331
0.272237
0.271149
0.270067
0.26899
0.26792
0.266855
0.265796
0.264743
0.263696
0.262655
0.261621
0.260593
0.259571
0.258555
0.257545
0.25654
0.255541
0.254546
0.253557
0.252572
0.251593
0.250618
0.249647
0.248682
0.24772
0.246763
0.24581
0.244861
0.243916
0.242975
0.242039
0.241107
0.24018
0.239257
0.238339
0.237426
0.236518
0.235614
0.234716
0.233822
0.232933
0.23205
0.231173
0.230301
0.229435
0.228575
0.227721
0.226873
0.226031
0.225195
0.224367
0.223546
0.222732
0.221926
0.221126
0.220333
0.219545
0.218764
0.217989
0.21722
0.216456
0.215699
0.214949
0.214215
0.28848
0.287391
0.286296
0.285195
0.28409
0.28298
0.281868
0.280753
0.279638
0.278523
0.277411
0.276304
0.275203
0.274108
0.273018
0.271935
0.270858
0.269786
0.268721
0.267662
0.26661
0.265564
0.264525
0.263493
0.262467
0.261447
0.260434
0.259426
0.258423
0.257426
0.256433
0.255444
0.25446
0.253481
0.252505
0.251533
0.250564
0.249599
0.248637
0.247679
0.246723
0.245771
0.244823
0.243877
0.242936
0.241999
0.241066
0.240138
0.239214
0.238295
0.23738
0.23647
0.235566
0.234667
0.233774
0.232887
0.232007
0.231132
0.230265
0.229404
0.22855
0.227702
0.226862
0.22603
0.225206
0.22439
0.223582
0.222781
0.221988
0.221201
0.220421
0.219648
0.218881
0.21812
0.217365
0.216618
0.215888
0.290567
0.289502
0.288425
0.287338
0.286244
0.285142
0.284034
0.282922
0.281806
0.28069
0.279576
0.278466
0.277361
0.276262
0.275169
0.274082
0.273002
0.271928
0.270861
0.269801
0.268748
0.267703
0.266665
0.265634
0.264611
0.263594
0.262584
0.261579
0.260579
0.259583
0.258592
0.257605
0.256621
0.25564
0.254662
0.253686
0.252713
0.251742
0.250772
0.249805
0.248839
0.247876
0.246914
0.245955
0.245
0.244047
0.243099
0.242154
0.241214
0.240278
0.239347
0.238421
0.237501
0.236587
0.235679
0.234778
0.233885
0.232998
0.23212
0.231249
0.230386
0.229531
0.228685
0.227847
0.227019
0.2262
0.225391
0.22459
0.223797
0.223011
0.222233
0.221462
0.220697
0.21994
0.219188
0.218446
0.21772
0.293078
0.29204
0.290985
0.289916
0.288833
0.287739
0.286635
0.285522
0.284404
0.283284
0.282164
0.281047
0.279934
0.278828
0.277727
0.276633
0.275546
0.274467
0.273395
0.272331
0.271276
0.27023
0.269192
0.268162
0.26714
0.266126
0.265117
0.264115
0.263117
0.262123
0.261133
0.260145
0.25916
0.258177
0.257195
0.256213
0.255232
0.254252
0.253271
0.252291
0.251311
0.250331
0.249352
0.248374
0.247398
0.246424
0.245453
0.244486
0.243524
0.242565
0.241612
0.240664
0.239722
0.238788
0.23786
0.236941
0.23603
0.235128
0.234235
0.233351
0.232477
0.231613
0.230758
0.229913
0.22908
0.228257
0.227445
0.226643
0.22585
0.225066
0.22429
0.223522
0.222761
0.222007
0.221261
0.220524
0.219804
0.29615
0.295144
0.294114
0.293062
0.291991
0.290902
0.289799
0.288682
0.287557
0.286428
0.285297
0.284168
0.283043
0.281923
0.280811
0.279705
0.278608
0.27752
0.276441
0.275373
0.274314
0.273266
0.272228
0.2712
0.270181
0.26917
0.268166
0.267167
0.266173
0.265182
0.264194
0.263207
0.26222
0.261233
0.260246
0.259256
0.258264
0.25727
0.256274
0.255275
0.254273
0.25327
0.252265
0.251259
0.250254
0.24925
0.248248
0.247249
0.246254
0.245264
0.244279
0.243301
0.242329
0.241366
0.240412
0.239467
0.238533
0.237609
0.236696
0.235795
0.234906
0.234028
0.233162
0.232309
0.231469
0.230642
0.229827
0.229024
0.228232
0.227451
0.226678
0.225914
0.225159
0.224411
0.223671
0.222941
0.222228
0.299954
0.298984
0.297982
0.29695
0.29589
0.294804
0.293697
0.292572
0.291434
0.290288
0.28914
0.287991
0.286845
0.285705
0.284573
0.283449
0.282335
0.281233
0.280142
0.279064
0.277999
0.276947
0.275908
0.27488
0.273863
0.272855
0.271855
0.270861
0.269871
0.268883
0.267897
0.26691
0.265921
0.264929
0.263933
0.262932
0.261926
0.260914
0.259896
0.258872
0.257842
0.256806
0.255765
0.254722
0.253676
0.25263
0.251586
0.250545
0.249507
0.248474
0.247448
0.246428
0.245418
0.244417
0.243428
0.24245
0.241485
0.240533
0.239595
0.238672
0.237763
0.236868
0.235989
0.235124
0.234276
0.233443
0.232625
0.23182
0.231029
0.23025
0.229482
0.228724
0.227976
0.227236
0.226504
0.225783
0.225079
0.304662
0.303732
0.302757
0.301741
0.300685
0.299596
0.298476
0.297331
0.29617
0.294998
0.293819
0.292638
0.291461
0.290289
0.289127
0.287976
0.286838
0.285714
0.284606
0.283515
0.282441
0.281384
0.280343
0.279317
0.278304
0.277302
0.276309
0.275323
0.27434
0.273358
0.272376
0.27139
0.2704
0.269402
0.268398
0.267384
0.26636
0.265323
0.264274
0.263214
0.262142
0.261061
0.259972
0.258876
0.257776
0.256674
0.255571
0.25447
0.253374
0.252283
0.2512
0.250126
0.249063
0.248012
0.246976
0.245954
0.244949
0.243961
0.24299
0.242037
0.241103
0.240187
0.23929
0.238411
0.237552
0.236712
0.23589
0.235084
0.234295
0.233519
0.232757
0.232006
0.231265
0.230535
0.229813
0.229104
0.22841
0.310422
0.309532
0.308582
0.307575
0.306518
0.305413
0.304269
0.303091
0.301894
0.300679
0.299454
0.298226
0.297
0.295782
0.294575
0.293382
0.292207
0.291051
0.289916
0.288804
0.287714
0.286647
0.285601
0.284575
0.283565
0.28257
0.281585
0.280608
0.279634
0.27866
0.277684
0.276701
0.275711
0.274709
0.273693
0.272659
0.271607
0.270536
0.269446
0.268339
0.267214
0.266074
0.264922
0.263758
0.262588
0.261413
0.260236
0.25906
0.257888
0.256724
0.255569
0.254425
0.253296
0.252182
0.251087
0.250011
0.248955
0.247921
0.246909
0.24592
0.244954
0.244011
0.24309
0.242194
0.241321
0.240471
0.239642
0.238834
0.238044
0.237272
0.236516
0.235772
0.235041
0.234322
0.233613
0.232916
0.232235
0.317256
0.3164
0.315466
0.314458
0.313384
0.312249
0.311062
0.309839
0.308584
0.307306
0.306014
0.304717
0.303423
0.302139
0.300869
0.299619
0.298392
0.297192
0.29602
0.294879
0.293768
0.292687
0.291635
0.290608
0.289603
0.288617
0.287644
0.286679
0.285718
0.284757
0.28379
0.282814
0.281824
0.280813
0.279779
0.278719
0.277633
0.276519
0.275378
0.274211
0.27302
0.271807
0.270575
0.269328
0.268069
0.266803
0.265533
0.264265
0.263001
0.261745
0.2605
0.259271
0.25806
0.256869
0.255701
0.254558
0.253441
0.252351
0.251289
0.250255
0.249251
0.248274
0.247327
0.246408
0.245518
0.244655
0.24382
0.243008
0.242219
0.241451
0.240701
0.239968
0.239249
0.238544
0.237852
0.237174
0.236511
0.325021
0.324199
0.32327
0.322251
0.321148
0.31997
0.318727
0.31744
0.31611
0.314749
0.313369
0.311982
0.310597
0.309224
0.307871
0.306542
0.305244
0.30398
0.302755
0.301569
0.300423
0.299317
0.298248
0.297212
0.296205
0.295221
0.294255
0.293299
0.292349
0.291397
0.290437
0.289463
0.288466
0.287442
0.286386
0.285295
0.284168
0.283005
0.281805
0.28057
0.279303
0.278007
0.276685
0.275343
0.273986
0.272619
0.271247
0.269875
0.268509
0.267153
0.265809
0.264485
0.263184
0.261908
0.26066
0.259443
0.258259
0.257108
0.255992
0.25491
0.253865
0.252854
0.251877
0.250936
0.25003
0.249158
0.248318
0.247508
0.246727
0.245973
0.245242
0.244533
0.243845
0.243176
0.242525
0.241893
0.241279
0.332682
0.331752
0.330703
0.32955
0.328305
0.326992
0.32561
0.324173
0.322697
0.321197
0.319688
0.318182
0.316691
0.315224
0.31379
0.312396
0.311046
0.309745
0.308495
0.307297
0.306148
0.305048
0.303989
0.302968
0.301977
0.301008
0.300054
0.299106
0.298157
0.297199
0.296219
0.295211
0.294169
0.293087
0.291962
0.290792
0.289576
0.288315
0.28701
0.285665
0.284283
0.28287
0.281431
0.279973
0.278504
0.277028
0.275553
0.274085
0.27263
0.271191
0.269775
0.268387
0.267031
0.26571
0.264426
0.263182
0.26198
0.260821
0.259705
0.258633
0.257604
0.256621
0.255681
0.254786
0.253936
0.253131
0.252367
0.251643
0.250959
0.250313
0.249704
0.24913
0.248593
0.248092
0.24763
0.247194
0.341635
0.340644
0.339515
0.338259
0.336903
0.335466
0.333947
0.332362
0.33073
0.32907
0.327399
0.325735
0.324089
0.322474
0.320901
0.319378
0.317911
0.316506
0.315164
0.313887
0.312673
0.311518
0.310418
0.309367
0.308355
0.307375
0.306417
0.305472
0.304533
0.303584
0.302614
0.301615
0.300576
0.299492
0.298355
0.297163
0.295914
0.294607
0.293245
0.291832
0.290372
0.288874
0.287346
0.285795
0.284231
0.282663
0.281098
0.279545
0.27801
0.276501
0.275021
0.27358
0.272182
0.27083
0.269528
0.268279
0.267085
0.265948
0.264871
0.263855
0.262902
0.262013
0.261193
0.260442
0.259764
0.259159
0.258631
0.25818
0.25781
0.257522
0.25732
0.257206
0.257185
0.257262
0.257441
0.257681
0.34929
0.34796
0.346516
0.344973
0.343333
0.34161
0.339823
0.337993
0.336141
0.334287
0.332448
0.330641
0.328878
0.327172
0.325532
0.323967
0.322482
0.321082
0.319768
0.31854
0.317396
0.316333
0.315344
0.314424
0.313565
0.312757
0.312002
0.311275
0.310558
0.309829
0.309066
0.308248
0.307355
0.306373
0.305289
0.3041
0.302804
0.301405
0.299913
0.298341
0.296704
0.295018
0.293301
0.291573
0.28985
0.288146
0.286475
0.284851
0.283286
0.281786
0.28036
0.279019
0.277766
0.276605
0.275541
0.274578
0.273721
0.272976
0.272351
0.271852
0.271488
0.271269
0.271206
0.27131
0.271596
0.272073
0.272756
0.27366
0.274802
0.276196
0.277862
0.279816
0.282075
0.284651
0.287404
0.354694
0.352944
0.351132
0.349248
0.347312
0.345343
0.34336
0.341385
0.339437
0.337534
0.335694
0.333934
0.332269
0.330715
0.329286
0.327996
0.32686
0.32589
0.325096
0.324491
0.324083
0.32388
0.323896
0.324126
0.324604
0.3253
0.326148
0.327068
0.32797
0.328759
0.329348
0.32966
0.329637
0.329244
0.328468
0.32732
0.325828
0.324038
0.322003
0.319786
0.317447
0.31505
0.312647
0.310297
0.308044
0.305928
0.303985
0.302249
0.300739
0.299469
0.298504
0.29783
0.297444
0.297352
0.297559
0.298078
0.298927
0.300126
0.3017
0.303678
0.306096
0.308988
0.312397
0.316363
0.320933
0.326153
0.332068
0.338726
0.34617
0.354442
0.363576
0.373594
0.38449
0.395735
0.356278
0.354159
0.352077
0.350044
0.348076
0.346191
0.344405
0.342743
0.341229
0.339895
0.338778
0.337923
0.337381
0.337213
0.337485
0.338276
0.339667
0.341744
0.3446
0.348307
0.352981
0.358654
0.365396
0.37331
0.382047
0.391205
0.400341
0.409005
0.416788
0.423352
0.428452
0.431951
0.433813
0.434099
0.432944
0.430542
0.427122
0.422934
0.418226
0.413242
0.40821
0.403332
0.398786
0.394736
0.391312
0.388608
0.386781
0.385895
0.385959
0.387238
0.389714
0.393309
0.397982
0.403711
0.410494
0.418343
0.427285
0.437354
0.448593
0.461052
0.474786
0.489849
0.506292
0.52415
0.543453
0.564206
0.586415
0.610091
0.635196
0.661668
0.689415
0.718203
0.746282
0.358718
0.356362
0.354296
0.352534
0.351096
0.350009
0.349322
0.349103
0.349456
0.350523
0.352491
0.355598
0.360139
0.36646
0.37495
0.38603
0.400101
0.417578
0.438745
0.463802
0.492868
0.525497
0.562159
0.601292
0.64101
0.679465
0.715021
0.746371
0.772602
0.793213
0.808081
0.817407
0.821648
0.821433
0.817516
0.810706
0.801813
0.791635
0.780898
0.770276
0.760385
0.75175
0.744816
0.739985
0.73753
0.737641
0.740646
0.746557
0.755292
0.767529
0.782665
0.800259
0.819991
0.841588
0.864816
0.889487
0.915459
0.942616
0.970836
1.0001
1.03042
1.06193
1.09449
1.12794
1.16221
1.19725
1.23302
1.26947
1.30651
1.34405
1.38195
1.41981
1.45445
0.373267
0.371067
0.369718
0.369294
0.36994
0.371876
0.375426
0.381071
0.389473
0.40152
0.418333
0.441238
0.471698
0.511167
0.560926
0.621853
0.694195
0.777666
0.870972
0.972603
1.07978
1.1898
1.30045
1.40586
1.5017
1.585
1.65411
1.70851
1.74862
1.77554
1.79082
1.79627
1.79384
1.7854
1.7728
1.75773
1.74173
1.72612
1.71199
1.70035
1.69181
1.68711
1.68715
1.69129
1.69938
1.71164
1.72719
1.7456
1.76788
1.7911
1.8146
1.83818
1.86164
1.88514
1.90828
1.93067
1.95247
1.97384
1.99492
2.01584
2.03677
2.05783
2.07916
2.10087
2.12309
2.14589
2.16934
2.19346
2.21828
2.24379
2.26991
2.29616
2.31886
0.443202
0.445574
0.451353
0.461469
0.477415
0.501268
0.535741
0.584144
0.650131
0.737255
0.848347
0.984874
1.14642
1.33053
1.53274
1.74727
1.96728
2.18572
2.3968
2.59379
2.7748
2.93237
3.06333
3.16705
3.24472
3.29874
3.33223
3.34857
3.35124
3.34351
3.32839
3.30856
3.2863
3.26357
3.24192
3.22251
3.20606
3.19306
3.18363
3.17767
3.17498
3.17476
3.1765
3.17936
3.18234
3.18611
3.18883
3.18797
3.18455
3.17915
3.17199
3.16341
3.1538
3.14347
3.13282
3.12221
3.11208
3.10269
3.09441
3.08746
3.08165
3.07693
3.07334
3.07125
3.07081
3.07211
3.07513
3.07985
3.08625
3.09422
3.10313
3.10971
0.758497
0.79438
0.848431
0.925882
1.03296
1.17558
1.35803
1.5818
1.84467
2.14066
2.46066
2.79368
3.12819
3.45332
3.75987
4.04016
4.28975
4.50348
4.68235
4.82381
4.92714
4.99656
5.03691
5.05321
5.05033
5.03274
5.00454
4.96922
4.92969
4.88835
4.84706
4.80713
4.76951
4.73462
4.70265
4.67332
4.64628
4.62106
4.59678
4.57264
4.54803
4.52168
4.49428
4.46531
4.43225
4.39666
4.35923
4.32031
4.28054
4.24014
4.19973
4.15991
4.11969
4.08012
4.04182
4.00524
3.97083
3.93862
3.90873
3.88123
3.85616
3.83357
3.81344
3.79576
3.78068
3.76779
3.75698
3.74821
3.7414
3.73603
3.72958
1.92338
2.0474
2.22487
2.45692
2.74232
3.07434
3.44358
3.83529
4.23459
4.627
4.99965
5.34204
5.64659
5.90788
6.12399
6.29323
6.41835
6.50142
6.54315
6.55114
6.53232
6.49293
6.43846
6.37365
6.30247
6.22818
6.1533
6.07977
6.00891
5.94155
5.87804
5.81852
5.76254
5.70955
5.65888
5.60983
5.56158
5.51347
5.46453
5.41471
5.36398
5.31096
5.25619
5.2001
5.14369
5.08584
5.02748
4.96929
4.91179
4.85538
4.80036
4.74691
4.69527
4.64564
4.59827
4.55323
4.51058
4.47043
4.43276
4.39747
4.36457
4.334
4.30563
4.27935
4.25505
4.23265
4.21212
4.19341
4.17626
4.15941
3.79611
4.01999
4.32135
4.68145
5.08008
5.49576
5.9079
6.29878
6.6543
6.96433
7.2226
7.42594
7.57457
7.66963
7.71595
7.71859
7.6815
7.61413
7.52457
7.41981
7.30563
7.18685
7.06733
6.95004
6.83718
6.7302
6.62997
6.5368
6.45062
6.37089
6.29701
6.22798
6.16285
6.10073
6.04056
5.98144
5.92281
5.86426
5.80527
5.74584
5.68542
5.62456
5.56356
5.50272
5.44217
5.38215
5.32291
5.26464
5.20766
5.15185
5.09749
5.04493
4.99371
4.94436
4.89685
4.85118
4.80729
4.76519
4.72479
4.68607
4.64894
4.6133
4.57907
4.5462
4.51465
4.48447
4.45577
4.42883
4.40389
5.2384
5.58545
5.99508
6.42689
6.85694
7.26335
7.6283
7.93918
8.18844
8.37291
8.4927
8.55115
8.55259
8.50471
8.41516
8.29192
8.14516
7.98355
7.81438
7.64351
7.47557
7.31413
7.16168
7.01982
6.88939
6.77057
6.663
6.56597
6.47842
6.39905
6.32661
6.25959
6.19695
6.13732
6.07964
6.02344
5.96778
5.9126
5.85787
5.80341
5.74915
5.69503
5.64113
5.58746
5.53414
5.48122
5.42885
5.37706
5.326
5.27564
5.22608
5.17734
5.12946
5.08244
5.03632
4.99105
4.94666
4.90309
4.86034
4.81833
4.77702
4.7364
4.69641
4.65708
4.61841
4.58058
4.54389
4.50932
4.47866
7.05605
7.50729
7.92945
8.29628
8.59888
8.82939
8.98582
9.06979
9.08553
9.03961
8.93947
8.79523
8.61656
8.41426
8.19825
7.97696
7.75721
7.54448
7.34277
7.15492
6.98265
6.82672
6.68711
6.56315
6.45373
6.35732
6.27247
6.1972
6.13003
6.06906
6.01307
5.96065
5.91086
5.86296
5.81661
5.77153
5.72743
5.68382
5.64065
5.5976
5.55474
5.51184
5.46905
5.42618
5.38342
5.34062
5.29795
5.25525
5.21262
5.16993
5.1273
5.08458
5.04189
4.99907
4.95624
4.9133
4.87031
4.82724
4.78404
4.74079
4.69739
4.654
4.61056
4.56728
4.52429
4.48224
4.44273
4.40893
8.65619
8.94884
9.15285
9.2737
9.31022
9.28192
9.18882
9.04206
8.85039
8.62591
8.3782
8.11967
7.85798
7.60143
7.3549
7.12344
6.90946
6.71515
6.54089
6.38665
6.25146
6.13379
6.03206
5.94401
5.86797
5.8015
5.74334
5.6912
5.6444
5.60137
5.56183
5.5244
5.48904
5.45498
5.42233
5.39008
5.3586
5.327
5.29578
5.26415
5.23264
5.20055
5.16843
5.13567
5.10278
5.06919
5.03533
5.00066
4.96559
4.92963
4.89316
4.85573
4.81769
4.77869
4.73898
4.69849
4.65717
4.61514
4.57223
4.52878
4.48457
4.43996
4.39485
4.34981
4.3054
4.26402
4.22958
9.0396
9.16649
9.19467
9.13606
0.274302
0.273096
0.271897
0.270705
0.269521
0.268345
0.267177
0.266016
0.264863
0.263718
0.26258
0.26145
0.260328
0.259213
0.258107
0.257007
0.255914
0.254828
0.253749
0.252676
0.251609
0.25055
0.249497
0.24845
0.24741
0.246378
0.245352
0.244333
0.243321
0.242315
0.241318
0.240327
0.239344
0.238368
0.237399
0.236438
0.235485
0.234539
0.2336
0.232668
0.231744
0.230826
0.229916
0.229012
0.228115
0.227224
0.226339
0.225461
0.224588
0.22372
0.222858
0.222001
0.221149
0.220302
0.219459
0.218621
0.217787
0.216957
0.216131
0.215308
0.21449
0.213674
0.212862
0.212054
0.211251
0.210452
0.209658
0.208869
0.208083
0.207302
0.206524
0.205751
0.204982
0.204217
0.203458
0.202704
0.201964
0.274411
0.273206
0.272008
0.270818
0.269636
0.268462
0.267295
0.266135
0.264983
0.263838
0.262701
0.261572
0.260451
0.259338
0.258233
0.257135
0.256044
0.254959
0.253881
0.252809
0.251743
0.250685
0.249632
0.248587
0.247548
0.246516
0.24549
0.244472
0.24346
0.242455
0.241458
0.240467
0.239484
0.238508
0.237539
0.236579
0.235625
0.234679
0.23374
0.232808
0.231884
0.230966
0.230055
0.229151
0.228254
0.227363
0.226478
0.225599
0.224727
0.223859
0.222997
0.222141
0.221289
0.220442
0.219599
0.218761
0.217928
0.217098
0.216273
0.215451
0.214633
0.213818
0.213007
0.212199
0.211397
0.2106
0.209808
0.20902
0.208236
0.207455
0.206678
0.205906
0.205138
0.204374
0.203615
0.202862
0.202126
0.274674
0.273473
0.272279
0.271092
0.269913
0.268741
0.267577
0.26642
0.26527
0.264127
0.262992
0.261865
0.260746
0.259636
0.258532
0.257436
0.256347
0.255264
0.254187
0.253117
0.252053
0.250995
0.249944
0.248899
0.247861
0.24683
0.245805
0.244787
0.243775
0.242771
0.241773
0.240782
0.239799
0.238823
0.237854
0.236893
0.235939
0.234992
0.234052
0.23312
0.232195
0.231276
0.230364
0.22946
0.228562
0.22767
0.226785
0.225905
0.225032
0.224164
0.223301
0.222444
0.221591
0.220744
0.219901
0.219063
0.218229
0.217399
0.216574
0.215752
0.214934
0.214119
0.213309
0.212502
0.2117
0.210903
0.210112
0.209324
0.208541
0.207761
0.206985
0.206213
0.205446
0.204683
0.203925
0.203173
0.202436
0.27517
0.273975
0.272786
0.271604
0.270429
0.269261
0.2681
0.266946
0.265799
0.264659
0.263527
0.262402
0.261285
0.260176
0.259075
0.257981
0.256893
0.255812
0.254737
0.253668
0.252605
0.251549
0.250499
0.249455
0.248418
0.247387
0.246363
0.245345
0.244334
0.24333
0.242332
0.241341
0.240358
0.239381
0.238412
0.23745
0.236495
0.235548
0.234607
0.233674
0.232747
0.231827
0.230915
0.230009
0.229109
0.228216
0.227329
0.226449
0.225574
0.224705
0.223841
0.222982
0.222128
0.22128
0.220436
0.219596
0.218762
0.217931
0.217105
0.216282
0.215464
0.214649
0.213838
0.213031
0.212229
0.211432
0.210641
0.209853
0.20907
0.20829
0.207514
0.206743
0.205976
0.205213
0.204455
0.203704
0.202966
0.27598
0.274791
0.273608
0.272431
0.271261
0.270097
0.26894
0.267789
0.266645
0.265507
0.264377
0.263254
0.262139
0.261032
0.259932
0.258839
0.257752
0.256672
0.255598
0.25453
0.253468
0.252412
0.251363
0.25032
0.249283
0.248252
0.247228
0.24621
0.245198
0.244193
0.243195
0.242204
0.241219
0.240241
0.239271
0.238307
0.237351
0.236402
0.235459
0.234524
0.233595
0.232673
0.231758
0.230849
0.229947
0.229052
0.228162
0.227279
0.226402
0.22553
0.224663
0.223802
0.222945
0.222094
0.221248
0.220406
0.219569
0.218736
0.217908
0.217083
0.216263
0.215446
0.214633
0.213825
0.213023
0.212225
0.211432
0.210644
0.20986
0.209079
0.208303
0.207531
0.206764
0.206001
0.205243
0.204492
0.203754
0.277128
0.275946
0.274768
0.273597
0.272431
0.271271
0.270117
0.268969
0.267827
0.266692
0.265563
0.264441
0.263327
0.262221
0.261122
0.26003
0.258944
0.257864
0.25679
0.255722
0.25466
0.253604
0.252555
0.251511
0.250473
0.249442
0.248417
0.247399
0.246386
0.24538
0.24438
0.243387
0.2424
0.241421
0.240448
0.239482
0.238523
0.237571
0.236625
0.235687
0.234755
0.233829
0.23291
0.231998
0.231092
0.230192
0.229298
0.228411
0.227529
0.226653
0.225782
0.224916
0.224056
0.2232
0.22235
0.221504
0.220663
0.219827
0.218995
0.218167
0.217343
0.216524
0.215708
0.214898
0.214093
0.213293
0.212498
0.211708
0.210922
0.210141
0.209363
0.20859
0.207822
0.207058
0.206299
0.205548
0.20481
0.278543
0.277368
0.276197
0.275031
0.27387
0.272715
0.271564
0.270419
0.26928
0.268146
0.267019
0.265899
0.264786
0.263681
0.262582
0.26149
0.260405
0.259325
0.258252
0.257184
0.256122
0.255066
0.254016
0.252972
0.251935
0.250903
0.249877
0.248858
0.247844
0.246837
0.245836
0.244841
0.243853
0.242871
0.241896
0.240927
0.239965
0.23901
0.238061
0.237118
0.236182
0.235252
0.234329
0.233412
0.232501
0.231596
0.230698
0.229805
0.228918
0.228037
0.227161
0.22629
0.225424
0.224563
0.223708
0.222857
0.222011
0.22117
0.220334
0.219501
0.218674
0.21785
0.217032
0.216218
0.21541
0.214608
0.21381
0.213017
0.212229
0.211445
0.210666
0.209892
0.209122
0.208357
0.207598
0.206845
0.206106