/*--------------------------------*- C++ -*----------------------------------*\
  =========                 |
  \\      /  F ield         | OpenFOAM: The Open Source CFD Toolbox
   \\    /   O peration     | Website:  https://openfoam.org
    \\  /    A nd           | Version:  13
     \\/     M anipulation  |
\*---------------------------------------------------------------------------*/
FoamFile
{
    format      ascii;
    class       volScalarField;
    location    "300";
    object      nut;
}
// * * * * * * * * * * * * * * * * * * * * * * * * * * * * * * * * * * * * * //

dimensions      [0 2 -1 0 0 0 0];

internalField   nonuniform List<scalar> 
172836
(
0.0176254
0.0176144
0.0176033
0.0175923
0.0175813
0.0175704
0.0175595
0.0175486
0.0176413
0.0176303
0.0176194
0.0176084
0.0175975
0.0175867
0.0175759
0.0175652
0.0176884
0.0176776
0.0176668
0.017656
0.0176452
0.0176345
0.0176238
0.0176132
0.0176026
0.0177545
0.0177439
0.0177332
0.0177226
0.017712
0.0177015
0.0176909
0.0176805
0.01767
0.0178605
0.0178499
0.0178394
0.0178288
0.0178183
0.0178079
0.0177975
0.0177871
0.0177768
0.0180129
0.0180023
0.0179917
0.0179812
0.0179707
0.0179603
0.0179499
0.0179396
0.0179294
0.0182133
0.0182025
0.0181919
0.0181813
0.0181708
0.0181603
0.0181499
0.0181396
0.0181294
0.0184577
0.0184469
0.0184362
0.0184256
0.018415
0.0184046
0.0183943
0.018384
0.0183739
0.0187172
0.0187068
0.0186964
0.0186861
0.018676
0.0186659
0.018656
0.0186462
0.0176516
0.0176406
0.0176296
0.0176187
0.0176077
0.0175967
0.0175858
0.0175748
0.0175639
0.0175531
0.0175423
0.0175315
0.0175213
0.0176667
0.0176558
0.017645
0.0176341
0.0176233
0.0176124
0.0176016
0.0175907
0.01758
0.0175692
0.0175585
0.0175479
0.0175378
0.0177019
0.0176912
0.0176805
0.0176698
0.0176591
0.0176484
0.0176377
0.0176271
0.0176164
0.0176058
0.0175953
0.0175848
0.0175749
0.0177668
0.0177563
0.0177457
0.0177352
0.0177247
0.0177141
0.0177036
0.0176931
0.0176827
0.0176722
0.0176618
0.0176515
0.0176418
0.0178716
0.0178611
0.0178506
0.0178402
0.0178297
0.0178193
0.0178089
0.0177985
0.0177882
0.0177779
0.0177676
0.0177575
0.0177479
0.0180231
0.0180125
0.0180019
0.0179915
0.017981
0.0179706
0.0179602
0.0179499
0.0179396
0.0179294
0.0179192
0.0179092
0.0178997
0.0182227
0.018212
0.0182013
0.0181907
0.0181801
0.0181697
0.0181593
0.0181489
0.0181387
0.0181284
0.0181183
0.0181083
0.0180989
0.0184662
0.0184553
0.0184445
0.0184339
0.0184233
0.0184128
0.0184024
0.0183921
0.0183819
0.0183717
0.0183617
0.0183518
0.0183425
0.0187341
0.0187234
0.0187129
0.0187024
0.0186921
0.0186819
0.0186718
0.0186617
0.0186518
0.018642
0.0186323
0.0186228
0.0186138
0.0188826
0.0184019
0.0183892
0.0183765
0.0183637
0.0183509
0.0183382
0.0183254
0.0183126
0.0182999
0.0182871
0.0182744
0.0182616
0.018249
0.0182363
0.0182237
0.0182111
0.0181985
0.0181859
0.0181733
0.0181607
0.0181482
0.0181356
0.0181231
0.0181106
0.0180981
0.0180857
0.0180733
0.0180609
0.0180486
0.0180364
0.0180242
0.0180121
0.0180001
0.0179881
0.0179762
0.0179644
0.0179527
0.0179411
0.0179296
0.0179182
0.0179068
0.0178955
0.0178843
0.0178732
0.0178621
0.0178511
0.0178401
0.0178292
0.0178184
0.0178075
0.0177967
0.0177859
0.0177751
0.0177643
0.0177535
0.0177427
0.0177319
0.0177211
0.0177103
0.0176994
0.0176885
0.0176776
0.0176666
0.0176557
0.0176447
0.0176338
0.0176229
0.017612
0.0176011
0.0175902
0.0175793
0.0175684
0.0175575
0.0175467
0.0175359
0.0175252
0.017515
0.0184106
0.0183981
0.0183855
0.0183729
0.0183603
0.0183477
0.0183351
0.0183224
0.0183098
0.0182972
0.0182845
0.0182719
0.0182594
0.0182469
0.0182344
0.0182219
0.0182095
0.018197
0.0181845
0.0181721
0.0181596
0.0181472
0.0181347
0.0181223
0.01811
0.0180976
0.0180853
0.0180731
0.0180609
0.0180487
0.0180366
0.0180245
0.0180126
0.0180007
0.0179889
0.0179771
0.0179655
0.017954
0.0179425
0.0179311
0.0179198
0.0179086
0.0178975
0.0178864
0.0178754
0.0178644
0.0178535
0.0178427
0.0178319
0.0178211
0.0178104
0.0177996
0.0177889
0.0177782
0.0177675
0.0177567
0.017746
0.0177353
0.0177245
0.0177137
0.0177029
0.0176921
0.0176812
0.0176703
0.0176594
0.0176486
0.0176378
0.0176271
0.0176163
0.0176055
0.0175947
0.0175839
0.0175731
0.0175624
0.0175517
0.0175411
0.0175311
0.0184347
0.0184226
0.0184103
0.0183981
0.0183858
0.0183735
0.0183612
0.0183488
0.0183365
0.0183241
0.0183117
0.0182994
0.0182871
0.0182748
0.0182626
0.0182503
0.0182381
0.0182259
0.0182136
0.0182014
0.0181891
0.0181769
0.0181646
0.0181524
0.0181402
0.0181281
0.0181159
0.0181038
0.0180917
0.0180797
0.0180677
0.0180558
0.018044
0.0180322
0.0180205
0.0180089
0.0179973
0.0179859
0.0179745
0.0179632
0.017952
0.0179408
0.0179298
0.0179188
0.0179078
0.017897
0.0178861
0.0178754
0.0178647
0.017854
0.0178433
0.0178326
0.017822
0.0178114
0.0178007
0.0177901
0.0177795
0.0177689
0.0177582
0.0177475
0.0177369
0.0177261
0.0177154
0.0177046
0.0176939
0.0176833
0.0176727
0.017662
0.0176514
0.0176408
0.0176301
0.0176195
0.0176089
0.0175983
0.0175878
0.0175774
0.0175675
0.0184882
0.0184766
0.0184649
0.0184532
0.0184414
0.0184295
0.0184176
0.0184056
0.0183936
0.0183816
0.0183696
0.0183575
0.0183455
0.0183335
0.0183216
0.0183096
0.0182977
0.0182857
0.0182737
0.0182617
0.0182496
0.0182376
0.0182256
0.0182135
0.0182015
0.0181895
0.0181776
0.0181656
0.0181537
0.0181418
0.0181299
0.0181181
0.0181063
0.0180946
0.018083
0.0180715
0.01806
0.0180486
0.0180372
0.018026
0.0180148
0.0180037
0.0179926
0.0179816
0.0179707
0.0179598
0.017949
0.0179383
0.0179276
0.0179169
0.0179062
0.0178956
0.017885
0.0178744
0.0178638
0.0178532
0.0178427
0.0178321
0.0178215
0.0178109
0.0178004
0.0177897
0.0177791
0.0177685
0.0177579
0.0177474
0.0177369
0.0177265
0.017716
0.0177055
0.0176951
0.0176846
0.0176742
0.0176638
0.0176535
0.0176432
0.0176335
0.0185889
0.0185779
0.0185669
0.0185556
0.0185443
0.0185329
0.0185214
0.0185098
0.0184981
0.0184863
0.0184745
0.0184627
0.0184509
0.0184392
0.0184274
0.0184156
0.0184038
0.018392
0.0183801
0.0183682
0.0183563
0.0183444
0.0183324
0.0183205
0.0183086
0.0182966
0.0182847
0.0182727
0.0182608
0.0182489
0.018237
0.0182252
0.0182134
0.0182016
0.0181899
0.0181783
0.0181667
0.0181552
0.0181437
0.0181323
0.018121
0.0181097
0.0180984
0.0180873
0.0180762
0.0180652
0.0180542
0.0180432
0.0180324
0.0180215
0.0180107
0.0179999
0.0179892
0.0179785
0.0179677
0.0179571
0.0179464
0.0179358
0.0179251
0.0179145
0.0179039
0.0178932
0.0178826
0.017872
0.0178615
0.0178511
0.0178406
0.0178303
0.0178199
0.0178095
0.0177992
0.0177889
0.0177786
0.0177684
0.0177582
0.0177481
0.0177385
0.0187494
0.018739
0.0187284
0.0187176
0.0187066
0.0186955
0.0186842
0.0186727
0.0186612
0.0186495
0.0186378
0.018626
0.0186142
0.0186024
0.0185906
0.0185788
0.018567
0.0185551
0.0185431
0.0185312
0.0185192
0.0185072
0.0184951
0.0184831
0.018471
0.0184589
0.0184468
0.0184347
0.0184226
0.0184105
0.0183984
0.0183863
0.0183743
0.0183622
0.0183502
0.0183383
0.0183263
0.0183145
0.0183026
0.0182908
0.0182791
0.0182674
0.0182558
0.0182442
0.0182326
0.0182212
0.0182098
0.0181984
0.0181871
0.0181758
0.0181646
0.0181534
0.0181423
0.0181312
0.0181201
0.0181091
0.0180981
0.0180872
0.0180763
0.0180654
0.0180546
0.0180438
0.018033
0.0180223
0.0180117
0.0180012
0.0179908
0.0179803
0.01797
0.0179596
0.0179493
0.0179391
0.0179289
0.0179187
0.0179086
0.0178987
0.0178892
0.0189667
0.0189567
0.0189464
0.0189358
0.0189251
0.0189141
0.0189029
0.0188915
0.0188799
0.0188682
0.0188564
0.0188446
0.0188327
0.0188208
0.0188088
0.0187969
0.0187848
0.0187728
0.0187607
0.0187485
0.0187363
0.0187241
0.0187119
0.0186996
0.0186873
0.0186749
0.0186626
0.0186502
0.0186379
0.0186255
0.018613
0.0186006
0.0185882
0.0185758
0.0185634
0.018551
0.0185386
0.0185262
0.0185139
0.0185016
0.0184893
0.018477
0.0184648
0.0184526
0.0184405
0.0184284
0.0184164
0.0184044
0.0183925
0.0183806
0.0183688
0.0183571
0.0183454
0.0183337
0.0183221
0.0183106
0.0182992
0.0182878
0.0182765
0.0182653
0.0182541
0.018243
0.018232
0.018221
0.0182102
0.0181995
0.0181889
0.0181784
0.0181679
0.0181576
0.0181473
0.018137
0.0181268
0.0181167
0.0181067
0.0180968
0.0180874
0.0192145
0.0192051
0.0191954
0.0191854
0.0191752
0.0191646
0.0191538
0.0191428
0.0191316
0.0191202
0.0191086
0.019097
0.0190854
0.0190737
0.0190619
0.0190501
0.0190382
0.0190263
0.0190143
0.0190022
0.0189901
0.018978
0.0189658
0.0189536
0.0189414
0.0189291
0.0189168
0.0189044
0.0188921
0.0188796
0.0188672
0.0188546
0.0188421
0.0188296
0.018817
0.0188044
0.0187918
0.0187792
0.0187665
0.0187539
0.0187412
0.0187286
0.0187159
0.0187033
0.0186907
0.0186782
0.0186657
0.0186532
0.0186408
0.0186284
0.0186161
0.0186038
0.0185916
0.0185795
0.0185675
0.0185555
0.0185437
0.0185319
0.0185202
0.0185087
0.0184972
0.0184858
0.0184745
0.0184634
0.0184524
0.0184416
0.0184309
0.0184203
0.0184098
0.0183995
0.0183892
0.018379
0.0183689
0.0183588
0.0183489
0.0183391
0.0183299
0.0194501
0.0194419
0.0194334
0.0194245
0.0194152
0.0194057
0.0193959
0.0193859
0.0193756
0.0193651
0.0193544
0.0193437
0.0193329
0.019322
0.0193111
0.0193001
0.019289
0.0192778
0.0192666
0.0192553
0.0192439
0.0192325
0.019221
0.0192095
0.0191979
0.0191863
0.0191747
0.0191629
0.0191512
0.0191393
0.0191274
0.0191155
0.0191035
0.0190914
0.0190793
0.0190671
0.0190549
0.0190426
0.0190303
0.0190179
0.0190055
0.0189931
0.0189806
0.0189681
0.0189557
0.0189432
0.0189308
0.0189183
0.018906
0.0188936
0.0188813
0.0188691
0.0188569
0.0188448
0.0188327
0.0188208
0.018809
0.0187972
0.0187856
0.0187741
0.0187627
0.0187514
0.0187403
0.0187293
0.0187185
0.0187079
0.0186974
0.018687
0.0186768
0.0186667
0.0186567
0.0186468
0.018637
0.0186274
0.0186178
0.0186084
0.0185994
0.0196482
0.0196415
0.0196344
0.0196269
0.019619
0.0196108
0.0196023
0.0195935
0.0195845
0.0195753
0.0195659
0.0195564
0.0195468
0.0195371
0.0195274
0.0195175
0.0195076
0.0194977
0.0194876
0.0194775
0.0194673
0.019457
0.0194467
0.0194363
0.0194259
0.0194155
0.0194049
0.0193943
0.0193837
0.0193729
0.0193621
0.0193512
0.0193402
0.0193291
0.0193179
0.0193067
0.0192954
0.019284
0.0192725
0.019261
0.0192494
0.0192377
0.019226
0.0192142
0.0192024
0.0191906
0.0191788
0.019167
0.0191552
0.0191435
0.0191317
0.01912
0.0191084
0.0190968
0.0190853
0.0190739
0.0190626
0.0190514
0.0190403
0.0190294
0.0190185
0.0190078
0.0189972
0.0189868
0.0189766
0.0189666
0.0189567
0.018947
0.0189375
0.018928
0.0189187
0.0189095
0.0189003
0.0188913
0.0188824
0.0188736
0.0188653
0.019809
0.0198038
0.0197982
0.0197921
0.0197856
0.0197788
0.0197716
0.0197641
0.0197564
0.0197484
0.0197402
0.0197319
0.0197236
0.0197151
0.0197066
0.019698
0.0196894
0.0196806
0.0196718
0.0196629
0.019654
0.019645
0.0196359
0.0196268
0.0196177
0.0196084
0.0195992
0.0195898
0.0195804
0.0195708
0.0195612
0.0195515
0.0195417
0.0195317
0.0195217
0.0195116
0.0195014
0.0194911
0.0194806
0.0194701
0.0194595
0.0194488
0.019438
0.0194272
0.0194163
0.0194054
0.0193945
0.0193836
0.0193727
0.0193617
0.0193508
0.0193399
0.0193291
0.0193183
0.0193076
0.019297
0.0192865
0.0192761
0.0192659
0.0192557
0.0192457
0.0192358
0.019226
0.0192164
0.019207
0.0191979
0.0191888
0.0191799
0.0191712
0.0191626
0.0191542
0.0191458
0.0191375
0.0191293
0.0191213
0.0191134
0.0191057
0.0199433
0.0199396
0.0199353
0.0199306
0.0199254
0.0199198
0.0199139
0.0199075
0.0199009
0.019894
0.0198869
0.0198798
0.0198725
0.0198651
0.0198577
0.0198502
0.0198427
0.0198351
0.0198274
0.0198196
0.0198118
0.019804
0.0197961
0.0197882
0.0197803
0.0197723
0.0197642
0.019756
0.0197478
0.0197394
0.0197309
0.0197224
0.0197137
0.0197049
0.0196959
0.0196869
0.0196777
0.0196684
0.0196589
0.0196494
0.0196397
0.0196299
0.01962
0.01961
0.0196
0.0195899
0.0195798
0.0195696
0.0195595
0.0195494
0.0195392
0.0195291
0.019519
0.019509
0.0194991
0.0194893
0.0194796
0.01947
0.0194605
0.0194511
0.0194419
0.0194328
0.0194239
0.0194152
0.0194067
0.0193984
0.0193903
0.0193823
0.0193745
0.0193668
0.0193593
0.0193518
0.0193445
0.0193372
0.0193301
0.019323
0.0193163
0.0200637
0.0200615
0.0200587
0.0200553
0.0200513
0.0200469
0.020042
0.0200366
0.0200309
0.0200249
0.0200188
0.0200125
0.0200061
0.0199996
0.0199931
0.0199865
0.0199799
0.0199732
0.0199664
0.0199597
0.0199529
0.0199461
0.0199392
0.0199323
0.0199254
0.0199185
0.0199114
0.0199043
0.0198971
0.0198898
0.0198824
0.0198748
0.0198671
0.0198592
0.0198512
0.0198431
0.0198347
0.0198262
0.0198176
0.0198088
0.0197998
0.0197907
0.0197815
0.0197721
0.0197627
0.0197532
0.0197437
0.0197341
0.0197245
0.019715
0.0197054
0.0196958
0.0196864
0.0196769
0.0196676
0.0196584
0.0196493
0.0196403
0.0196315
0.0196229
0.0196144
0.0196061
0.0195979
0.01959
0.0195823
0.0195748
0.0195675
0.0195604
0.0195535
0.0195467
0.0195401
0.0195335
0.0195271
0.0195208
0.0195145
0.0195085
0.0195026
0.0201814
0.0201808
0.0201793
0.0201772
0.0201744
0.0201709
0.020167
0.0201625
0.0201575
0.0201523
0.0201468
0.0201412
0.0201355
0.0201297
0.0201239
0.020118
0.0201121
0.0201062
0.0201003
0.0200943
0.0200884
0.0200825
0.0200766
0.0200706
0.0200647
0.0200587
0.0200527
0.0200466
0.0200403
0.020034
0.0200275
0.0200208
0.0200139
0.0200069
0.0199996
0.0199922
0.0199845
0.0199766
0.0199685
0.0199602
0.0199517
0.019943
0.0199341
0.0199251
0.0199159
0.0199067
0.0198974
0.0198881
0.0198787
0.0198693
0.01986
0.0198507
0.0198415
0.0198323
0.0198233
0.0198144
0.0198057
0.0197972
0.0197888
0.0197807
0.0197727
0.019765
0.0197575
0.0197502
0.0197432
0.0197365
0.01973
0.0197237
0.0197177
0.0197118
0.019706
0.0197004
0.0196949
0.0196894
0.0196841
0.019679
0.0196739
0.0203058
0.0203068
0.0203068
0.0203059
0.0203043
0.0203018
0.0202987
0.0202949
0.0202906
0.0202859
0.020281
0.0202759
0.0202706
0.0202653
0.02026
0.0202547
0.0202493
0.020244
0.0202387
0.0202335
0.0202283
0.0202231
0.020218
0.020213
0.0202079
0.0202028
0.0201977
0.0201925
0.0201871
0.0201816
0.020176
0.0201701
0.020164
0.0201576
0.0201509
0.020144
0.0201368
0.0201293
0.0201215
0.0201135
0.0201051
0.0200965
0.0200877
0.0200786
0.0200694
0.0200601
0.0200507
0.0200412
0.0200318
0.0200223
0.0200128
0.0200034
0.0199941
0.0199849
0.0199759
0.0199671
0.0199585
0.0199502
0.019942
0.0199342
0.0199266
0.0199193
0.0199122
0.0199055
0.0198991
0.0198931
0.0198873
0.0198818
0.0198765
0.0198715
0.0198666
0.0198619
0.0198573
0.0198528
0.0198484
0.0198442
0.01984
0.020444
0.0204468
0.0204484
0.0204488
0.0204482
0.0204467
0.0204442
0.020441
0.0204371
0.0204329
0.0204282
0.0204234
0.0204184
0.0204134
0.0204084
0.0204034
0.0203985
0.0203936
0.0203888
0.0203842
0.0203796
0.0203752
0.020371
0.0203668
0.0203626
0.0203585
0.0203543
0.02035
0.0203456
0.020341
0.0203362
0.0203311
0.0203257
0.0203199
0.0203138
0.0203073
0.0203004
0.0202931
0.0202854
0.0202772
0.0202688
0.0202599
0.0202507
0.0202413
0.0202316
0.0202218
0.0202119
0.0202018
0.0201918
0.0201817
0.0201717
0.0201618
0.020152
0.0201424
0.0201331
0.020124
0.0201152
0.0201067
0.0200985
0.0200907
0.0200833
0.0200762
0.0200695
0.0200632
0.0200573
0.0200518
0.0200467
0.0200419
0.0200374
0.0200332
0.0200292
0.0200254
0.0200217
0.0200181
0.0200147
0.0200114
0.0200082
0.020602
0.0206067
0.0206099
0.0206117
0.0206121
0.0206113
0.0206094
0.0206065
0.0206029
0.0205988
0.0205942
0.0205894
0.0205844
0.0205793
0.0205743
0.0205694
0.0205646
0.0205599
0.0205555
0.0205513
0.0205473
0.0205435
0.0205399
0.0205365
0.0205332
0.02053
0.0205268
0.0205234
0.02052
0.0205163
0.0205123
0.0205079
0.0205032
0.020498
0.0204923
0.0204861
0.0204794
0.0204721
0.0204643
0.0204559
0.020447
0.0204376
0.0204278
0.0204176
0.020407
0.0203962
0.0203853
0.0203743
0.0203632
0.0203521
0.0203412
0.0203303
0.0203197
0.0203093
0.0202992
0.0202895
0.0202802
0.0202713
0.0202628
0.0202548
0.0202473
0.0202402
0.0202336
0.0202275
0.0202219
0.0202169
0.0202122
0.020208
0.0202042
0.0202008
0.0201975
0.0201945
0.0201917
0.020189
0.0201864
0.0201841
0.0201816
0.0207821
0.0207887
0.0207933
0.0207962
0.0207973
0.020797
0.0207953
0.0207924
0.0207886
0.0207842
0.0207792
0.0207738
0.0207684
0.0207628
0.0207574
0.0207521
0.020747
0.0207423
0.0207378
0.0207338
0.0207301
0.0207267
0.0207238
0.0207211
0.0207186
0.0207163
0.020714
0.0207116
0.0207091
0.0207064
0.0207033
0.0206998
0.0206957
0.0206911
0.0206859
0.02068
0.0206734
0.020666
0.0206578
0.0206489
0.0206393
0.020629
0.0206181
0.0206067
0.0205949
0.0205828
0.0205704
0.0205579
0.0205453
0.0205328
0.0205204
0.0205081
0.0204962
0.0204845
0.0204733
0.0204625
0.0204522
0.0204425
0.0204333
0.0204247
0.0204167
0.0204093
0.0204025
0.0203963
0.0203907
0.0203857
0.0203814
0.0203775
0.0203741
0.020371
0.0203683
0.0203658
0.0203635
0.0203613
0.0203593
0.0203575
0.0203556
0.0209807
0.0209886
0.0209941
0.0209974
0.0209988
0.0209983
0.0209961
0.0209926
0.020988
0.0209825
0.0209763
0.0209697
0.0209629
0.0209561
0.0209494
0.0209429
0.0209368
0.0209311
0.0209258
0.0209212
0.0209171
0.0209136
0.0209106
0.0209081
0.020906
0.0209041
0.0209024
0.0209007
0.0208989
0.020897
0.0208946
0.0208918
0.0208884
0.0208844
0.0208795
0.0208738
0.0208672
0.0208596
0.0208511
0.0208416
0.0208313
0.0208202
0.0208083
0.0207957
0.0207826
0.0207691
0.0207552
0.0207411
0.0207269
0.0207127
0.0206986
0.0206846
0.020671
0.0206577
0.020645
0.0206327
0.020621
0.02061
0.0205996
0.0205899
0.0205809
0.0205725
0.0205649
0.0205579
0.0205517
0.0205462
0.0205413
0.0205369
0.0205331
0.0205297
0.0205266
0.0205238
0.0205212
0.0205188
0.0205165
0.0205145
0.0205122
0.0211762
0.0211837
0.0211886
0.0211912
0.0211915
0.0211898
0.0211863
0.0211813
0.0211747
0.021167
0.0211584
0.0211493
0.0211399
0.0211305
0.0211211
0.0211121
0.0211035
0.0210954
0.021088
0.0210814
0.0210755
0.0210704
0.0210661
0.0210624
0.0210594
0.0210569
0.0210548
0.0210529
0.0210511
0.0210492
0.021047
0.0210445
0.0210414
0.0210377
0.0210332
0.0210278
0.0210215
0.0210143
0.0210061
0.020997
0.0209868
0.0209757
0.0209638
0.020951
0.0209375
0.0209234
0.0209088
0.0208938
0.0208786
0.0208631
0.0208476
0.0208322
0.020817
0.0208021
0.0207876
0.0207736
0.0207601
0.0207472
0.0207349
0.0207234
0.0207124
0.0207022
0.0206926
0.0206837
0.0206755
0.020668
0.0206611
0.0206548
0.0206489
0.0206434
0.0206382
0.0206332
0.0206285
0.0206239
0.0206195
0.0206153
0.020611
0.0213149
0.0213196
0.0213216
0.0213216
0.0213194
0.0213154
0.0213095
0.0213017
0.0212919
0.0212806
0.0212681
0.0212547
0.0212407
0.0212265
0.0212122
0.021198
0.0211842
0.0211708
0.0211582
0.0211463
0.0211353
0.0211253
0.0211163
0.0211082
0.0211011
0.0210949
0.0210894
0.0210846
0.0210803
0.0210763
0.0210726
0.0210689
0.0210652
0.0210614
0.0210576
0.0210535
0.0210491
0.0210443
0.0210389
0.0210329
0.0210261
0.0210184
0.0210099
0.0210004
0.02099
0.0209788
0.0209667
0.0209539
0.0209403
0.0209262
0.0209116
0.0208965
0.0208811
0.0208657
0.0208502
0.0208348
0.0208195
0.0208045
0.0207898
0.0207754
0.0207613
0.0207476
0.0207342
0.0207213
0.0207087
0.0206966
0.0206848
0.0206733
0.0206621
0.0206511
0.0206402
0.0206295
0.0206188
0.0206083
0.0205978
0.0205877
0.0205776
0.0212935
0.0212893
0.0212837
0.0212769
0.021269
0.0212589
0.0212462
0.0212311
0.0212139
0.021195
0.0211745
0.0211528
0.0211303
0.021107
0.0210832
0.0210592
0.0210353
0.0210116
0.0209884
0.020966
0.0209444
0.0209239
0.0209047
0.0208867
0.0208702
0.0208552
0.0208416
0.0208295
0.0208187
0.0208092
0.0208014
0.0207956
0.0207917
0.0207898
0.0207897
0.0207911
0.0207939
0.0207976
0.0208019
0.0208063
0.0208105
0.0208141
0.0208168
0.0208183
0.0208185
0.0208172
0.0208143
0.0208097
0.0208033
0.0207954
0.0207858
0.0207746
0.020762
0.0207482
0.0207333
0.0207174
0.0207006
0.0206831
0.0206648
0.0206459
0.0206264
0.0206062
0.0205856
0.0205645
0.020543
0.0205212
0.0204989
0.0204762
0.0204532
0.0204298
0.0204061
0.0203822
0.0203581
0.020334
0.0203101
0.0202868
0.0209265
0.020909
0.0208941
0.0208806
0.0208676
0.0208511
0.0208315
0.0208091
0.0207837
0.0207555
0.0207246
0.0206911
0.0206552
0.0206171
0.020577
0.0205352
0.020492
0.0204478
0.020403
0.020358
0.0203133
0.0202693
0.0202267
0.0201857
0.0201469
0.0201105
0.0200771
0.0200469
0.0200197
0.0199973
0.0199806
0.0199703
0.0199666
0.0199697
0.0199794
0.0199952
0.0200164
0.0200421
0.0200714
0.0201033
0.0201366
0.0201703
0.0202035
0.0202352
0.0202648
0.0202914
0.0203148
0.0203344
0.0203499
0.0203611
0.0203683
0.0203708
0.0203691
0.0203634
0.0203538
0.0203405
0.0203238
0.0203037
0.0202804
0.0202541
0.0202248
0.0201927
0.0201579
0.0201206
0.020081
0.0200391
0.0199953
0.0199496
0.0199023
0.0198535
0.0198035
0.0197526
0.0197012
0.0196497
0.0195986
0.0195494
0.0198738
0.0198481
0.0198312
0.0198124
0.0197913
0.0197672
0.0197395
0.0197077
0.0196714
0.0196303
0.019584
0.0195325
0.0194757
0.0194137
0.0193468
0.0192754
0.0192001
0.0191217
0.0190409
0.0189586
0.0188759
0.0187938
0.0187134
0.0186357
0.0185619
0.0184938
0.0184297
0.0183744
0.0183303
0.0182995
0.0182832
0.0182823
0.0182969
0.0183265
0.0183703
0.018427
0.0184948
0.0185719
0.018656
0.018745
0.0188367
0.0189289
0.0190196
0.019107
0.0191896
0.0192659
0.0193349
0.0193957
0.0194476
0.0194903
0.0195232
0.0195462
0.0195594
0.0195633
0.0195581
0.0195442
0.0195218
0.0194913
0.019453
0.0194072
0.0193545
0.0192952
0.01923
0.0191595
0.0190844
0.0190054
0.0189235
0.0188394
0.0187545
0.0186698
0.0185866
0.0185066
0.0184311
0.0183619
0.0183012
0.0177848
0.0177749
0.0177638
0.0177521
0.0177379
0.0177196
0.0176955
0.0176641
0.0176242
0.0175747
0.0175151
0.0174448
0.0173638
0.0172724
0.0171712
0.0170612
0.0169435
0.0168196
0.0166914
0.0165607
0.0164297
0.0163011
0.0161767
0.0160604
0.0159519
0.0158579
0.0157831
0.0157309
0.0157033
0.0157013
0.0157246
0.0157724
0.0158432
0.015935
0.0160456
0.0161727
0.0163135
0.0164655
0.0166258
0.0167915
0.0169597
0.0171274
0.0172919
0.0174504
0.0176004
0.0177398
0.0178665
0.0179789
0.0180757
0.0181564
0.0182197
0.0182659
0.0182954
0.0183088
0.018307
0.0182911
0.0182622
0.018222
0.0181722
0.0181149
0.0180523
0.0179871
0.0179219
0.0178596
0.0178035
0.0177566
0.0177222
0.0177035
0.0177034
0.0177251
0.017771
0.0178433
0.0179436
0.018065
0.0146281
0.0146481
0.01467
0.0146906
0.0147068
0.0147154
0.0147136
0.014699
0.0146697
0.0146244
0.0145625
0.0144838
0.0143892
0.01428
0.0141584
0.0140274
0.0138907
0.0137528
0.0136187
0.0134944
0.0133853
0.0132982
0.0132385
0.0132126
0.013224
0.0132706
0.0133485
0.0134521
0.0135758
0.0137144
0.0138634
0.0140195
0.0141804
0.0143447
0.0145118
0.0146815
0.0148537
0.0150285
0.0152057
0.0153848
0.015565
0.0157451
0.0159238
0.0160994
0.0162703
0.016435
0.0165932
0.016744
0.0168867
0.017026
0.0171613
0.0172926
0.0174205
0.0175466
0.0176731
0.0178027
0.0179385
0.0180838
0.0182421
0.0184168
0.0186115
0.0188296
0.0190742
0.0193478
0.0196528
0.0199907
0.0203631
0.0207713
0.0212158
0.0216962
0.0222119
0.0227591
0.0233046
0.0109789
0.0110396
0.0111075
0.0111781
0.011247
0.0113099
0.0113632
0.0114041
0.011431
0.0114434
0.0114427
0.0114319
0.0114162
0.0114028
0.0114005
0.0114198
0.0114709
0.0115645
0.0117086
0.011909
0.0121707
0.0124893
0.0128731
0.0133052
0.01376
0.014215
0.0146516
0.0150565
0.0154211
0.0157415
0.0160173
0.0162511
0.0164473
0.016612
0.0167518
0.0168737
0.0169848
0.0170917
0.0172006
0.0173172
0.017447
0.0175951
0.0177658
0.0179641
0.0181933
0.0184556
0.0187578
0.0191004
0.019482
0.0199178
0.0203966
0.0209094
0.0214495
0.022012
0.022593
0.0231898
0.0238007
0.0244249
0.0250617
0.0257123
0.0263785
0.0270633
0.0277663
0.028487
0.0292256
0.0299833
0.0307606
0.0315581
0.0323756
0.0332128
0.0340684
0.0349359
0.0357505
0.0079118
0.00800514
0.00811424
0.00823473
0.00836382
0.00849996
0.00864347
0.00879763
0.00896937
0.00917003
0.00941533
0.00972429
0.0101173
0.0106125
0.0112231
0.011954
0.0128002
0.013751
0.0147846
0.0158816
0.0170121
0.0181505
0.0192862
0.0203614
0.0213374
0.0221915
0.0229145
0.0235073
0.0239786
0.0243418
0.0246139
0.0248128
0.0249574
0.0250654
0.0251543
0.0252406
0.0253393
0.025464
0.0256265
0.0258381
0.0261075
0.0264434
0.0268564
0.0273438
0.0279044
0.0285429
0.0292507
0.0300209
0.0308664
0.0317508
0.0326573
0.0335757
0.0344966
0.0354156
0.0363243
0.0372156
0.0380892
0.0389462
0.0397882
0.0406178
0.041438
0.0422521
0.0430634
0.0438754
0.0446916
0.0455152
0.0463489
0.0471949
0.0480548
0.04893
0.0498202
0.0507163
0.0515305
0.00644485
0.00661611
0.00682796
0.0070881
0.00741256
0.00782531
0.0083585
0.00905064
0.00994155
0.011065
0.0124404
0.014067
0.0159213
0.0179604
0.0201262
0.0223551
0.0245819
0.026745
0.0288033
0.0307055
0.0324498
0.0339822
0.0352771
0.0363335
0.0371668
0.037803
0.0382737
0.0386125
0.0388527
0.0390262
0.039162
0.0392864
0.039422
0.0395892
0.0398047
0.0400821
0.0404308
0.0408579
0.041367
0.0419589
0.0426324
0.0433792
0.0441944
0.0450667
0.0459779
0.0469388
0.0479169
0.0488731
0.0498083
0.0507192
0.0516004
0.0524494
0.0532655
0.0540491
0.0548032
0.0555316
0.056241
0.0569356
0.0576229
0.0583079
0.0589895
0.0596691
0.0603495
0.0610383
0.0617402
0.0624586
0.0631959
0.0639537
0.0647331
0.0655331
0.066341
0.0670554
0.00767038
0.00821452
0.00894489
0.00991375
0.0111857
0.0128206
0.0148587
0.0173085
0.0201381
0.0232779
0.026629
0.0300783
0.0335123
0.0368287
0.0399462
0.0428005
0.0453603
0.0475893
0.0495059
0.0510989
0.0523644
0.0533419
0.0540775
0.0546185
0.0550114
0.0552987
0.0555192
0.0557068
0.0558901
0.056093
0.0563346
0.0566293
0.0569876
0.0574155
0.0579158
0.0584868
0.0591242
0.0598227
0.060571
0.0613593
0.0621773
0.0630032
0.0638464
0.0646884
0.0654819
0.0662394
0.0669631
0.0676508
0.068306
0.0689261
0.0695176
0.0700874
0.0706165
0.0711196
0.0716062
0.0720843
0.0725616
0.0730423
0.0735307
0.0740308
0.0745458
0.0750787
0.0756318
0.0762072
0.076808
0.0774316
0.0780781
0.078748
0.0794402
0.0801401
0.0807402
0.0150712
0.0166215
0.0186604
0.0212181
0.0243035
0.0278699
0.0318291
0.0360424
0.0403595
0.0446318
0.0487279
0.0525424
0.0560034
0.0590628
0.0617095
0.0639357
0.0657752
0.0672559
0.0683821
0.0692234
0.0698431
0.0702982
0.0706384
0.0709064
0.0711382
0.0713633
0.0716048
0.0718805
0.0722029
0.0725798
0.0730146
0.0735082
0.0740563
0.074652
0.0752878
0.0759537
0.0766386
0.0773337
0.0780206
0.0786999
0.0793665
0.0799833
0.0805547
0.0810852
0.0815917
0.0820471
0.082464
0.0828513
0.0832155
0.0835624
0.0838966
0.0842214
0.0845416
0.0848619
0.0851875
0.085522
0.0858688
0.0862315
0.0866124
0.0870122
0.087433
0.0878755
0.0883395
0.0888245
0.0893304
0.0898569
0.0904038
0.0909697
0.0915405
0.0920147
0.0287616
0.0316333
0.0352043
0.0393568
0.0439283
0.0487244
0.0535458
0.0582137
0.0625844
0.0665548
0.0700653
0.0730873
0.0756299
0.0777081
0.0793729
0.080674
0.0816315
0.0823289
0.0828357
0.0832107
0.0835017
0.0837481
0.083981
0.0842243
0.0844953
0.084806
0.0851629
0.0855686
0.0860221
0.0865183
0.0870512
0.0876117
0.0881901
0.0887759
0.0893593
0.0899279
0.0904737
0.0909994
0.0914815
0.0919213
0.0923094
0.0926603
0.0929794
0.0932725
0.0935421
0.093792
0.0940263
0.094249
0.0944655
0.0946768
0.0948877
0.095104
0.0953232
0.0955527
0.0957941
0.0960492
0.0963191
0.0966049
0.096907
0.0972257
0.0975607
0.0979113
0.0982766
0.0986563
0.09905
0.0994578
0.0998797
0.100306
0.100652
0.0410305
0.0451089
0.0498343
0.0548872
0.0600503
0.065111
0.0698889
0.0742514
0.078116
0.0814473
0.0842405
0.0865273
0.0883416
0.0897518
0.0908189
0.0915819
0.0921239
0.0925125
0.0928028
0.0930383
0.0932523
0.0934704
0.0937107
0.0939847
0.0942995
0.0946574
0.0950567
0.0954936
0.0959608
0.0964497
0.096952
0.0974554
0.0979543
0.0984369
0.0988907
0.0993226
0.0997166
0.100062
0.100373
0.100656
0.100913
0.101147
0.101361
0.101558
0.10174
0.10191
0.102073
0.102229
0.102382
0.102534
0.102688
0.102844
0.103007
0.103175
0.103351
0.103536
0.10373
0.103933
0.104145
0.104366
0.104595
0.104831
0.105074
0.105323
0.105578
0.105841
0.106112
0.106393
0.106617
0.0595799
0.0648284
0.0700466
0.0749755
0.0795018
0.0835331
0.0870164
0.0899446
0.0923396
0.0942501
0.0957239
0.0968377
0.0976542
0.0982242
0.0986212
0.0989037
0.0991175
0.0992988
0.0994741
0.0996626
0.0998773
0.100126
0.100411
0.100733
0.101088
0.101471
0.101877
0.102294
0.102717
0.103134
0.103538
0.103928
0.104285
0.104617
0.104926
0.105207
0.105468
0.105708
0.105932
0.10614
0.106333
0.106513
0.106682
0.106841
0.106992
0.107137
0.107277
0.107414
0.107548
0.107681
0.107813
0.107945
0.108077
0.10821
0.108343
0.108477
0.108612
0.108747
0.108881
0.109014
0.109146
0.109275
0.109403
0.109529
0.109654
0.109786
0.109933
0.110054
0.0781291
0.0826591
0.0866372
0.0900866
0.0930469
0.0954475
0.0973525
0.0988384
0.0999556
0.100785
0.101373
0.101783
0.102061
0.10226
0.102409
0.102539
0.102665
0.102805
0.102966
0.103154
0.103372
0.103618
0.103892
0.104186
0.104498
0.104819
0.105144
0.105467
0.105782
0.106082
0.106375
0.106655
0.106927
0.107185
0.107436
0.107675
0.107907
0.108127
0.108341
0.108542
0.108738
0.108922
0.109102
0.109272
0.109439
0.109597
0.109751
0.109897
0.110039
0.110173
0.110302
0.110422
0.110537
0.110642
0.11074
0.11083
0.11091
0.110982
0.111042
0.111093
0.111133
0.111163
0.111183
0.111198
0.111214
0.111254
0.111297
0.0870173
0.0906155
0.0935406
0.0959742
0.018395
0.0183823
0.0183696
0.0183568
0.0183441
0.0183313
0.0183186
0.0183059
0.0182931
0.0182804
0.0182677
0.018255
0.0182423
0.0182297
0.0182171
0.0182045
0.0181919
0.0181793
0.0181668
0.0181542
0.0181416
0.0181291
0.0181166
0.0181041
0.0180916
0.0180792
0.0180668
0.0180544
0.0180421
0.0180299
0.0180177
0.0180056
0.0179935
0.0179815
0.0179696
0.0179578
0.0179461
0.0179344
0.0179229
0.0179114
0.0179
0.0178887
0.0178774
0.0178662
0.0178551
0.0178441
0.0178331
0.0178222
0.0178113
0.0178004
0.0177896
0.0177788
0.017768
0.0177572
0.0177464
0.0177356
0.0177249
0.0177141
0.0177032
0.0176924
0.0176815
0.0176706
0.0176597
0.0176488
0.0176379
0.017627
0.0176161
0.0176052
0.0175944
0.0175835
0.0175726
0.0175618
0.017551
0.0175401
0.0175294
0.0175187
0.0175085
0.0184034
0.0183908
0.0183783
0.0183657
0.0183531
0.0183405
0.0183279
0.0183153
0.0183027
0.0182901
0.0182775
0.0182649
0.0182524
0.0182399
0.0182274
0.018215
0.0182025
0.0181901
0.0181776
0.0181652
0.0181527
0.0181403
0.0181279
0.0181155
0.0181031
0.0180908
0.0180785
0.0180663
0.018054
0.0180419
0.0180297
0.0180177
0.0180057
0.0179938
0.0179819
0.0179702
0.0179585
0.017947
0.0179355
0.017924
0.0179127
0.0179014
0.0178902
0.0178791
0.0178681
0.0178571
0.0178462
0.0178353
0.0178245
0.0178137
0.0178029
0.0177922
0.0177814
0.0177707
0.01776
0.0177493
0.0177386
0.0177278
0.0177171
0.0177063
0.0176956
0.0176847
0.0176739
0.017663
0.0176522
0.0176414
0.0176307
0.0176199
0.0176092
0.0175984
0.0175877
0.0175769