/*--------------------------------*- C++ -*----------------------------------*\
  =========                 |
  \\      /  F ield         | OpenFOAM: The Open Source CFD Toolbox
   \\    /   O peration     | Website:  https://openfoam.org
    \\  /    A nd           | Version:  13
     \\/     M anipulation  |
\*---------------------------------------------------------------------------*/
FoamFile
{
    format      ascii;
    class       volScalarField;
    location    "300";
    object      omega;
}
// * * * * * * * * * * * * * * * * * * * * * * * * * * * * * * * * * * * * * //

dimensions      [0 0 -1 0 0 0 0];

internalField   nonuniform List<scalar> 
172836
(
11.8788
11.8412
11.8039
11.7667
11.7297
11.6929
11.6564
11.62
11.8777
11.8401
11.8028
11.7656
11.7286
11.6919
11.6553
11.6189
11.9098
11.8721
11.8346
11.7972
11.76
11.7231
11.6863
11.6498
11.6134
11.8975
11.8598
11.8223
11.785
11.7478
11.7109
11.6742
11.6376
11.6013
11.8741
11.8366
11.7992
11.7619
11.7249
11.6881
11.6514
11.615
11.5787
11.8364
11.799
11.7618
11.7248
11.6879
11.6513
11.6148
11.5785
11.5425
11.7825
11.7454
11.7084
11.6717
11.6351
11.5987
11.5625
11.5265
11.4907
11.712
11.6752
11.6386
11.6022
11.566
11.5299
11.4941
11.4584
11.4229
11.5961
11.5598
11.5236
11.4876
11.4518
11.4162
11.3808
11.3456
11.9873
11.9493
11.9115
11.8739
11.8364
11.7991
11.762
11.7251
11.6885
11.652
11.6157
11.5797
11.5441
11.986
11.948
11.9103
11.8727
11.8352
11.798
11.7609
11.724
11.6873
11.6509
11.6146
11.5785
11.543
11.9803
11.9423
11.9046
11.867
11.8296
11.7923
11.7553
11.7184
11.6817
11.6452
11.609
11.5729
11.5374
11.9678
11.9299
11.8921
11.8546
11.8172
11.78
11.7429
11.7061
11.6694
11.633
11.5967
11.5607
11.5252
11.9441
11.9062
11.8686
11.8311
11.7938
11.7567
11.7198
11.683
11.6464
11.6101
11.5739
11.538
11.5026
11.9055
11.8679
11.8304
11.7932
11.7561
11.7191
11.6824
11.6458
11.6094
11.5732
11.5372
11.5015
11.4662
11.8503
11.8129
11.7758
11.7388
11.702
11.6654
11.6289
11.5926
11.5565
11.5205
11.4848
11.4493
11.4143
11.7782
11.7412
11.7044
11.6678
11.6313
11.595
11.5589
11.5229
11.4871
11.4515
11.4161
11.3809
11.3463
11.6973
11.6606
11.6241
11.5877
11.5515
11.5154
11.4796
11.4438
11.4083
11.3729
11.3378
11.3029
11.2685
11.1954
14.9187
14.8633
14.8083
14.7537
14.6993
14.6454
14.5917
14.5385
14.4855
14.4329
14.3806
14.3286
14.277
14.2258
14.1748
14.1242
14.0738
14.0238
13.974
13.9245
13.8753
13.8264
13.7778
13.7295
13.6814
13.6337
13.5862
13.539
13.4921
13.4455
13.3991
13.3531
13.3074
13.2619
13.2168
13.172
13.1274
13.0832
13.0392
12.9956
12.9522
12.9091
12.8663
12.8237
12.7814
12.7394
12.6976
12.6561
12.6148
12.5738
12.533
12.4924
12.452
12.4118
12.3718
12.3321
12.2925
12.2531
12.2139
12.1748
12.136
12.0973
12.0587
12.0203
11.9822
11.9443
11.9065
11.869
11.8316
11.7944
11.7574
11.7205
11.6839
11.6475
11.6112
11.5753
11.5397
14.9179
14.8625
14.8075
14.7528
14.6985
14.6445
14.5908
14.5375
14.4846
14.4319
14.3796
14.3276
14.276
14.2247
14.1738
14.1232
14.0728
14.0228
13.973
13.9235
13.8743
13.8254
13.7768
13.7284
13.6804
13.6326
13.5851
13.5379
13.491
13.4443
13.398
13.3519
13.3061
13.2607
13.2155
13.1707
13.1261
13.0818
13.0379
12.9942
12.9508
12.9077
12.8648
12.8222
12.7799
12.7379
12.6961
12.6546
12.6133
12.5723
12.5315
12.4909
12.4505
12.4103
12.3703
12.3305
12.291
12.2516
12.2124
12.1734
12.1345
12.0958
12.0573
12.0189
11.9808
11.9429
11.9052
11.8677
11.8303
11.7931
11.7561
11.7193
11.6827
11.6463
11.61
11.5741
11.5386
14.9134
14.858
14.8029
14.7482
14.6939
14.6399
14.5862
14.5329
14.4799
14.4272
14.3749
14.3229
14.2713
14.22
14.169
14.1184
14.0681
14.018
13.9682
13.9187
13.8695
13.8206
13.7719
13.7236
13.6755
13.6277
13.5802
13.5329
13.486
13.4393
13.3929
13.3468
13.301
13.2556
13.2104
13.1655
13.1209
13.0766
13.0326
12.9889
12.9455
12.9023
12.8594
12.8168
12.7745
12.7324
12.6906
12.6491
12.6078
12.5667
12.5259
12.4853
12.4448
12.4047
12.3647
12.3249
12.2853
12.2459
12.2067
12.1676
12.1288
12.0901
12.0515
12.0132
11.9751
11.9372
11.8995
11.862
11.8246
11.7874
11.7504
11.7136
11.677
11.6406
11.6043
11.5684
11.5329
14.8982
14.8428
14.7877
14.733
14.6787
14.6247
14.5711
14.5178
14.4648
14.4122
14.3599
14.3079
14.2563
14.2051
14.1542
14.1036
14.0533
14.0032
13.9535
13.9041
13.8549
13.806
13.7574
13.7091
13.661
13.6133
13.5658
13.5186
13.4717
13.4251
13.3788
13.3328
13.287
13.2416
13.1965
13.1516
13.1071
13.0629
13.0189
12.9753
12.9319
12.8888
12.846
12.8034
12.7612
12.7191
12.6774
12.6359
12.5946
12.5536
12.5128
12.4722
12.4319
12.3917
12.3518
12.312
12.2724
12.2331
12.1939
12.1549
12.116
12.0774
12.0389
12.0005
11.9625
11.9246
11.8869
11.8494
11.8121
11.775
11.738
11.7012
11.6646
11.6282
11.592
11.556
11.5205
14.8626
14.8073
14.7524
14.6978
14.6436
14.5898
14.5363
14.4832
14.4304
14.378
14.3259
14.2741
14.2227
14.1717
14.1209
14.0705
14.0204
13.9706
13.9211
13.8718
13.8228
13.7741
13.7257
13.6776
13.6298
13.5822
13.535
13.488
13.4413
13.3949
13.3488
13.303
13.2575
13.2122
13.1673
13.1227
13.0784
13.0344
12.9907
12.9472
12.9041
12.8612
12.8186
12.7762
12.7342
12.6924
12.6508
12.6095
12.5684
12.5276
12.487
12.4466
12.4064
12.3664
12.3266
12.287
12.2476
12.2083
12.1693
12.1304
12.0917
12.0531
12.0147
11.9765
11.9386
11.9008
11.8632
11.8258
11.7886
11.7515
11.7146
11.6779
11.6414
11.6051
11.569
11.5331
11.4977
14.7984
14.7435
14.689
14.6348
14.5811
14.5277
14.4746
14.422
14.3696
14.3176
14.266
14.2147
14.1637
14.1131
14.0629
14.0129
13.9632
13.9139
13.8648
13.816
13.7674
13.7192
13.6712
13.6235
13.5761
13.529
13.4822
13.4356
13.3894
13.3434
13.2977
13.2524
13.2073
13.1625
13.118
13.0738
13.03
12.9864
12.9431
12.9001
12.8573
12.8149
12.7727
12.7308
12.6891
12.6477
12.6065
12.5656
12.5249
12.4844
12.4442
12.4041
12.3642
12.3246
12.2851
12.2458
12.2067
12.1677
12.1289
12.0903
12.0518
12.0135
11.9753
11.9374
11.8996
11.8621
11.8247
11.7875
11.7504
11.7136
11.6769
11.6403
11.604
11.5678
11.5319
11.4962
11.4609
14.7057
14.6515
14.5976
14.5442
14.4911
14.4384
14.386
14.334
14.2823
14.231
14.18
14.1294
14.0791
14.0292
13.9796
13.9303
13.8813
13.8326
13.7841
13.7359
13.688
13.6404
13.593
13.546
13.4992
13.4527
13.4065
13.3605
13.3149
13.2695
13.2244
13.1797
13.1352
13.091
13.0471
13.0036
12.9603
12.9173
12.8746
12.8322
12.7901
12.7482
12.7066
12.6652
12.6241
12.5833
12.5427
12.5023
12.4622
12.4222
12.3825
12.3429
12.3035
12.2643
12.2253
12.1864
12.1478
12.1092
12.0708
12.0326
11.9945
11.9566
11.9188
11.8811
11.8437
11.8065
11.7694
11.7325
11.6957
11.6591
11.6227
11.5865
11.5504
11.5145
11.4788
11.4433
11.4084
14.5981
14.5446
14.4913
14.4385
14.386
14.3339
14.2821
14.2307
14.1796
14.1288
14.0784
14.0283
13.9786
13.9293
13.8802
13.8315
13.783
13.7349
13.687
13.6394
13.592
13.5449
13.4982
13.4516
13.4054
13.3595
13.3138
13.2684
13.2234
13.1786
13.1341
13.0898
13.0459
13.0023
12.959
12.916
12.8733
12.8309
12.7888
12.7469
12.7054
12.6641
12.623
12.5822
12.5417
12.5014
12.4613
12.4215
12.3819
12.3424
12.3032
12.2642
12.2253
12.1866
12.148
12.1096
12.0714
12.0333
11.9953
11.9575
11.9199
11.8823
11.8449
11.8077
11.7707
11.7338
11.6971
11.6605
11.6241
11.5879
11.5518
11.5159
11.4801
11.4446
11.4092
11.3741
11.3394
14.5017
14.4485
14.3956
14.343
14.2908
14.2389
14.1874
14.1361
14.0852
14.0346
13.9843
13.9344
13.8849
13.8356
13.7868
13.7382
13.6899
13.6419
13.5942
13.5468
13.4996
13.4527
13.4061
13.3598
13.3138
13.268
13.2226
13.1774
13.1326
13.088
13.0437
12.9997
12.9561
12.9127
12.8696
12.8269
12.7844
12.7423
12.7004
12.6588
12.6175
12.5764
12.5356
12.4951
12.4548
12.4148
12.375
12.3354
12.2961
12.2569
12.2179
12.1791
12.1405
12.102
12.0637
12.0256
11.9876
11.9497
11.912
11.8745
11.837
11.7998
11.7626
11.7256
11.6888
11.6522
11.6157
11.5794
11.5433
11.5073
11.4714
11.4358
11.4003
11.365
11.3299
11.295
11.2607
14.4325
14.3794
14.3266
14.2741
14.2219
14.1699
14.1183
14.067
14.016
13.9652
13.9148
13.8647
13.815
13.7656
13.7166
13.6679
13.6194
13.5713
13.5234
13.4759
13.4286
13.3816
13.3348
13.2884
13.2423
13.1965
13.1509
13.1057
13.0607
13.0161
12.9717
12.9277
12.8839
12.8405
12.7973
12.7545
12.712
12.6697
12.6277
12.586
12.5446
12.5035
12.4626
12.4219
12.3815
12.3414
12.3014
12.2617
12.2222
12.1829
12.1438
12.1049
12.0662
12.0276
11.9892
11.951
11.9129
11.875
11.8372
11.7996
11.7621
11.7248
11.6876
11.6506
11.6138
11.5772
11.5408
11.5045
11.4685
11.4325
11.3968
11.3612
11.3258
11.2906
11.2557
11.2209
11.1868
14.3919
14.3388
14.286
14.2335
14.1812
14.1292
14.0774
14.0259
13.9746
13.9237
13.873
13.8226
13.7726
13.723
13.6736
13.6246
13.5758
13.5274
13.4792
13.4314
13.3838
13.3365
13.2895
13.2429
13.1965
13.1504
13.1046
13.0591
13.0139
12.9691
12.9245
12.8802
12.8362
12.7925
12.7491
12.706
12.6631
12.6206
12.5783
12.5363
12.4946
12.4531
12.4119
12.3709
12.3301
12.2896
12.2493
12.2093
12.1694
12.1298
12.0903
12.051
12.0119
11.973
11.9343
11.8957
11.8573
11.8191
11.7811
11.7432
11.7055
11.6679
11.6306
11.5934
11.5564
11.5197
11.4831
11.4467
11.4105
11.3745
11.3387
11.3031
11.2677
11.2325
11.1975
11.1628
11.1287
14.3752
14.3223
14.2696
14.217
14.1647
14.1126
14.0606
14.0089
13.9574
13.9062
13.8552
13.8046
13.7543
13.7043
13.6546
13.6052
13.5561
13.5074
13.4589
13.4107
13.3628
13.3153
13.268
13.221
13.1744
13.1281
13.082
13.0363
12.9909
12.9457
12.9009
12.8563
12.812
12.7681
12.7243
12.6809
12.6378
12.5949
12.5522
12.5098
12.4677
12.4258
12.3841
12.3426
12.3014
12.2604
12.2196
12.179
12.1387
12.0985
12.0585
12.0188
11.9792
11.9398
11.9006
11.8615
11.8227
11.7841
11.7456
11.7073
11.6693
11.6314
11.5937
11.5562
11.519
11.482
11.4452
11.4086
11.3723
11.3362
11.3002
11.2645
11.229
11.1938
11.1587
11.124
11.0899
14.3782
14.3255
14.2729
14.2205
14.1681
14.1159
14.0639
14.012
13.9603
13.9088
13.8576
13.8066
13.756
13.7057
13.6556
13.6059
13.5565
13.5074
13.4586
13.4102
13.362
13.3141
13.2666
13.2194
13.1725
13.1259
13.0796
13.0336
12.988
12.9426
12.8975
12.8527
12.8081
12.7639
12.7199
12.6761
12.6326
12.5893
12.5463
12.5035
12.4609
12.4185
12.3764
12.3344
12.2927
12.2511
12.2098
12.1687
12.1277
12.087
12.0465
12.0061
11.966
11.926
11.8862
11.8467
11.8074
11.7682
11.7293
11.6906
11.6521
11.6139
11.5758
11.538
11.5005
11.4632
11.4262
11.3894
11.3528
11.3165
11.2805
11.2446
11.2091
11.1737
11.1386
11.1038
11.0698
14.3977
14.3454
14.2931
14.2408
14.1885
14.1363
14.0841
14.0321
13.9802
13.9285
13.8769
13.8257
13.7747
13.7241
13.6737
13.6237
13.574
13.5246
13.4755
13.4267
13.3783
13.3302
13.2824
13.235
13.1879
13.1411
13.0947
13.0485
13.0027
12.9572
12.9119
12.8669
12.8221
12.7776
12.7333
12.6893
12.6454
12.6018
12.5584
12.5152
12.4721
12.4292
12.3865
12.344
12.3017
12.2596
12.2176
12.1759
12.1343
12.0929
12.0517
12.0107
11.9699
11.9293
11.889
11.8488
11.8089
11.7693
11.7298
11.6907
11.6517
11.613
11.5746
11.5365
11.4986
11.461
11.4238
11.3868
11.3501
11.3136
11.2774
11.2415
11.2058
11.1704
11.1353
11.1005
11.0664
14.4333
14.3814
14.3295
14.2774
14.2253
14.1731
14.1209
14.0687
14.0166
13.9646
13.9127
13.8612
13.8099
13.7588
13.7081
13.6577
13.6077
13.5579
13.5085
13.4595
13.4108
13.3624
13.3145
13.2669
13.2196
13.1727
13.1261
13.0799
13.0339
12.9882
12.9428
12.8976
12.8527
12.8079
12.7634
12.7191
12.6749
12.6309
12.5871
12.5434
12.4998
12.4564
12.4132
12.37
12.3271
12.2843
12.2416
12.1992
12.1569
12.1148
12.0729
12.0312
11.9897
11.9484
11.9074
11.8666
11.826
11.7858
11.7458
11.7061
11.6667
11.6276
11.5887
11.5502
11.5121
11.4742
11.4367
11.3995
11.3626
11.3261
11.2898
11.2538
11.2181
11.1827
11.1476
11.1128
11.0788
14.4859
14.4347
14.3832
14.3315
14.2795
14.2274
14.1751
14.1227
14.0703
14.018
13.9658
13.9138
13.8621
13.8107
13.7596
13.7087
13.6583
13.6082
13.5585
13.5091
13.4602
13.4117
13.3636
13.3158
13.2685
13.2215
13.1749
13.1286
13.0826
13.0368
12.9913
12.946
12.9009
12.856
12.8113
12.7667
12.7222
12.6778
12.6334
12.5892
12.5451
12.501
12.4571
12.4132
12.3694
12.3258
12.2823
12.239
12.1958
12.1528
12.11
12.0674
12.0251
11.983
11.9411
11.8996
11.8583
11.8174
11.7768
11.7365
11.6966
11.657
11.6177
11.5789
11.5404
11.5023
11.4646
11.4273
11.3903
11.3537
11.3174
11.2814
11.2457
11.2104
11.1754
11.1407
11.1069
14.5594
14.5091
14.4582
14.4069
14.3551
14.303
14.2506
14.198
14.1452
14.0925
14.0399
13.9874
13.9351
13.8831
13.8314
13.7801
13.7292
13.6787
13.6286
13.5789
13.5298
13.481
13.4328
13.385
13.3376
13.2906
13.2439
13.1976
13.1516
13.1059
13.0603
13.015
12.9697
12.9246
12.8796
12.8347
12.7897
12.7449
12.7
12.6551
12.6102
12.5653
12.5205
12.4756
12.4308
12.3861
12.3416
12.2971
12.2528
12.2088
12.1649
12.1212
12.0778
12.0347
11.992
11.9495
11.9074
11.8657
11.8244
11.7835
11.743
11.7029
11.6632
11.624
11.5852
11.547
11.5091
11.4717
11.4347
11.3981
11.3619
11.3261
11.2906
11.2554
11.2206
11.1862
11.1527
14.6598
14.6105
14.5603
14.5094
14.4579
14.4057
14.3531
14.3
14.2467
14.1934
14.1401
14.0869
14.0339
13.9812
13.9289
13.8769
13.8255
13.7745
13.724
13.6741
13.6247
13.5759
13.5276
13.4798
13.4326
13.3857
13.3393
13.2931
13.2473
13.2016
13.1562
13.1108
13.0655
13.0202
12.9749
12.9296
12.8842
12.8386
12.7929
12.7471
12.7011
12.6551
12.6089
12.5627
12.5165
12.4703
12.4242
12.3782
12.3324
12.2868
12.2415
12.1964
12.1517
12.1073
12.0633
12.0198
11.9767
11.934
11.8919
11.8502
11.8091
11.7685
11.7285
11.689
11.65
11.6116
11.5738
11.5365
11.4997
11.4633
11.4274
11.3919
11.3569
11.3222
11.2879
11.254
11.221
14.7956
14.7477
14.6985
14.6482
14.5969
14.5447
14.4917
14.438
14.3841
14.33
14.2758
14.2218
14.1679
14.1144
14.0613
14.0087
13.9566
13.9052
13.8544
13.8044
13.755
13.7063
13.6582
13.6107
13.5639
13.5174
13.4714
13.4257
13.3803
13.335
13.2897
13.2445
13.1992
13.1538
13.1082
13.0623
13.016
12.9694
12.9224
12.8751
12.8275
12.7796
12.7315
12.6833
12.635
12.5866
12.5383
12.4902
12.4422
12.3945
12.3472
12.3002
12.2537
12.2076
12.1621
12.1172
12.0729
12.0292
11.9861
11.9437
11.902
11.861
11.8207
11.781
11.7421
11.7039
11.6664
11.6295
11.5932
11.5575
11.5224
11.4877
11.4536
11.4199
11.3866
11.3537
11.3218
14.9818
14.936
14.8885
14.8391
14.7882
14.7358
14.6822
14.628
14.5732
14.5182
14.463
14.4079
14.3531
14.2987
14.2449
14.1918
14.1395
14.088
14.0374
13.9877
13.9389
13.8909
13.8438
13.7975
13.7517
13.7065
13.6617
13.6171
13.5726
13.5282
13.4836
13.4388
13.3937
13.3481
13.3018
13.2548
13.2071
13.1586
13.1094
13.0596
13.0091
12.9581
12.9068
12.8551
12.8033
12.7514
12.6996
12.648
12.5967
12.5458
12.4955
12.4457
12.3966
12.3482
12.3007
12.2539
12.2081
12.1631
12.1191
12.076
12.0339
11.9927
11.9524
11.9131
11.8748
11.8374
11.8009
11.7652
11.7304
11.6963
11.6629
11.6301
11.598
11.5664
11.5353
11.5048
11.475
15.2485
15.2066
15.1616
15.1138
15.0636
15.0112
14.957
14.9021
14.8465
14.7904
14.7343
14.6783
14.6227
14.5679
14.5139
14.4609
14.4091
14.3584
14.3091
14.2611
14.2143
14.1686
14.1241
14.0804
14.0374
13.9949
13.9527
13.9106
13.8684
13.8258
13.7827
13.7389
13.694
13.6478
13.6001
13.5509
13.5002
13.4481
13.3945
13.3396
13.2837
13.2268
13.1693
13.1113
13.0532
12.995
12.937
12.8795
12.8226
12.7664
12.7111
12.6569
12.6039
12.5521
12.5016
12.4524
12.4046
12.3583
12.3133
12.2698
12.2278
12.1871
12.1479
12.1101
12.0737
12.0386
12.0049
11.9724
11.9411
11.9109
11.8818
11.8536
11.8263
11.7999
11.7743
11.7494
11.7253
15.6236
15.5831
15.5379
15.4886
15.4359
15.3814
15.3256
15.2688
15.2116
15.1544
15.0978
15.042
14.9876
14.9346
14.8834
14.8341
14.7869
14.7416
14.6983
14.6569
14.6172
14.5789
14.5417
14.5053
14.4693
14.4333
14.3969
14.3598
14.3216
14.2821
14.2403
14.1959
14.1484
14.0976
14.0436
13.9863
13.926
13.8629
13.7973
13.7297
13.6606
13.5903
13.5194
13.4484
13.3777
13.3077
13.2387
13.1711
13.1051
13.0409
12.9788
12.919
12.8615
12.8064
12.7537
12.7034
12.6557
12.6103
12.5675
12.5271
12.4891
12.4535
12.4204
12.3896
12.3612
12.3351
12.3112
12.2895
12.2699
12.2523
12.2367
12.2229
12.211
12.2009
12.1925
12.185
16.3255
16.2918
16.2493
16.1996
16.1448
16.0887
16.0308
15.972
15.913
15.8546
15.7976
15.7427
15.6904
15.6411
15.5951
15.5527
15.5139
15.4787
15.447
15.4184
15.3925
15.3689
15.347
15.326
15.3053
15.2843
15.262
15.2379
15.2117
15.1813
15.1454
15.1032
15.0539
14.9973
14.9331
14.8617
14.7836
14.6994
14.6101
14.5166
14.4201
14.3217
14.2226
14.1236
14.0259
13.9302
13.8371
13.7474
13.6615
13.5798
13.5024
13.43
13.3625
13.2999
13.2422
13.1894
13.1415
13.0985
13.0604
13.0272
12.999
12.9757
12.9574
12.9441
12.9358
12.9326
12.9346
12.9416
12.9538
12.9711
12.9936
13.0213
13.0543
13.0924
13.1357
13.181
17.5754
17.5312
17.4733
17.412
17.3476
17.2816
17.2154
17.1503
17.0878
17.0291
16.9755
16.9277
16.8866
16.8526
16.8262
16.8073
16.7958
16.7915
16.7937
16.8019
16.8149
16.8318
16.8512
16.8721
16.8929
16.9115
16.9293
16.9407
16.9423
16.931
16.9043
16.8604
16.7982
16.7175
16.6186
16.503
16.3723
16.2291
16.076
15.9157
15.7514
15.5856
15.421
15.26
15.1045
14.9563
14.8164
14.6863
14.5667
14.4577
14.3603
14.2749
14.2011
14.139
14.0883
14.0491
14.0213
14.0051
14.0005
14.0077
14.0271
14.0589
14.1033
14.1606
14.2313
14.3155
14.4136
14.5259
14.6526
14.7938
14.9496
15.1198
15.3043
15.5022
15.7042
19.9437
19.8564
19.7667
19.6736
19.5802
19.4893
19.4038
19.3265
19.2597
19.2057
19.166
19.1423
19.1357
19.147
19.1766
19.2247
19.2912
19.3756
19.4769
19.5941
19.7254
19.8686
20.0223
20.1817
20.3489
20.5134
20.6644
20.7915
20.8854
20.9384
20.9448
20.9011
20.8063
20.6617
20.4709
20.2391
19.9729
19.6798
19.3677
19.0445
18.7177
18.3944
18.0805
17.7816
17.5021
17.2453
17.0142
16.8113
16.6377
16.4939
16.3836
16.3053
16.2579
16.2409
16.2538
16.2964
16.3686
16.4705
16.6023
16.764
16.956
17.1783
17.431
17.7139
18.0264
18.368
18.7374
19.1333
19.5538
19.9966
20.459
20.9375
21.4277
21.9062
24.3557
24.1779
23.9998
23.8277
23.6677
23.5257
23.4072
23.3174
23.2607
23.2416
23.2638
23.331
23.4469
23.6144
23.8364
24.1154
24.4528
24.8491
25.3034
25.8113
26.3709
26.9701
27.601
28.2541
28.8905
29.4791
29.9915
30.4046
30.7007
30.8691
30.9052
30.8106
30.5924
30.2619
29.8339
29.3255
28.7552
28.1421
27.5046
26.8604
26.2261
25.6163
25.0434
24.5187
24.0507
23.6451
23.3096
23.0468
22.8557
22.744
22.7089
22.7444
22.8456
23.0079
23.227
23.4989
23.8194
24.1848
24.5911
25.0343
25.5104
26.0149
26.5433
27.0909
27.6527
28.2234
28.798
29.3718
29.9398
30.4969
31.0381
31.5567
32.0229
32.6735
32.2804
31.8971
31.5379
31.2169
30.9472
30.7415
30.6119
30.571
30.631
30.805
31.1058
31.5463
32.1378
32.8888
33.8036
34.8795
36.1087
37.4721
38.9454
40.4962
42.0757
43.6692
45.1924
46.585
47.7993
48.8017
49.5715
50.1002
50.3898
50.4503
50.2986
49.9563
49.4482
48.8018
48.0455
47.2078
46.317
45.3995
44.4804
43.5825
42.725
41.9241
41.1924
40.5386
39.9684
39.4846
39.086
38.7688
38.5349
38.3723
38.2728
38.229
38.2332
38.278
38.3568
38.4635
38.5925
38.7379
38.8957
39.063
39.2387
39.4177
39.5949
39.7666
39.9305
40.0845
40.2265
40.3547
40.4677
40.564
40.6405
40.6834
47.1785
46.3536
45.5641
44.8459
44.2309
43.7503
43.4347
43.3152
43.4225
43.7861
44.4311
45.3748
46.6231
48.1665
49.9797
52.0203
54.233
56.5534
58.9106
61.241
63.4711
65.5521
67.429
69.0452
70.3787
71.4238
72.1862
72.6799
72.9243
72.9417
72.7564
72.3931
71.8763
71.2298
70.4769
69.639
68.7363
67.7867
66.8055
65.8078
64.8019
63.801
62.821
61.853
60.9001
59.9672
59.0478
58.1461
57.2753
56.4112
55.5648
54.7474
53.966
53.2291
52.5345
51.878
51.2605
50.6812
50.1384
49.6296
49.1523
48.7037
48.2814
47.8827
47.5053
47.1467
46.8045
46.4768
46.1615
45.8571
45.5621
45.2745
44.9997
68.7684
67.3469
66.1037
65.1048
64.4062
64.0572
64.0953
64.5417
65.3953
66.6296
68.193
70.0132
72.0054
74.081
76.1563
78.1597
80.0299
81.7245
83.2128
84.473
85.5105
86.2914
86.8363
87.1662
87.3016
87.2614
87.063
86.7226
86.255
85.6735
84.9904
84.2166
83.362
82.4359
81.4455
80.3977
79.2976
78.1503
76.9605
75.7329
74.4734
73.1862
71.8757
70.5481
69.2145
67.878
66.5493
65.2294
63.9362
62.6815
61.4722
60.3136
59.209
58.1595
57.165
56.2241
55.3348
54.4947
53.7011
52.951
52.2407
51.5666
50.9257
50.3167
49.7376
49.1864
48.6603
48.1575
47.6766
47.2161
46.7754
46.3752
98.8865
96.7043
94.8509
93.3937
92.3465
91.6948
91.3962
91.3888
91.6009
91.961
92.405
92.8802
93.3446
93.7672
94.1233
94.3952
94.5707
94.6322
94.5817
94.4014
94.0933
93.6703
93.1425
92.5183
91.8052
91.0102
90.1407
89.2031
88.2033
87.1473
86.0406
84.8878
83.6937
82.4625
81.1982
79.904
78.585
77.2459
75.8908
74.5224
73.1461
71.769
70.392
69.028
67.6867
66.3753
65.0989
63.8619
62.6672
61.5173
60.4126
59.3532
58.3389
57.3699
56.4452
55.5634
54.7235
53.9225
53.1578
52.4272
51.7288
51.0607
50.4211
49.8085
49.2225
48.6596
48.1182
47.5975
47.0971
46.6187
46.1924
127.62
123.178
119.23
115.794
112.836
110.31
108.19
106.411
104.922
103.67
102.603
101.671
100.826
100.027
99.2391
98.4305
97.5801
96.6669
95.6852
94.6378
93.5284
92.3626
91.1468
89.8882
88.5947
87.2742
85.9342
84.5816
83.2225
81.8623
80.505
79.1547
77.813
76.4823
75.1634
73.8586
72.5689
71.2946
70.0396
68.802
67.5849
66.4008
65.2499
64.1313
63.0419
61.9868
60.9658
59.9785
59.0249
58.1049
57.2176
56.3622
55.5379
54.7436
53.9782
53.2404
52.5288
51.8422
51.1793
50.5385
49.919
49.3198
48.7396
48.1776
47.6327
47.1044
46.5923
46.0968
45.622
45.2037
131.985
127.081
122.75
118.949
115.645
112.793
110.334
108.201
106.325
104.641
103.084
101.604
100.153
98.698
97.2114
95.6764
94.0996
92.4843
90.8373
89.169
87.4908
85.8151
84.1539
82.5183
80.9178
79.36
77.8505
76.3925
74.988
73.6364
72.3368
71.0861
69.8814
68.7205
67.5985
66.5137
65.4644
64.4429
63.4585
62.5083
61.5909
60.7009
59.8366
58.9961
58.1788
57.3839
56.6109
55.8588
55.1276
54.4152
53.7213
53.0465
52.3871
51.7449
51.1185
50.5072
49.9101
49.3265
48.7559
48.1979
47.6517
47.1171
46.5937
46.0812
45.5795
45.0892
44.6114
44.153
43.7536
127.671
123.822
120.3
117.093
114.187
111.553
109.149
106.923
104.824
102.802
100.815
98.8261
96.8127
94.758
92.6587
90.541
88.4153
86.297
84.2041
82.1544
80.165
78.2507
76.4234
74.6911
73.0586
71.5271
70.095
68.7583
67.5111
66.3459
65.2551
64.2303
63.2637
62.3478
61.4784
60.6453
59.8474
59.0896
58.3611
57.656
56.9711
56.3043
55.6537
55.0176
54.3949
53.7846
53.1861
52.5984
52.0209
51.4526
50.893
50.3414
49.7975
49.2604
48.7301
48.206
47.6879
47.1756
46.6689
46.1676
45.6716
45.1812
44.6962
44.217
43.7439
43.278
42.8214
42.3838
42.0069
118.43
115.802
113.202
110.653
108.16
105.699
103.266
100.837
98.3926
95.911
93.3881
90.8244
88.2354
85.6638
83.1286
80.6538
78.2628
75.9776
73.8159
71.7915
69.9123
68.1816
66.5975
65.154
63.8425
62.6515
61.5693
60.5826
59.6788
58.8465
58.076
57.3536
56.6798
56.0424
55.4353
54.8586
54.3051
53.769
53.2477
52.738
52.239
51.7481
51.2649
50.7876
50.3161
49.8487
49.3856
48.9253
48.4677
48.0117
47.5573
47.1036
46.6508
46.198
45.7457
45.2934
44.8414
44.3897
43.9383
43.4877
43.0379
42.5896
42.1431
41.6994
41.2595
40.8269
40.4132
40.0613
110.793
108.262
105.646
102.942
100.059
97.2464
94.3871
91.4833
88.5432
85.5874
82.6468
79.7747
76.9931
74.3342
71.8189
69.4707
67.301
65.3192
63.5249
61.9136
60.4753
59.1962
58.0608
57.052
56.154
55.348
54.6234
53.9621
53.359
52.8024
52.2851
51.7971
51.3344
50.8932
50.4703
50.059
49.6593
49.266
48.8806
48.4986
48.1215
47.7454
47.3723
46.9989
46.6268
46.2532
45.8796
45.5032
45.1257
44.7446
44.3616
43.9744
43.5846
43.1907
42.7938
42.3937
41.9904
41.5846
41.1757
40.7655
40.3533
39.9409
39.5281
39.1177
38.7126
38.327
38.0027
103.883
101.158
98.2961
95.1929
14.9118
14.8564
14.8015
14.7468
14.6925
14.6386
14.585
14.5318
14.4788
14.4263
14.374
14.3221
14.2705
14.2193
14.1684
14.1178
14.0675
14.0175
13.9677
13.9183
13.8692
13.8203
13.7717
13.7234
13.6754
13.6277
13.5803
13.5331
13.4862
13.4397
13.3934
13.3474
13.3017
13.2563
13.2111
13.1663
13.1218
13.0776
13.0336
12.99
12.9466
12.9035
12.8607
12.8181
12.7759
12.7338
12.6921
12.6506
12.6093
12.5683
12.5275
12.4869
12.4465
12.4063
12.3664
12.3266
12.2871
12.2477
12.2085
12.1695
12.1307
12.0921
12.0536
12.0152
11.9771
11.9392
11.9015
11.864
11.8267
11.7896
11.7526
11.7158
11.6792
11.6429
11.6067
11.5707
11.5352
14.9109
14.8556
14.8006
14.7459
14.6916
14.6376
14.584
14.5308
14.4778
14.4252
14.3729
14.321
14.2694
14.2182
14.1673
14.1167
14.0664
14.0164
13.9667
13.9172
13.8681
13.8192
13.7706
13.7223
13.6743
13.6266
13.5791
13.532
13.4851
13.4385
13.3922
13.3462
13.3004
13.255
13.2099
13.165
13.1205
13.0763
13.0323
12.9886
12.9452
12.9021
12.8592
12.8167
12.7744
12.7323
12.6906
12.649
12.6078
12.5667
12.5259
12.4853
12.4449
12.4048
12.3648
12.3251
12.2855
12.2462
12.207
12.168
12.1292
12.0906
12.0521
12.0138
11.9757
11.9378
11.9001
11.8627
11.8254
11.7883
11.7513
11.7146
11.678
11.6416
11.6054
11.5695
11.5341
14.9064
14.851
14.796
14.7413
14.687
14.633
14.5793
14.526
14.4731
14.4205
14.3682
14.3162
14.2646
14.2134
14.1625
14.1118
14.0615
14.0115
13.9618
13.9123
13.8632
13.8143
13.7657
13.7174
13.6693
13.6216
13.5741
13.5269
13.48
13.4334
13.3871
13.3411
13.2953
13.2499
13.2047
13.1598
13.1153
13.071
13.027
12.9833
12.9399
12.8967
12.8538
12.8113
12.7689
12.7269
12.6851
12.6435
12.6022
12.5611
12.5203
12.4797
12.4393
12.3991
12.3591
12.3194
12.2798
12.2404
12.2013
12.1623
12.1234
12.0848
12.0463
12.008
11.9699
11.932
11.8944
11.8569
11.8196
11.7825
11.7455
11.7088
11.6722
11.6358
11.5996
11.5637
11.5282
14.8913
14.8359
14.7809
14.7262
14.6718
14.6179
14.5643
14.511
14.458
14.4054
14.3531
14.3012
14.2497
14.1984
14.1476
14.097
14.0467
13.9967
13.947
13.8976
13.8485
13.7997
13.7511
13.7028
13.6549
13.6072
13.5597
13.5126
13.4658
13.4192
13.3729
13.3269
13.2812
13.2358
13.1907
13.1459
13.1014
13.0572
13.0133
12.9696
12.9262
12.8832
12.8403
12.7978
12.7555
12.7135
12.6718
12.6303
12.589
12.548
12.5072
12.4666
12.4263
12.3861
12.3462
12.3065
12.2669
12.2276
12.1884
12.1495
12.1106
12.072
12.0336
11.9953
11.9572
11.9194
11.8818
11.8443
11.807
11.7699
11.733
11.6963
11.6597
11.6233
11.5872
11.5513
11.5158
14.856
14.8007
14.7457
14.6912
14.637
14.5831
14.5297
14.4765
14.4237
14.3713
14.3192
14.2675
14.2161
14.165
14.1143
14.064
14.0139
13.9641
13.9146
13.8654
13.8164
13.7678
13.7194
13.6713
13.6235
13.576
13.5288
13.4819
13.4353
13.3889
13.3428
13.2971
13.2516
13.2064
13.1615
13.1169
13.0726
13.0286
12.9849
12.9415
12.8983
12.8554
12.8128
12.7705
12.7284
12.6866
12.6451
12.6038
12.5627
12.5218
12.4812
12.4408
12.4006
12.3607
12.3209
12.2813
12.2419
12.2027
12.1637
12.1248
12.0861
12.0476
12.0093
11.9711
11.9331
11.8954
11.8579
11.8205
11.7833
11.7463
11.7094
11.6728
11.6363
11.6
11.5639
11.5281
11.4927
14.792
14.737
14.6825
14.6283
14.5745
14.5211
14.468
14.4153
14.363
14.3109
14.2593
14.208
14.157
14.1064
14.0562
14.0062
13.9565
13.9072
13.8581
13.8093
13.7608
13.7126
13.6646
13.617
13.5696
13.5225
13.4758
13.4292
13.383
13.3371
13.2915
13.2461
13.2011
13.1563
13.1119
13.0677
13.0238
12.9803
12.937
12.894
12.8512
12.8088
12.7666
12.7246
12.683
12.6416
12.6004
12.5595
12.5188
12.4783
12.438
12.398
12.3581
12.3185
12.279
12.2397
12.2006
12.1617
12.1229
12.0843
12.0459
12.0076
11.9695
11.9316
11.8939
11.8563
11.819
11.7818
11.7448
11.708
11.6713
11.6348
11.5985
11.5624
11.5265
11.4908
11.4556
14.699
14.6447
14.5908
14.5373
14.4842
14.4314
14.379
14.327
14.2752
14.2239
14.1729
14.1222
14.0719
14.022
13.9724
13.923
13.874
13.8253
13.7768
13.7287
13.6808
13.6332
13.5859
13.5388
13.4921
13.4456
13.3994
13.3535
13.3079
13.2626
13.2175
13.1728
13.1283
13.0842
13.0403
12.9968
12.9535
12.9105
12.8678
12.8254
12.7833
12.7414
12.6998
12.6584
12.6173
12.5765
12.5359
12.4955
12.4553
12.4154
12.3756
12.3361
12.2967
12.2575
12.2185
12.1797
12.141
12.1025
12.0642
12.026
11.9879
11.95
11.9123
11.8747
11.8373
11.8001
11.7631
11.7262
11.6895
11.6529
11.6165
11.5803
11.5443
11.5084
11.4728
11.4373
11.4024
14.5906
14.537
14.4837
14.4308
14.3782
14.326
14.2742
14.2227
14.1716
14.1208
14.0703
14.0202
13.9705
13.9211
13.872
13.8232
13.7748
13.7266
13.6787
13.6311
13.5838
13.5367
13.49
13.4435
13.3973
13.3513
13.3057
13.2604
13.2153
13.1705
13.126
13.0819
13.038
12.9944
12.9511
12.9081
12.8654
12.823
12.7809
12.739
12.6974
12.6561
12.6151
12.5743
12.5338
12.4935
12.4534
12.4136
12.374
12.3346
12.2953
12.2563
12.2174
12.1788
12.1403
12.1019
12.0637
12.0257
11.9878
11.95
11.9124
11.8749
11.8376
11.8004
11.7634
11.7266
11.6899
11.6533
11.617
11.5808
11.5447
11.5088
11.4731
11.4376
11.4023
11.3672
11.3325
14.4929
14.4395
14.3866
14.3339
14.2816
14.2297
14.1781
14.1268
14.0758
14.0252
13.9749
13.9249
13.8753
13.8261
13.7772
13.7286
13.6803
13.6323
13.5846
13.5372
13.4901
13.4432
13.3966
13.3504
13.3044
13.2587
13.2132
13.1681
13.1233
13.0788
13.0345
12.9906
12.9469
12.9036
12.8605
12.8178
12.7753
12.7332
12.6913
12.6497
12.6084
12.5673
12.5266
12.486
12.4458
12.4057
12.3659
12.3264
12.287
12.2479
12.2089
12.1701
12.1315
12.0931
12.0548
12.0167
11.9788
11.941
11.9034
11.8658
11.8285
11.7912
11.7542
11.7172
11.6805
11.6439
11.6075
11.5712
11.5351
11.4992
11.4634
11.4278
11.3923
11.3571
11.322
11.2872
11.2528
14.422
14.3688
14.3159
14.2633
14.211
14.159
14.1073
14.056
14.0049
13.9542
13.9037
13.8536
13.8039
13.7545
13.7055
13.6567
13.6083
13.5602
13.5123
13.4648
13.4175
13.3706
13.3239
13.2775
13.2315
13.1857
13.1402
13.095
13.0501
13.0055
12.9612
12.9171
12.8734
12.83
12.7869
12.7441
12.7015
12.6593
12.6173
12.5757
12.5342
12.4931
12.4522
12.4116
12.3712
12.3311
12.2912
12.2515
12.212
12.1728
12.1337
12.0948
12.0561
12.0176
11.9793
11.9411
11.9031
11.8652
11.8275
11.79
11.7526
11.7153
11.6782
11.6413
11.6046
11.568
11.5316
11.4954
11.4594
11.4235
11.3878
11.3523
11.3169
11.2818
11.2468
11.2121
11.178
14.3793
14.3261
14.2732
14.2206
14.1682
14.1161
14.0643
14.0128
13.9615
13.9105
13.8598
13.8095
13.7595
13.7098
13.6605
13.6115
13.5628
13.5144
13.4663
13.4185
13.371
13.3238
13.2769
13.2303
13.184
13.138
13.0923
13.0469
13.0018
12.9569
12.9124
12.8682
12.8242
12.7806
12.7372
12.6942
12.6514
12.6089
12.5666
12.5247
12.483
12.4415
12.4003
12.3593
12.3186
12.2781
12.2379
12.1978
12.158
12.1184
12.079
12.0398
12.0007
11.9619
11.9232
11.8847
11.8464
11.8083
11.7703
11.7325
11.6948
11.6574
11.6201
11.583
11.5461
11.5094
11.4729
11.4365
11.4004
11.3645
11.3287
11.2932
11.2578
11.2227
11.1877
11.1531
11.119
14.3602
14.3071
14.2543
14.2017
14.1492
14.097
14.0451
13.9933
13.9418
13.8906
13.8396
13.789
13.7387
13.6888
13.6391
13.5898
13.5408
13.4921
13.4437
13.3957
13.3479
13.3004
13.2533
13.2064
13.1599
13.1136
13.0677
13.0221
12.9767
12.9317
12.8869
12.8425
12.7983
12.7544
12.7107
12.6673
12.6242
12.5814
12.5388
12.4965
12.4544
12.4125
12.3709
12.3295
12.2883
12.2474
12.2066
12.1661