/*--------------------------------*- C++ -*----------------------------------*\
  =========                 |
  \\      /  F ield         | OpenFOAM: The Open Source CFD Toolbox
   \\    /   O peration     | Website:  https://openfoam.org
    \\  /    A nd           | Version:  13
     \\/     M anipulation  |
\*---------------------------------------------------------------------------*/
FoamFile
{
    format      ascii;
    class       volScalarField;
    location    "200";
    object      k;
}
// * * * * * * * * * * * * * * * * * * * * * * * * * * * * * * * * * * * * * //

dimensions      [0 2 -2 0 0 0 0];

internalField   nonuniform List<scalar> 
173327
(
0.27516
0.273967
0.27279
0.271629
0.270485
0.269359
0.268249
0.267155
0.266077
0.265013
0.263964
0.262929
0.261907
0.260896
0.259897
0.258908
0.257928
0.256957
0.255993
0.255037
0.254088
0.253144
0.252205
0.251271
0.250341
0.249415
0.248492
0.247572
0.246654
0.24574
0.244828
0.243917
0.243009
0.242103
0.241199
0.240296
0.239396
0.238498
0.237602
0.23671
0.235819
0.234932
0.234048
0.233168
0.232291
0.231418
0.23055
0.229686
0.228826
0.227972
0.227122
0.226279
0.225441
0.224608
0.223782
0.222962
0.222149
0.221342
0.220542
0.219747
0.21896
0.218178
0.217403
0.216635
0.215873
0.215117
0.214367
0.213623
0.212885
0.212152
0.211424
0.210701
0.209983
0.20927
0.208561
0.207857
0.207171
0.275224
0.274033
0.272858
0.271699
0.270558
0.269433
0.268325
0.267234
0.266158
0.265096
0.264049
0.263016
0.261996
0.260987
0.25999
0.259003
0.258025
0.257055
0.256094
0.25514
0.254192
0.25325
0.252313
0.251381
0.250453
0.249528
0.248607
0.247689
0.246774
0.245861
0.24495
0.244042
0.243135
0.24223
0.241328
0.240427
0.239528
0.238632
0.237738
0.236847
0.235958
0.235072
0.234189
0.233309
0.232433
0.23156
0.230692
0.229828
0.228968
0.228113
0.227263
0.226419
0.22558
0.224746
0.223919
0.223098
0.222283
0.221474
0.220671
0.219875
0.219085
0.218301
0.217524
0.216753
0.215989
0.21523
0.214478
0.213731
0.212991
0.212255
0.211526
0.210801
0.210082
0.209367
0.208658
0.207953
0.207266
0.275357
0.27417
0.272999
0.271845
0.270707
0.269586
0.268482
0.267394
0.266322
0.265264
0.264221
0.263191
0.262173
0.261168
0.260174
0.25919
0.258215
0.257248
0.256289
0.255338
0.254392
0.253453
0.252518
0.251588
0.250662
0.24974
0.24882
0.247904
0.24699
0.246079
0.24517
0.244263
0.243358
0.242454
0.241553
0.240653
0.239755
0.238859
0.237966
0.237075
0.236186
0.2353
0.234417
0.233537
0.232661
0.231788
0.230919
0.230054
0.229193
0.228338
0.227487
0.226641
0.225801
0.224966
0.224137
0.223314
0.222497
0.221686
0.220881
0.220083
0.219291
0.218505
0.217725
0.216952
0.216185
0.215425
0.21467
0.213921
0.213178
0.21244
0.211708
0.210981
0.21026
0.209543
0.208831
0.208124
0.207435
0.275565
0.274384
0.27322
0.272071
0.27094
0.269825
0.268726
0.267644
0.266577
0.265524
0.264486
0.26346
0.262448
0.261446
0.260456
0.259475
0.258504
0.257541
0.256585
0.255636
0.254693
0.253756
0.252824
0.251896
0.250972
0.250051
0.249134
0.248219
0.247306
0.246396
0.245488
0.244582
0.243677
0.242775
0.241874
0.240974
0.240077
0.239181
0.238288
0.237397
0.236508
0.235622
0.234738
0.233858
0.232981
0.232107
0.231237
0.230372
0.229511
0.228654
0.227802
0.226956
0.226114
0.225278
0.224448
0.223624
0.222806
0.221994
0.221188
0.220388
0.219595
0.218808
0.218027
0.217253
0.216485
0.215723
0.214967
0.214217
0.213472
0.212734
0.212
0.211272
0.210549
0.20983
0.209117
0.208408
0.207718
0.275864
0.274692
0.273536
0.272396
0.271272
0.270165
0.269074
0.267999
0.26694
0.265894
0.264862
0.263843
0.262836
0.26184
0.260855
0.259879
0.258912
0.257952
0.257
0.256055
0.255115
0.254181
0.253251
0.252325
0.251403
0.250484
0.249568
0.248655
0.247743
0.246834
0.245927
0.245021
0.244117
0.243214
0.242313
0.241414
0.240516
0.23962
0.238727
0.237835
0.236945
0.236058
0.235174
0.234293
0.233415
0.23254
0.23167
0.230803
0.229941
0.229083
0.22823
0.227382
0.22654
0.225703
0.224872
0.224046
0.223227
0.222414
0.221607
0.220806
0.220012
0.219224
0.218442
0.217667
0.216898
0.216135
0.215378
0.214627
0.213882
0.213142
0.212408
0.211679
0.210955
0.210235
0.209521
0.208811
0.20812
0.276276
0.275115
0.273969
0.27284
0.271727
0.27063
0.269549
0.268483
0.267432
0.266395
0.265371
0.264359
0.263359
0.26237
0.261391
0.26042
0.259458
0.258504
0.257556
0.256614
0.255677
0.254746
0.253819
0.252895
0.251975
0.251058
0.250143
0.249231
0.24832
0.247412
0.246504
0.245599
0.244695
0.243792
0.24289
0.24199
0.241092
0.240195
0.239301
0.238408
0.237517
0.236629
0.235743
0.234861
0.233981
0.233105
0.232233
0.231365
0.230501
0.229642
0.228788
0.227938
0.227094
0.226256
0.225423
0.224596
0.223776
0.222961
0.222153
0.221351
0.220555
0.219766
0.218983
0.218207
0.217437
0.216673
0.215915
0.215163
0.214416
0.213676
0.21294
0.21221
0.211485
0.210765
0.210049
0.209338
0.208646
0.276833
0.275685
0.274553
0.273437
0.272336
0.271252
0.270182
0.269127
0.268087
0.267059
0.266044
0.265041
0.264049
0.263067
0.262094
0.26113
0.260173
0.259224
0.25828
0.257342
0.256409
0.255481
0.254556
0.253634
0.252716
0.2518
0.250886
0.249974
0.249064
0.248156
0.247248
0.246342
0.245437
0.244533
0.243631
0.24273
0.24183
0.240932
0.240035
0.23914
0.238248
0.237358
0.23647
0.235585
0.234704
0.233826
0.232951
0.232081
0.231215
0.230353
0.229497
0.228645
0.227799
0.226959
0.226124
0.225295
0.224473
0.223656
0.222846
0.222042
0.221245
0.220454
0.21967
0.218892
0.21812
0.217354
0.216595
0.215841
0.215093
0.214351
0.213614
0.212882
0.212155
0.211434
0.210717
0.210005
0.209311
0.277582
0.276451
0.275335
0.274234
0.273148
0.272076
0.27102
0.269977
0.268948
0.267932
0.266927
0.265933
0.264949
0.263974
0.263008
0.26205
0.261099
0.260154
0.259214
0.25828
0.25735
0.256423
0.2555
0.25458
0.253662
0.252747
0.251833
0.250921
0.25001
0.249101
0.248192
0.247284
0.246378
0.245472
0.244567
0.243663
0.242761
0.24186
0.240961
0.240063
0.239168
0.238274
0.237383
0.236496
0.235611
0.234729
0.233852
0.232978
0.232109
0.231245
0.230385
0.22953
0.228681
0.227838
0.227
0.226169
0.225343
0.224524
0.223711
0.222905
0.222105
0.221312
0.220525
0.219745
0.218971
0.218203
0.217441
0.216685
0.215935
0.21519
0.214451
0.213717
0.212988
0.212264
0.211545
0.210831
0.210135
0.278595
0.277482
0.276383
0.275299
0.274228
0.273172
0.272129
0.271099
0.270082
0.269076
0.268081
0.267095
0.266119
0.265152
0.264191
0.263238
0.262291
0.261349
0.260413
0.25948
0.258551
0.257626
0.256703
0.255783
0.254864
0.253947
0.253032
0.252118
0.251205
0.250292
0.249381
0.24847
0.247559
0.24665
0.245741
0.244834
0.243927
0.243022
0.242118
0.241216
0.240315
0.239418
0.238522
0.237629
0.23674
0.235854
0.234972
0.234094
0.23322
0.232351
0.231487
0.230628
0.229775
0.228927
0.228085
0.22725
0.22642
0.225597
0.224781
0.223971
0.223168
0.222371
0.221581
0.220797
0.22002
0.219248
0.218483
0.217724
0.216971
0.216223
0.21548
0.214743
0.214011
0.213284
0.212562
0.211844
0.211145
0.279971
0.278878
0.277798
0.27673
0.275675
0.274633
0.273603
0.272585
0.271578
0.270581
0.269593
0.268615
0.267644
0.26668
0.265724
0.264773
0.263827
0.262886
0.261949
0.261016
0.260086
0.259158
0.258232
0.257309
0.256387
0.255466
0.254546
0.253627
0.252708
0.25179
0.250873
0.249956
0.249039
0.248123
0.247208
0.246294
0.24538
0.244468
0.243558
0.242649
0.241741
0.240837
0.239934
0.239035
0.238139
0.237246
0.236357
0.235472
0.234592
0.233717
0.232846
0.231981
0.231122
0.230268
0.229421
0.22858
0.227745
0.226917
0.226095
0.22528
0.224472
0.22367
0.222875
0.222086
0.221304
0.220528
0.219759
0.218995
0.218237
0.217485
0.216738
0.215996
0.215259
0.214528
0.213801
0.213079
0.212376
0.281854
0.28078
0.279717
0.278665
0.277623
0.276592
0.275572
0.274561
0.27356
0.272567
0.271582
0.270605
0.269635
0.268671
0.267712
0.266758
0.265809
0.264863
0.263921
0.262981
0.262044
0.261109
0.260176
0.259244
0.258313
0.257383
0.256454
0.255525
0.254597
0.253669
0.252742
0.251814
0.250888
0.249961
0.249036
0.248111
0.247187
0.246265
0.245343
0.244424
0.243507
0.242592
0.241679
0.24077
0.239864
0.238962
0.238063
0.237169
0.23628
0.235396
0.234516
0.233643
0.232775
0.231914
0.231058
0.230209
0.229367
0.228531
0.227702
0.22688
0.226064
0.225256
0.224454
0.223659
0.22287
0.222088
0.221312
0.220542
0.219777
0.219019
0.218265
0.217517
0.216774
0.216036
0.215303
0.214575
0.213866
0.284447
0.283389
0.282338
0.281294
0.280258
0.27923
0.278211
0.277198
0.276194
0.275196
0.274205
0.273219
0.27224
0.271265
0.270295
0.269328
0.268366
0.267406
0.26645
0.265495
0.264543
0.263592
0.262643
0.261695
0.260748
0.259802
0.258856
0.257911
0.256966
0.256021
0.255077
0.254133
0.25319
0.252248
0.251306
0.250365
0.249425
0.248487
0.24755
0.246616
0.245683
0.244754
0.243827
0.242903
0.241983
0.241067
0.240156
0.239249
0.238347
0.23745
0.236559
0.235673
0.234794
0.233921
0.233055
0.232195
0.231342
0.230496
0.229657
0.228825
0.228
0.227182
0.226371
0.225566
0.224769
0.223977
0.223193
0.222414
0.221641
0.220873
0.220111
0.219355
0.218603
0.217856
0.217114
0.216377
0.215659
0.288026
0.286973
0.285922
0.284874
0.283829
0.282788
0.281752
0.280722
0.279697
0.278677
0.277661
0.276651
0.275645
0.274643
0.273645
0.272651
0.27166
0.270672
0.269687
0.268703
0.267722
0.266743
0.265766
0.264789
0.263814
0.26284
0.261867
0.260895
0.259923
0.258952
0.257982
0.257013
0.256045
0.255077
0.254111
0.253147
0.252184
0.251223
0.250264
0.249307
0.248353
0.247403
0.246455
0.245512
0.244572
0.243638
0.242707
0.241782
0.240863
0.239949
0.239041
0.238139
0.237244
0.236356
0.235475
0.2346
0.233733
0.232873
0.23202
0.231175
0.230337
0.229506
0.228682
0.227865
0.227055
0.226251
0.225454
0.224663
0.223878
0.223099
0.222325
0.221557
0.220793
0.220035
0.219281
0.218532
0.217802
0.292951
0.291887
0.290815
0.289738
0.288659
0.287579
0.2865
0.285423
0.284349
0.283278
0.282211
0.281148
0.280088
0.279033
0.277982
0.276935
0.275892
0.274852
0.273816
0.272783
0.271753
0.270726
0.269701
0.268678
0.267658
0.26664
0.265623
0.264609
0.263596
0.262585
0.261576
0.260568
0.259563
0.258559
0.257558
0.256559
0.255562
0.254568
0.253577
0.25259
0.251606
0.250626
0.24965
0.248679
0.247713
0.246751
0.245796
0.244846
0.243902
0.242965
0.242034
0.24111
0.240194
0.239285
0.238383
0.237488
0.236602
0.235722
0.234851
0.233987
0.233131
0.232283
0.231442
0.230608
0.229781
0.228961
0.228148
0.227341
0.22654
0.225744
0.224955
0.22417
0.223391
0.222616
0.221847
0.221082
0.220336
0.299742
0.298636
0.297509
0.296365
0.295208
0.294044
0.292875
0.291704
0.290534
0.289366
0.288201
0.28704
0.285885
0.284735
0.28359
0.282452
0.281319
0.280192
0.279071
0.277956
0.276846
0.275741
0.274641
0.273546
0.272456
0.271369
0.270287
0.269209
0.268134
0.267064
0.265997
0.264933
0.263874
0.262818
0.261766
0.260717
0.259673
0.258633
0.257598
0.256567
0.255541
0.254521
0.253506
0.252496
0.251493
0.250495
0.249505
0.248521
0.247544
0.246575
0.245613
0.244659
0.243713
0.242775
0.241845
0.240923
0.24001
0.239104
0.238207
0.237319
0.236438
0.235565
0.2347
0.233843
0.232993
0.232151
0.231315
0.230486
0.229663
0.228846
0.228035
0.227229
0.226429
0.225634
0.224843
0.224057
0.223291
0.3092
0.308015
0.306782
0.305511
0.304212
0.302892
0.301554
0.30021
0.298864
0.297521
0.296182
0.29485
0.293527
0.292213
0.290909
0.289616
0.288333
0.287062
0.285802
0.284552
0.283313
0.282084
0.280865
0.279655
0.278454
0.277262
0.276079
0.274903
0.273736
0.272576
0.271423
0.270277
0.269138
0.268006
0.266881
0.265762
0.264651
0.263546
0.262447
0.261356
0.260272
0.259195
0.258125
0.257063
0.256009
0.254962
0.253923
0.252893
0.251871
0.250858
0.249853
0.248857
0.24787
0.246893
0.245924
0.244964
0.244013
0.243072
0.242139
0.241215
0.2403
0.239393
0.238495
0.237605
0.236723
0.235849
0.234982
0.234123
0.23327
0.232424
0.231583
0.230749
0.229921
0.229097
0.228279
0.227465
0.226672
0.322857
0.321486
0.320021
0.318484
0.316895
0.31527
0.313623
0.311965
0.310306
0.308652
0.307008
0.305378
0.303759
0.302158
0.300578
0.299021
0.297486
0.295973
0.294482
0.293013
0.291565
0.290137
0.288728
0.287339
0.285967
0.284612
0.283274
0.281951
0.280643
0.279349
0.278069
0.276802
0.275548
0.274306
0.273075
0.271856
0.270648
0.269451
0.268265
0.267089
0.265923
0.264768
0.263622
0.262487
0.261362
0.260247
0.259143
0.258048
0.256964
0.25589
0.254826
0.253772
0.252729
0.251696
0.250673
0.249661
0.248658
0.247666
0.246683
0.245711
0.244747
0.243794
0.242849
0.241914
0.240987
0.240068
0.239158
0.238256
0.237362
0.236474
0.235594
0.234721
0.233855
0.232994
0.23214
0.231291
0.230463
0.342905
0.341105
0.339147
0.337072
0.334916
0.33271
0.33048
0.328244
0.326018
0.323813
0.321637
0.319495
0.317392
0.315329
0.313308
0.31133
0.309394
0.3075
0.305647
0.303835
0.302062
0.300326
0.298622
0.29695
0.295312
0.293707
0.292134
0.29059
0.289073
0.287584
0.286119
0.284678
0.283259
0.281862
0.280485
0.279127
0.277787
0.276465
0.275159
0.273869
0.272595
0.271335
0.27009
0.268858
0.267641
0.266436
0.265244
0.264066
0.2629
0.261746
0.260604
0.259475
0.258357
0.257251
0.256157
0.255074
0.254003
0.252943
0.251893
0.250855
0.249827
0.24881
0.247803
0.246806
0.245818
0.24484
0.243872
0.242912
0.241961
0.241019
0.240085
0.239159
0.238241
0.237331
0.236427
0.235531
0.234659
0.367747
0.364912
0.361924
0.358842
0.355715
0.35258
0.349464
0.346388
0.343367
0.340409
0.337516
0.334705
0.331968
0.329308
0.326724
0.324214
0.321777
0.319412
0.317115
0.314887
0.312723
0.310622
0.308579
0.306593
0.304661
0.302781
0.300948
0.299162
0.29742
0.295718
0.294055
0.292428
0.290836
0.289276
0.287746
0.286243
0.284766
0.283313
0.281883
0.280475
0.279089
0.277724
0.276378
0.275051
0.273742
0.27245
0.271174
0.269913
0.268668
0.267437
0.266221
0.265018
0.263828
0.262652
0.261488
0.260337
0.259198
0.25807
0.256955
0.25585
0.254757
0.253675
0.252604
0.251543
0.250493
0.249452
0.248422
0.247401
0.246389
0.245387
0.244394
0.24341
0.242435
0.241468
0.240509
0.239576
0.394787
0.39111
0.387296
0.38343
0.379569
0.375723
0.371919
0.368174
0.364502
0.36091
0.357404
0.353986
0.350659
0.347423
0.344279
0.341227
0.338265
0.335393
0.33261
0.329914
0.327304
0.324777
0.322333
0.319967
0.317678
0.315462
0.313317
0.31124
0.309226
0.307273
0.305378
0.303537
0.301748
0.300007
0.298311
0.296657
0.295043
0.293466
0.291922
0.29041
0.288927
0.287473
0.286044
0.284639
0.283257
0.281897
0.280556
0.279235
0.27793
0.276642
0.27537
0.274113
0.272869
0.271639
0.270421
0.269215
0.26802
0.266834
0.265657
0.26449
0.263332
0.262184
0.261046
0.259916
0.258795
0.257682
0.256578
0.255481
0.254391
0.253309
0.252235
0.251168
0.250108
0.249055
0.24801
0.24699
0.398359
0.395105
0.391894
0.388772
0.385761
0.382853
0.380039
0.377303
0.374628
0.371994
0.369386
0.366794
0.364212
0.361638
0.359071
0.356515
0.353972
0.351447
0.348946
0.346475
0.344038
0.341643
0.339294
0.336994
0.334748
0.332559
0.330427
0.328355
0.326342
0.324389
0.322495
0.320658
0.318874
0.317142
0.315459
0.313825
0.312234
0.310676
0.309151
0.307659
0.30621
0.304801
0.303431
0.302093
0.300786
0.299506
0.29825
0.297015
0.295798
0.294596
0.293409
0.292232
0.291066
0.289908
0.288757
0.287611
0.286469
0.285329
0.284191
0.283053
0.281914
0.280772
0.279628
0.27848
0.277326
0.276164
0.274995
0.273818
0.272632
0.271438
0.270236
0.269027
0.267809
0.266585
0.265354
0.26414
0.396781
0.394343
0.391844
0.390044
0.388844
0.388149
0.387877
0.387948
0.388273
0.388732
0.389131
0.389446
0.38965
0.389724
0.389654
0.389436
0.389068
0.388552
0.387897
0.38711
0.386206
0.385198
0.384099
0.382926
0.381691
0.38041
0.379095
0.377757
0.376406
0.375052
0.373702
0.37235
0.370969
0.369576
0.368184
0.366807
0.365452
0.364126
0.362833
0.361575
0.360355
0.359172
0.358028
0.356919
0.355844
0.3548
0.353782
0.352787
0.351809
0.350845
0.349888
0.348933
0.347974
0.347007
0.346025
0.345023
0.343996
0.342938
0.341844
0.34071
0.339531
0.338303
0.337022
0.335687
0.334294
0.332843
0.331333
0.329763
0.328134
0.326448
0.324707
0.322916
0.321079
0.319201
0.317288
0.315375
0.558427
0.577657
0.592061
0.600849
0.608467
0.616358
0.623686
0.630429
0.636563
0.64207
0.64698
0.651382
0.654356
0.656036
0.65657
0.656104
0.654776
0.652712
0.650032
0.646842
0.643264
0.63939
0.635293
0.63103
0.626652
0.622203
0.617718
0.613231
0.608768
0.604357
0.600024
0.595791
0.59168
0.587702
0.583865
0.580177
0.576644
0.573267
0.570047
0.566982
0.564065
0.561292
0.558652
0.556136
0.553731
0.551424
0.549202
0.547049
0.544949
0.542885
0.540842
0.538802
0.536748
0.534664
0.532535
0.530345
0.528081
0.525728
0.523275
0.520712
0.518028
0.515216
0.512271
0.509188
0.505963
0.502596
0.499089
0.495442
0.49166
0.487749
0.483717
0.479573
0.475326
0.47099
0.466577
0.462169
1.35448
1.47684
1.58703
1.67997
1.75218
1.80485
1.84027
1.86202
1.87301
1.87559
1.87183
1.86261
1.84892
1.83172
1.81184
1.78989
1.76632
1.74149
1.71572
1.68897
1.66085
1.63143
1.60097
1.56982
1.5383
1.50677
1.47566
1.44525
1.41572
1.38722
1.35983
1.33365
1.30873
1.28508
1.2627
1.24155
1.2216
1.20281
1.18511
1.16844
1.15275
1.13797
1.12403
1.11086
1.09839
1.08656
1.07529
1.06453
1.0542
1.04424
1.03459
1.02519
1.01597
1.00689
0.997892
0.98893
0.97996
0.970942
0.961841
0.952629
0.94328
0.933774
0.924097
0.914237
0.904188
0.893947
0.883515
0.872898
0.862104
0.851145
0.840038
0.828803
0.817468
0.806077
0.794803
3.26641
2.50488
1.971
1.77586
1.68968
1.66097
1.6712
1.66594
1.66698
1.67288
1.67939
1.69711
1.72654
1.7674
1.81872
1.8798
1.95013
2.02999
2.11984
2.20776
2.25351
2.2744
2.28028
2.27705
2.26818
2.2549
2.2363
2.21395
2.1896
2.16398
2.13758
2.11054
2.08288
2.05483
2.02661
1.99847
1.97065
1.94336
1.91675
1.89092
1.86594
1.84183
1.81861
1.79625
1.77472
1.75399
1.73399
1.71466
1.69593
1.67772
1.65995
1.64254
1.62541
1.60848
1.59168
1.57494
1.5582
1.54141
1.52453
1.50753
1.49038
1.47307
1.45558
1.43793
1.4201
1.4021
1.38394
1.36562
1.34715
1.32856
1.30985
1.29105
1.27222
1.25345
1.23505
1.56343
1.45887
1.41005
1.39202
1.3905
1.3828
1.3771
1.3673
1.34765
1.33053
1.3183
1.3101
1.30585
1.30537
1.30748
1.31128
1.31594
1.32167
1.3294
1.33919
1.34889
1.35837
1.36909
1.38657
1.41637
1.46003
1.51978
1.58613
1.65236
1.71882
1.78524
1.85074
1.90048
1.93793
1.96574
1.98592
1.99912
2.00575
2.00744
2.00544
2.00075
1.99406
1.98589
1.97662
1.96654
1.95582
1.94463
1.93303
1.92109
1.90881
1.89615
1.88311
1.86966
1.85579
1.84151
1.82681
1.81172
1.79626
1.78046
1.76437
1.74801
1.73146
1.71474
1.69788
1.68092
1.66385
1.64667
1.62937
1.61196
1.59441
1.57673
1.55893
1.54104
1.52318
1.50568
1.1598
1.19388
1.22244
1.24636
1.25885
1.25369
1.24089
1.229
1.21893
1.20941
1.20056
1.19277
1.18689
1.18427
1.18382
1.18365
1.18025
1.17402
1.16899
1.16678
1.16747
1.1707
1.17557
1.18183
1.18928
1.19821
1.20919
1.22148
1.23434
1.2476
1.26101
1.27455
1.28748
1.29933
1.31009
1.31992
1.32997
1.34088
1.35136
1.36271
1.37688
1.39312
1.41077
1.42923
1.44799
1.46661
1.48469
1.50194
1.51805
1.53202
1.54192
1.54904
1.55362
1.55588
1.55628
1.55522
1.55299
1.54976
1.54571
1.54104
1.53592
1.53051
1.52488
1.51907
1.51309
1.5069
1.50047
1.49378
1.4868
1.4795
1.47189
1.46397
1.45575
1.44739
1.43887
1.2042
1.26523
1.29666
1.3142
1.32603
1.32664
1.32003
1.31292
1.30537
1.29713
1.28827
1.27913
1.26997
1.26092
1.25204
1.24282
1.23249
1.22167
1.21108
1.20147
1.19328
1.1866
1.18136
1.17754
1.17561
1.17535
1.17647
1.17892
1.18235
1.18634
1.18945
1.18948
1.18785
1.18548
1.18416
1.18493
1.18651
1.18847
1.19065
1.19292
1.19531
1.19785
1.20049
1.2032
1.2059
1.20856
1.21111
1.2135
1.21567
1.21757
1.21907
1.22017
1.22091
1.22132
1.22134
1.22099
1.22031
1.21934
1.21817
1.21682
1.21538
1.21387
1.21234
1.21083
1.20934
1.20786
1.20636
1.20484
1.20326
1.2016
1.19986
1.19803
1.19611
1.19414
1.19299
1.24536
1.29086
1.35491
1.40614
1.42958
1.43032
1.42477
1.41901
1.41298
1.40552
1.39686
1.38759
1.37812
1.36872
1.35958
1.35068
1.34122
1.33114
1.32144
1.31258
1.30476
1.29807
1.29249
1.28773
1.28364
1.2801
1.27702
1.27424
1.27166
1.26918
1.26634
1.26272
1.25833
1.25345
1.24847
1.24394
1.23989
1.23622
1.23281
1.22958
1.22648
1.22346
1.2205
1.21755
1.21462
1.21167
1.2087
1.2057
1.20255
1.1992
1.19571
1.19202
1.18764
1.18294
1.17798
1.17289
1.16776
1.16264
1.15758
1.1526
1.14773
1.143
1.13842
1.13409
1.13011
1.12632
1.12268
1.11917
1.11576
1.11244
1.1092
1.10604
1.10296
1.09984
1.09714
1.20769
1.30592
1.52456
1.65555
1.64096
1.64436
1.6481
1.65319
1.65941
1.65806
1.64078
1.61957
1.59864
1.5794
1.56241
1.54761
1.53465
1.52305
1.51261
1.50326
1.49493
1.48751
1.48082
1.47467
1.4689
1.46345
1.45827
1.45324
1.44786
1.44227
1.43665
1.43102
1.42532
1.41953
1.41365
1.40767
1.40156
1.39532
1.38897
1.38251
1.37597
1.36936
1.3627
1.35597
1.34918
1.34234
1.33546
1.32857
1.3217
1.31481
1.30791
1.30098
1.29401
1.28699
1.27992
1.2728
1.26564
1.25844
1.25124
1.24406
1.2369
1.2298
1.22277
1.21582
1.20896
1.2022
1.19551
1.1889
1.18233
1.17579
1.16928
1.16278
1.15629
1.14981
1.14339
1.13653
1.58089
1.69354
1.7974
1.88283
1.94991
1.99954
2.03341
2.05303
2.06234
2.06344
2.05796
2.04759
2.03386
2.01771
2.00013
1.98146
1.96243
1.9437
1.92421
1.90418
1.88383
1.86326
1.84256
1.8218
1.80103
1.78035
1.75986
1.73966
1.71992
1.70071
1.68206
1.664
1.64658
1.62983
1.61377
1.59836
1.58341
1.569
1.5552
1.54202
1.52944
1.51742
1.50589
1.49479
1.48405
1.47361
1.46342
1.45344
1.44362
1.43393
1.42432
1.41476
1.40522
1.39566
1.38609
1.37649
1.36688
1.35726
1.34767
1.33813
1.32866
1.3193
1.31007
1.30098
1.29207
1.28334
1.27481
1.26647
1.25835
1.25042
1.2427
1.23519
1.22788
1.22078
1.2139
1.20687
0.878651
0.930305
0.98217
1.03467
1.0878
1.1411
1.1939
1.24539
1.29473
1.34111
1.38382
1.42241
1.45663
1.48613
1.51073
1.5308
1.54681
1.55923
1.56928
1.57734
1.5837
1.58866
1.59247
1.59536
1.59754
1.59915
1.60033
1.60105
1.60032
1.59831
1.59518
1.59104
1.58601
1.5802
1.57372
1.56666
1.55913
1.55122
1.54301
1.53458
1.52601
1.51738
1.50873
1.5001
1.49154
1.48307
1.47472
1.46645
1.45826
1.45013
1.44203
1.43389
1.42564
1.41723
1.40865
1.39983
1.39081
1.38168
1.3725
1.36334
1.35423
1.34522
1.33633
1.32759
1.31902
1.31063
1.30244
1.29446
1.2867
1.27916
1.27187
1.26483
1.25806
1.25157
1.24541
1.23931
0.564918
0.577154
0.590118
0.603813
0.618379
0.634116
0.651187
0.66963
0.689398
0.710455
0.732521
0.755038
0.777755
0.800381
0.822606
0.844148
0.86476
0.884264
0.902577
0.919617
0.935379
0.949894
0.963225
0.975457
0.986687
0.997009
1.00651
1.01535
1.02444
1.03375
1.04328
1.05303
1.06297
1.0731
1.08338
1.09371
1.10352
1.11278
1.12152
1.12974
1.13744
1.14464
1.15134
1.15756
1.1633
1.16859
1.17344
1.17788
1.18191
1.18553
1.18877
1.19161
1.19407
1.19613
1.19781
1.19912
1.20007
1.20067
1.20096
1.20097
1.20071
1.20021
1.19948
1.19853
1.1974
1.19611
1.19467
1.19311
1.19144
1.18966
1.18779
1.1858
1.18366
1.18137
1.17909
1.17665
0.457581
0.460042
0.462259
0.464834
0.467905
0.471578
0.47584
0.480803
0.48647
0.492865
0.499886
0.507479
0.515576
0.524092
0.53293
0.541984
0.551151
0.560324
0.569406
0.578307
0.586962
0.595312
0.603309
0.61092
0.618127
0.62493
0.631349
0.637455
0.643286
0.648869
0.654179
0.659276
0.664211
0.669029
0.673841
0.679139
0.684948
0.69126
0.69806
0.705337
0.713045
0.720969
0.729098
0.737433
0.745971
0.754699
0.763596
0.772634
0.781787
0.791027
0.800341
0.809692
0.819039
0.82834
0.837555
0.846647
0.85558
0.864324
0.872854
0.881146
0.889183
0.896949
0.904433
0.911626
0.918521
0.925119
0.931422
0.937439
0.943182
0.948666
0.953906
0.958924
0.963742
0.968398
0.972705
0.410362
0.410784
0.411032
0.411206
0.411385
0.411628
0.411981
0.412479
0.413151
0.414021
0.415101
0.4164
0.417918
0.41965
0.421586
0.423711
0.426005
0.428447
0.43101
0.433669
0.436397
0.439167
0.441956
0.444738
0.447494
0.450207
0.452859
0.455432
0.457916
0.460303
0.462584
0.464763
0.466848
0.468871
0.470857
0.472847
0.474882
0.477
0.479235
0.481622
0.484218
0.487234
0.490685
0.494566
0.498873
0.503568
0.508597
0.513966
0.519671
0.525686
0.531921
0.538358
0.544993
0.551819
0.558824
0.565996
0.573319
0.580774
0.588342
0.596003
0.603736
0.611519
0.619334
0.627158
0.634974
0.642765
0.650516
0.658216
0.665855
0.673429
0.680937
0.688386
0.695791
0.703136
0.710261
0.391077
0.390925
0.390618
0.390201
0.389712
0.389184
0.388642
0.388104
0.387587
0.3871
0.386654
0.386254
0.385904
0.385607
0.385363
0.385172
0.385033
0.384944
0.384902
0.384902
0.384941
0.385011
0.38511
0.385232
0.385374
0.385534
0.385706
0.38589
0.386082
0.386281
0.386486
0.386698
0.386925
0.387166
0.387428
0.387717
0.388042
0.388413
0.388842
0.389337
0.3899
0.390559
0.391333
0.392235
0.39328
0.394511
0.395991
0.397721
0.399702
0.401912
0.404327
0.406947
0.409776
0.412812
0.416052
0.419493
0.42313
0.426958
0.430969
0.435157
0.439512
0.444026
0.448688
0.45349
0.458421
0.463472
0.468636
0.473903
0.479268
0.484726
0.490268
0.495866
0.50145
0.507027
0.512489
0.382812
0.382604
0.382249
0.381777
0.381215
0.380587
0.379911
0.3792
0.378465
0.377715
0.376954
0.376186
0.375412
0.374634
0.373852
0.373065
0.372271
0.371471
0.370663
0.369846
0.369021
0.368184
0.367334
0.366472
0.365599
0.364714
0.36382
0.362919
0.362013
0.361104
0.360196
0.359292
0.358397
0.357515
0.356651
0.355811
0.355001
0.354227
0.353496
0.352814
0.352191
0.351628
0.35113
0.350704
0.350354
0.350089
0.349917
0.349848
0.349898
0.350086
0.350431
0.350934
0.351589
0.352391
0.353341
0.354438
0.355678
0.357051
0.358542
0.360143
0.361851
0.363663
0.365576
0.367589
0.369697
0.371902
0.374199
0.37659
0.379071
0.381645
0.384309
0.387058
0.389876
0.392751
0.395613
0.378439
0.378378
0.378171
0.377843
0.377417
0.376913
0.376346
0.375729
0.375072
0.37438
0.37366
0.372914
0.372143
0.371347
0.370525
0.369676
0.368798
0.367889
0.366947
0.365971
0.36496
0.363911
0.362824
0.361699
0.360535
0.359331
0.358088
0.356809
0.355495
0.354152
0.352782
0.351389
0.349979
0.348556
0.347126
0.345694
0.344268
0.342852
0.341453
0.340078
0.338732
0.337422
0.336153
0.33493
0.333759
0.332644
0.331592
0.330607
0.329688
0.328839
0.328062
0.327362
0.326749
0.326234
0.325817
0.325494
0.325266
0.325132
0.325089
0.325135
0.325268
0.325484
0.325781
0.326156
0.326606
0.327131
0.327727
0.328393
0.329129
0.329932
0.330802
0.331736
0.33273
0.333774
0.334831
0.375593
0.375665
0.375594
0.375402
0.375111
0.374736
0.374293
0.373793
0.373246
0.372657
0.372032
0.371373
0.370682
0.369958
0.369202
0.36841
0.367582
0.366714
0.365805
0.364851
0.363851
0.362803
0.361704
0.360553
0.35935
0.358093
0.356784
0.355421
0.354007
0.352544
0.351031
0.349473
0.347874
0.346239
0.344574
0.342883
0.341174
0.339451
0.337723
0.335996
0.334276
0.332571
0.330885
0.329226
0.327598
0.326006
0.324455
0.322949
0.321492
0.320086
0.318734
0.31744
0.316205
0.315028
0.31391
0.312856
0.311868
0.310945
0.310086
0.309292
0.308559
0.307888
0.307276
0.306722
0.306224
0.305779
0.305386
0.305044
0.30475
0.304504
0.304303
0.304146
0.304027
0.303942
0.303874
0.373933
0.374022
0.373974
0.373809
0.373547
0.373202
0.37279
0.37232
0.371802
0.371241
0.370643
0.370011
0.369344
0.368645
0.367911
0.367141
0.366334
0.365485
0.364594
0.363656
0.362669
0.361631
0.360539
0.359392
0.358187
0.356924
0.355602
0.354221
0.352783
0.351288
0.349738
0.348135
0.346481
0.344782
0.343041
0.341266
0.339461
0.337634
0.335792
0.33394
0.332086
0.330235
0.328395
0.32657
0.324767
0.32299
0.321246
0.319537
0.317867
0.31624
0.314657
0.313122
0.311634
0.310195
0.308806
0.307465
0.306172
0.304931
0.303741
0.302603
0.301514
0.300474
0.299481
0.298532
0.297627
0.296762
0.295937
0.29515
0.294399
0.293684
0.293003
0.292354
0.291731
0.291146
0.290536
0.373278
0.373329
0.373247
0.373052
0.37276
0.372389
0.371949
0.371452
0.370906
0.370316
0.369688
0.369023
0.368323
0.367587
0.366816
0.366007
0.365159
0.364269
0.363334
0.362353
0.361322
0.36024
0.359104
0.357913
0.356666
0.355362
0.354001
0.352584
0.351111
0.349586
0.348008
0.346381
0.344708
0.342993
0.341243
0.339463
0.337659
0.335839
0.334008
0.332173
0.330341
0.328519
0.326711
0.324925
0.323165
0.321437
0.319745
0.318093
0.316484
0.314922
0.313409
0.311946
0.310535
0.309176
0.307866
0.306606
0.305398
0.304242
0.30314
0.302089
0.301088
0.300136
0.299231
0.29837
0.297551
0.296772
0.296031
0.295326
0.294656
0.29402
0.293416
0.292841
0.292291
0.291775
0.291235
0.373461
0.37342
0.373251
0.372971
0.372597
0.372145
0.371626
0.37105
0.370424
0.369754
0.369043
0.368295
0.367509
0.366686
0.365825
0.364926
0.363986
0.363004
0.361979
0.360908
0.35979
0.358625
0.357411
0.356149
0.354837
0.353477
0.35207
0.350617
0.349119
0.347579
0.346001
0.344389
0.34275
0.341087
0.339408
0.337719
0.336025
0.334334
0.332652
0.330987
0.329344
0.327731
0.326152
0.324614
0.323121
0.321677
0.320287
0.318956
0.317688
0.316481
0.315337
0.314257
0.313244
0.312301
0.311429
0.310628
0.309897
0.309234
0.308638
0.308107
0.307637
0.307226
0.30687
0.306567
0.306313
0.306105
0.305941
0.305818
0.305735
0.305689
0.305677
0.305697
0.305743
0.305811
0.305886
0.374635
0.374393
0.37403
0.373565
0.373015
0.372393
0.371711
0.370978
0.370201
0.369385
0.368533
0.367648
0.36673
0.365781
0.364799
0.363784
0.362736
0.361654
0.360536
0.359383
0.358195
0.356971
0.355712
0.354418
0.353089
0.351729
0.350341
0.348928
0.347496
0.34605
0.344594
0.343136
0.341681
0.340236
0.338807
0.337401
0.336025
0.334683
0.333382
0.332129
0.330928
0.329788
0.328715
0.32771
0.326775
0.325915
0.325133
0.324438
0.323836
0.323332
0.32293
0.322631
0.322434
0.322337
0.322339
0.322437
0.322625
0.3229
0.323256
0.323688
0.324193
0.324764
0.3254
0.326094
0.326846
0.32765
0.328505
0.329408
0.330354
0.331338
0.332353
0.333388
0.334437
0.3355
0.336552
0.376925
0.376495
0.375955
0.375323
0.374616
0.373849
0.373032
0.372176
0.371286
0.370368
0.369426
0.368462
0.367478
0.366474
0.365451
0.364409
0.363348
0.362268
0.361169
0.360052
0.358916
0.357763
0.356598
0.355423
0.354243
0.353062
0.351885
0.350717
0.349564
0.348432
0.347328
0.346257
0.345226
0.344242
0.343315
0.342451
0.341651
0.340922
0.340271
0.339704
0.339228
0.338852
0.338582
0.338436
0.338433
0.338578
0.338873
0.339317
0.339912
0.340659
0.341558
0.342606
0.343798
0.345129
0.34659
0.34817
0.349854
0.351628
0.353475
0.355381
0.357346
0.359372
0.361456
0.3636
0.365797
0.368044
0.370334
0.372666
0.375037
0.377447
0.379898
0.38239
0.384923
0.387488
0.390032
0.382361
0.381911
0.381353
0.380713
0.380011
0.379266
0.378489
0.377691
0.376879
0.376059
0.375234
0.374407
0.373579
0.37275
0.371922
0.371094
0.370268
0.369444
0.368622
0.367805
0.366995
0.366197
0.365414
0.364649
0.363911
0.363205
0.362534
0.361905
0.361324
0.360798
0.360335