/*--------------------------------*- C++ -*----------------------------------*\
  =========                 |
  \\      /  F ield         | OpenFOAM: The Open Source CFD Toolbox
   \\    /   O peration     | Website:  https://openfoam.org
    \\  /    A nd           | Version:  13
     \\/     M anipulation  |
\*---------------------------------------------------------------------------*/
FoamFile
{
    format      ascii;
    class       volScalarField;
    location    "200";
    object      nut;
}
// * * * * * * * * * * * * * * * * * * * * * * * * * * * * * * * * * * * * * //

dimensions      [0 2 -1 0 0 0 0];

internalField   nonuniform List<scalar> 
173327
(
0.018411
0.0183984
0.0183861
0.0183741
0.0183624
0.0183509
0.0183398
0.018329
0.0183185
0.0183082
0.0182982
0.0182884
0.0182788
0.0182695
0.0182603
0.0182513
0.0182424
0.0182336
0.0182249
0.0182163
0.0182077
0.0181992
0.0181906
0.0181821
0.0181735
0.0181649
0.0181563
0.0181476
0.0181388
0.01813
0.018121
0.0181121
0.018103
0.0180938
0.0180846
0.0180752
0.0180658
0.0180563
0.0180468
0.0180371
0.0180275
0.0180177
0.018008
0.0179982
0.0179884
0.0179785
0.0179687
0.0179588
0.017949
0.0179392
0.0179295
0.0179197
0.01791
0.0179004
0.0178908
0.0178813
0.0178719
0.0178626
0.0178533
0.0178441
0.017835
0.0178259
0.017817
0.0178081
0.0177993
0.0177905
0.0177818
0.0177732
0.0177646
0.0177561
0.0177476
0.0177392
0.0177308
0.0177224
0.017714
0.0177057
0.0176979
0.0184131
0.0184006
0.0183884
0.0183764
0.0183648
0.0183534
0.0183424
0.0183316
0.0183211
0.0183109
0.018301
0.0182913
0.0182818
0.0182725
0.0182634
0.0182545
0.0182456
0.0182369
0.0182283
0.0182197
0.0182112
0.0182027
0.0181943
0.0181858
0.0181773
0.0181687
0.0181601
0.0181515
0.0181428
0.018134
0.0181252
0.0181163
0.0181072
0.0180981
0.018089
0.0180797
0.0180703
0.0180609
0.0180514
0.0180419
0.0180323
0.0180226
0.0180129
0.0180031
0.0179934
0.0179836
0.0179738
0.017964
0.0179542
0.0179444
0.0179347
0.017925
0.0179153
0.0179057
0.0178961
0.0178866
0.0178772
0.0178678
0.0178585
0.0178493
0.0178402
0.0178311
0.0178221
0.0178132
0.0178043
0.0177955
0.0177868
0.0177781
0.0177695
0.017761
0.0177524
0.017744
0.0177355
0.0177271
0.0177187
0.0177104
0.0177026
0.0184174
0.0184051
0.018393
0.0183812
0.0183697
0.0183585
0.0183475
0.0183369
0.0183266
0.0183165
0.0183067
0.0182971
0.0182878
0.0182786
0.0182697
0.0182608
0.0182521
0.0182435
0.018235
0.0182266
0.0182182
0.0182098
0.0182014
0.0181931
0.0181847
0.0181762
0.0181677
0.0181592
0.0181506
0.0181419
0.0181331
0.0181243
0.0181153
0.0181063
0.0180972
0.018088
0.0180787
0.0180693
0.0180599
0.0180504
0.0180408
0.0180312
0.0180215
0.0180118
0.0180021
0.0179923
0.0179825
0.0179727
0.017963
0.0179532
0.0179435
0.0179338
0.0179241
0.0179145
0.0179049
0.0178954
0.0178859
0.0178766
0.0178673
0.017858
0.0178488
0.0178397
0.0178307
0.0178217
0.0178128
0.017804
0.0177953
0.0177865
0.0177779
0.0177693
0.0177607
0.0177522
0.0177437
0.0177353
0.0177268
0.0177184
0.0177106
0.0184243
0.0184122
0.0184003
0.0183887
0.0183774
0.0183664
0.0183557
0.0183453
0.0183352
0.0183253
0.0183157
0.0183063
0.0182971
0.0182881
0.0182793
0.0182707
0.0182621
0.0182537
0.0182453
0.018237
0.0182287
0.0182205
0.0182123
0.018204
0.0181957
0.0181874
0.018179
0.0181706
0.0181621
0.0181535
0.0181448
0.018136
0.0181272
0.0181182
0.0181092
0.0181
0.0180908
0.0180815
0.0180721
0.0180627
0.0180532
0.0180436
0.018034
0.0180243
0.0180146
0.0180049
0.0179951
0.0179854
0.0179756
0.0179659
0.0179562
0.0179465
0.0179369
0.0179273
0.0179177
0.0179082
0.0178988
0.0178894
0.0178801
0.0178709
0.0178617
0.0178527
0.0178436
0.0178347
0.0178258
0.017817
0.0178082
0.0177995
0.0177909
0.0177823
0.0177737
0.0177652
0.0177567
0.0177483
0.0177398
0.0177314
0.0177236
0.0184342
0.0184224
0.0184108
0.0183995
0.0183885
0.0183778
0.0183673
0.0183572
0.0183473
0.0183377
0.0183284
0.0183192
0.0183103
0.0183016
0.018293
0.0182845
0.0182762
0.0182679
0.0182598
0.0182516
0.0182435
0.0182354
0.0182274
0.0182192
0.0182111
0.0182029
0.0181947
0.0181863
0.0181779
0.0181694
0.0181609
0.0181522
0.0181434
0.0181346
0.0181256
0.0181166
0.0181074
0.0180982
0.0180889
0.0180795
0.01807
0.0180605
0.0180509
0.0180413
0.0180317
0.018022
0.0180123
0.0180026
0.0179929
0.0179832
0.0179735
0.0179639
0.0179543
0.0179447
0.0179352
0.0179258
0.0179164
0.017907
0.0178978
0.0178886
0.0178795
0.0178704
0.0178614
0.0178525
0.0178437
0.0178349
0.0178262
0.0178176
0.017809
0.0178004
0.0177919
0.0177834
0.0177749
0.0177665
0.0177581
0.0177497
0.017742
0.0184478
0.0184363
0.0184251
0.0184142
0.0184036
0.0183932
0.0183832
0.0183734
0.0183639
0.0183546
0.0183456
0.0183367
0.0183281
0.0183196
0.0183113
0.0183031
0.018295
0.018287
0.0182791
0.0182711
0.0182633
0.0182554
0.0182474
0.0182395
0.0182315
0.0182235
0.0182154
0.0182072
0.0181989
0.0181905
0.0181821
0.0181735
0.0181648
0.0181561
0.0181472
0.0181382
0.0181292
0.01812
0.0181108
0.0181014
0.0180921
0.0180826
0.0180731
0.0180635
0.0180539
0.0180443
0.0180347
0.018025
0.0180154
0.0180057
0.0179961
0.0179865
0.017977
0.0179675
0.017958
0.0179486
0.0179393
0.01793
0.0179208
0.0179117
0.0179026
0.0178936
0.0178847
0.0178759
0.0178671
0.0178584
0.0178497
0.0178411
0.0178326
0.017824
0.0178156
0.0178072
0.0177988
0.0177904
0.017782
0.0177737
0.017766
0.0184661
0.0184551
0.0184444
0.0184339
0.0184238
0.0184139
0.0184042
0.0183949
0.0183858
0.0183769
0.0183683
0.0183598
0.0183515
0.0183434
0.0183354
0.0183275
0.0183197
0.0183119
0.0183042
0.0182966
0.0182889
0.0182812
0.0182735
0.0182658
0.0182579
0.0182501
0.0182421
0.0182341
0.0182259
0.0182177
0.0182093
0.0182009
0.0181923
0.0181837
0.0181749
0.018166
0.018157
0.0181479
0.0181388
0.0181295
0.0181202
0.0181108
0.0181013
0.0180918
0.0180823
0.0180727
0.0180632
0.0180536
0.018044
0.0180344
0.0180248
0.0180153
0.0180058
0.0179964
0.017987
0.0179776
0.0179684
0.0179591
0.01795
0.0179409
0.0179319
0.017923
0.0179142
0.0179054
0.0178967
0.017888
0.0178794
0.0178709
0.0178624
0.017854
0.0178456
0.0178372
0.0178288
0.0178205
0.0178122
0.017804
0.0177963
0.0184906
0.0184803
0.0184701
0.0184602
0.0184506
0.0184412
0.0184321
0.0184232
0.0184146
0.0184062
0.018398
0.0183899
0.0183821
0.0183743
0.0183666
0.0183591
0.0183516
0.0183441
0.0183367
0.0183293
0.0183219
0.0183144
0.0183069
0.0182993
0.0182917
0.018284
0.0182762
0.0182683
0.0182603
0.0182522
0.0182439
0.0182356
0.0182271
0.0182186
0.0182099
0.0182011
0.0181922
0.0181831
0.018174
0.0181649
0.0181556
0.0181463
0.0181369
0.0181274
0.0181179
0.0181084
0.0180989
0.0180893
0.0180798
0.0180703
0.0180608
0.0180513
0.0180419
0.0180325
0.0180231
0.0180139
0.0180046
0.0179955
0.0179864
0.0179774
0.0179685
0.0179596
0.0179508
0.0179421
0.0179335
0.0179249
0.0179164
0.0179079
0.0178995
0.0178911
0.0178827
0.0178744
0.0178661
0.0178579
0.0178497
0.0178415
0.0178338
0.0185238
0.0185141
0.0185046
0.0184954
0.0184863
0.0184776
0.018469
0.0184607
0.0184526
0.0184447
0.0184369
0.0184293
0.0184218
0.0184145
0.0184072
0.0184
0.0183928
0.0183856
0.0183785
0.0183713
0.0183641
0.0183568
0.0183495
0.0183421
0.0183347
0.0183271
0.0183194
0.0183117
0.0183038
0.0182957
0.0182876
0.0182793
0.018271
0.0182624
0.0182538
0.0182451
0.0182362
0.0182272
0.0182182
0.018209
0.0181998
0.0181905
0.0181812
0.0181717
0.0181623
0.0181528
0.0181433
0.0181338
0.0181243
0.0181148
0.0181054
0.0180959
0.0180866
0.0180772
0.0180679
0.0180587
0.0180495
0.0180404
0.0180314
0.0180225
0.0180136
0.0180048
0.0179961
0.0179874
0.0179788
0.0179703
0.0179618
0.0179534
0.017945
0.0179367
0.0179284
0.0179202
0.0179119
0.0179037
0.0178955
0.0178874
0.0178798
0.0185688
0.0185599
0.0185512
0.0185426
0.0185343
0.0185261
0.0185182
0.0185104
0.0185028
0.0184954
0.0184881
0.0184809
0.0184738
0.0184668
0.0184598
0.0184529
0.018446
0.0184391
0.0184321
0.0184252
0.0184181
0.018411
0.0184039
0.0183966
0.0183892
0.0183818
0.0183742
0.0183665
0.0183586
0.0183507
0.0183426
0.0183343
0.018326
0.0183175
0.0183089
0.0183001
0.0182913
0.0182823
0.0182733
0.0182641
0.0182549
0.0182456
0.0182362
0.0182268
0.0182174
0.0182079
0.0181984
0.0181889
0.0181794
0.0181699
0.0181605
0.0181511
0.0181417
0.0181324
0.0181231
0.0181139
0.0181048
0.0180957
0.0180868
0.0180778
0.018069
0.0180603
0.0180516
0.018043
0.0180344
0.0180259
0.0180175
0.0180091
0.0180008
0.0179925
0.0179842
0.017976
0.0179678
0.0179596
0.0179514
0.0179433
0.0179357
0.0186304
0.0186223
0.0186143
0.0186065
0.0185988
0.0185912
0.0185838
0.0185766
0.0185694
0.0185624
0.0185554
0.0185486
0.0185418
0.018535
0.0185282
0.0185215
0.0185147
0.0185079
0.0185011
0.0184942
0.0184872
0.0184802
0.0184731
0.0184658
0.0184584
0.018451
0.0184433
0.0184356
0.0184277
0.0184197
0.0184115
0.0184033
0.0183948
0.0183863
0.0183776
0.0183688
0.0183598
0.0183508
0.0183417
0.0183325
0.0183232
0.0183138
0.0183044
0.0182949
0.0182854
0.0182759
0.0182663
0.0182568
0.0182473
0.0182378
0.0182283
0.0182189
0.0182095
0.0182001
0.0181909
0.0181817
0.0181725
0.0181635
0.0181545
0.0181456
0.0181368
0.018128
0.0181193
0.0181107
0.0181022
0.0180937
0.0180853
0.0180769
0.0180686
0.0180603
0.018052
0.0180438
0.0180356
0.0180274
0.0180192
0.0180111
0.0180035
0.0187141
0.0187069
0.0186996
0.0186924
0.0186852
0.0186781
0.0186711
0.0186641
0.0186572
0.0186504
0.0186436
0.0186368
0.0186301
0.0186233
0.0186166
0.0186098
0.018603
0.0185961
0.0185892
0.0185821
0.018575
0.0185678
0.0185605
0.0185531
0.0185456
0.0185379
0.0185301
0.0185222
0.0185141
0.0185059
0.0184975
0.018489
0.0184804
0.0184716
0.0184627
0.0184537
0.0184446
0.0184354
0.0184261
0.0184167
0.0184072
0.0183977
0.0183881
0.0183785
0.0183689
0.0183592
0.0183495
0.0183399
0.0183303
0.0183206
0.0183111
0.0183016
0.0182921
0.0182827
0.0182733
0.0182641
0.0182549
0.0182458
0.0182368
0.0182278
0.0182189
0.0182102
0.0182015
0.0181928
0.0181842
0.0181757
0.0181673
0.0181589
0.0181505
0.0181421
0.0181338
0.0181255
0.0181173
0.018109
0.0181008
0.0180926
0.0180849
0.0188261
0.0188194
0.0188127
0.0188058
0.0187988
0.0187918
0.0187848
0.0187778
0.0187708
0.0187638
0.0187568
0.0187498
0.0187427
0.0187356
0.0187285
0.0187214
0.0187141
0.0187069
0.0186995
0.0186921
0.0186845
0.0186769
0.0186692
0.0186613
0.0186533
0.0186452
0.018637
0.0186286
0.0186201
0.0186115
0.0186027
0.0185939
0.0185848
0.0185757
0.0185664
0.0185571
0.0185476
0.0185381
0.0185285
0.0185188
0.018509
0.0184992
0.0184893
0.0184795
0.0184696
0.0184597
0.0184498
0.0184399
0.0184301
0.0184203
0.0184106
0.0184009
0.0183912
0.0183817
0.0183722
0.0183628
0.0183535
0.0183443
0.0183352
0.0183261
0.0183171
0.0183083
0.0182994
0.0182907
0.018282
0.0182734
0.0182649
0.0182564
0.0182479
0.0182394
0.018231
0.0182226
0.0182142
0.0182059
0.0181975
0.0181891
0.0181814
0.0189685
0.0189623
0.0189556
0.0189487
0.0189415
0.0189342
0.0189267
0.0189192
0.0189115
0.0189038
0.018896
0.0188882
0.0188804
0.0188725
0.0188645
0.0188566
0.0188485
0.0188404
0.0188322
0.018824
0.0188157
0.0188073
0.0187988
0.0187902
0.0187815
0.0187726
0.0187637
0.0187547
0.0187455
0.0187363
0.0187269
0.0187174
0.0187078
0.0186981
0.0186883
0.0186785
0.0186685
0.0186585
0.0186484
0.0186382
0.018628
0.0186178
0.0186076
0.0185973
0.0185871
0.0185769
0.0185667
0.0185565
0.0185464
0.0185363
0.0185263
0.0185164
0.0185065
0.0184967
0.0184871
0.0184775
0.018468
0.0184585
0.0184492
0.01844
0.0184309
0.0184218
0.0184128
0.0184039
0.0183951
0.0183863
0.0183776
0.018369
0.0183603
0.0183517
0.0183431
0.0183346
0.018326
0.0183174
0.0183089
0.0183003
0.0182924
0.0191318
0.0191257
0.0191188
0.0191114
0.0191035
0.0190952
0.0190867
0.019078
0.0190692
0.0190602
0.0190512
0.0190421
0.019033
0.0190239
0.0190147
0.0190055
0.0189963
0.018987
0.0189777
0.0189684
0.018959
0.0189496
0.0189401
0.0189306
0.018921
0.0189113
0.0189015
0.0188917
0.0188818
0.0188718
0.0188617
0.0188516
0.0188413
0.018831
0.0188206
0.0188102
0.0187997
0.0187891
0.0187785
0.0187679
0.0187573
0.0187466
0.018736
0.0187253
0.0187147
0.0187041
0.0186936
0.0186831
0.0186726
0.0186622
0.018652
0.0186417
0.0186316
0.0186216
0.0186116
0.0186018
0.0185921
0.0185824
0.0185729
0.0185635
0.0185541
0.0185449
0.0185357
0.0185266
0.0185176
0.0185087
0.0184998
0.0184909
0.0184821
0.0184733
0.0184646
0.0184558
0.0184471
0.0184384
0.0184296
0.0184209
0.0184128
0.0192698
0.0192638
0.0192567
0.0192486
0.0192399
0.0192306
0.0192208
0.0192107
0.0192005
0.0191902
0.0191798
0.0191695
0.0191591
0.0191488
0.0191386
0.0191283
0.0191181
0.019108
0.0190979
0.0190878
0.0190777
0.0190677
0.0190576
0.0190476
0.0190375
0.0190274
0.0190173
0.0190071
0.0189969
0.0189867
0.0189764
0.018966
0.0189556
0.0189451
0.0189346
0.0189241
0.0189135
0.0189028
0.0188922
0.0188815
0.0188708
0.0188601
0.0188494
0.0188387
0.018828
0.0188174
0.0188068
0.0187963
0.0187858
0.0187754
0.018765
0.0187548
0.0187446
0.0187345
0.0187245
0.0187147
0.0187049
0.0186952
0.0186857
0.0186762
0.0186669
0.0186576
0.0186484
0.0186393
0.0186303
0.0186214
0.0186125
0.0186037
0.0185949
0.0185862
0.0185775
0.0185688
0.0185601
0.0185515
0.0185428
0.0185341
0.0185261
0.0192148
0.0192086
0.0192012
0.019193
0.0191843
0.0191752
0.019166
0.0191569
0.0191478
0.0191389
0.0191302
0.0191216
0.0191131
0.0191047
0.0190965
0.0190886
0.0190808
0.0190731
0.0190655
0.0190581
0.0190507
0.0190434
0.0190361
0.0190288
0.0190215
0.0190142
0.0190068
0.0189993
0.0189918
0.0189842
0.0189765
0.0189687
0.0189607
0.0189527
0.0189446
0.0189363
0.0189279
0.0189194
0.0189108
0.0189022
0.0188934
0.0188845
0.0188756
0.0188666
0.0188576
0.0188485
0.0188394
0.0188303
0.0188212
0.0188122
0.0188031
0.0187941
0.0187851
0.0187762
0.0187674
0.0187586
0.0187499
0.0187413
0.0187328
0.0187243
0.018716
0.0187077
0.0186996
0.0186915
0.0186835
0.0186756
0.0186677
0.0186599
0.0186522
0.0186445
0.0186369
0.0186293
0.0186217
0.0186142
0.0186066
0.0185991
0.0185921
0.0183781
0.0183788
0.0183806
0.0183836
0.0183878
0.0183933
0.0183999
0.0184075
0.018416
0.0184253
0.0184352
0.0184456
0.0184564
0.0184673
0.0184784
0.0184895
0.0185004
0.0185113
0.0185219
0.0185322
0.0185422
0.0185518
0.0185609
0.0185695
0.0185777
0.0185854
0.0185926
0.0185994
0.0186056
0.0186114
0.0186166
0.0186212
0.0186253
0.0186288
0.0186318
0.0186343
0.0186362
0.0186377
0.0186386
0.018639
0.018639
0.0186385
0.0186376
0.0186364
0.0186347
0.0186327
0.0186305
0.0186279
0.0186251
0.0186221
0.0186189
0.0186155
0.0186121
0.0186085
0.0186048
0.018601
0.0185973
0.0185935
0.0185896
0.0185858
0.0185821
0.0185783
0.0185746
0.0185709
0.0185673
0.0185637
0.0185602
0.0185567
0.0185533
0.0185498
0.0185464
0.018543
0.0185396
0.0185363
0.0185329
0.0185295
0.0185266
0.0155332
0.0155863
0.0156458
0.0157109
0.0157804
0.0158535
0.0159292
0.0160066
0.016085
0.0161638
0.0162424
0.0163204
0.0163975
0.0164733
0.0165475
0.01662
0.0166907
0.0167594
0.0168261
0.0168908
0.0169535
0.017014
0.0170725
0.0171288
0.0171829
0.0172348
0.0172847
0.0173324
0.0173779
0.0174214
0.0174629
0.0175023
0.0175398
0.0175753
0.017609
0.0176408
0.0176709
0.0176992
0.0177259
0.017751
0.0177747
0.017797
0.0178179
0.0178377
0.0178562
0.0178737
0.0178902
0.0179058
0.0179205
0.0179345
0.0179478
0.0179604
0.0179724
0.017984
0.0179951
0.0180059
0.0180163
0.0180264
0.0180363
0.018046
0.0180555
0.0180648
0.018074
0.0180831
0.0180921
0.018101
0.0181097
0.0181184
0.018127
0.0181355
0.0181438
0.0181521
0.0181601
0.0181681
0.0181758
0.0181838
0.0106009
0.010713
0.0108393
0.0109778
0.0111267
0.0112837
0.0114469
0.0116147
0.0117857
0.0119586
0.0121322
0.0123058
0.0124784
0.0126494
0.0128182
0.0129845
0.0131477
0.0133077
0.0134641
0.0136168
0.0137656
0.0139104
0.0140511
0.0141876
0.0143199
0.014448
0.0145719
0.0146914
0.0148068
0.0149179
0.0150249
0.0151278
0.0152267
0.0153216
0.0154128
0.0155002
0.015584
0.0156643
0.0157411
0.0158147
0.0158851
0.0159526
0.0160171
0.016079
0.0161384
0.0161953
0.0162501
0.0163028
0.0163536
0.0164026
0.01645
0.0164959
0.0165405
0.0165839
0.0166262
0.0166675
0.0167079
0.0167475
0.0167864
0.0168247
0.0168623
0.0168995
0.0169363
0.0169726
0.0170085
0.017044
0.0170791
0.0171138
0.0171481
0.017182
0.0172154
0.0172484
0.0172809
0.0173128
0.0173442
0.0173751
0.00635185
0.00644533
0.00655635
0.00668316
0.00682394
0.00697684
0.00714018
0.00731235
0.00749188
0.00767741
0.00786778
0.0080619
0.00825879
0.00845762
0.00865763
0.00885815
0.00905858
0.00925841
0.00945716
0.00965441
0.00984977
0.0100429
0.0102335
0.0104213
0.010606
0.0107874
0.0109653
0.0111394
0.0113097
0.011476
0.0116382
0.0117962
0.01195
0.0120996
0.0122449
0.012386
0.0125228
0.0126552
0.0127834
0.0129075
0.0130279
0.0131446
0.0132578
0.0133677
0.0134743
0.0135779
0.0136786
0.0137767
0.0138722
0.0139654
0.0140564
0.0141455
0.0142329
0.0143187
0.0144031
0.0144863
0.0145684
0.0146496
0.01473
0.0148096
0.0148886
0.0149669
0.0150447
0.015122
0.0151987
0.0152748
0.0153503
0.0154252
0.0154994
0.0155729
0.0156456
0.0157175
0.0157885
0.0158585
0.0159275
0.015995
0.00419817
0.00424137
0.00430553
0.00438506
0.0044784
0.00458414
0.0047011
0.00482814
0.00496413
0.00504877
0.00510704
0.00518081
0.00526898
0.00537076
0.00548505
0.00561095
0.00574779
0.00589494
0.00605167
0.00621714
0.00639078
0.00657211
0.00676062
0.00695606
0.00715816
0.00736648
0.00758086
0.00780155
0.00802825
0.00826015
0.00849667
0.00873716
0.00897981
0.00917012
0.0093288
0.00948427
0.00963657
0.00978575
0.00993184
0.0100749
0.0102151
0.0103524
0.010487
0.0106191
0.0107487
0.010876
0.0110013
0.0111245
0.011246
0.0113659
0.0114844
0.0116016
0.0117178
0.011833
0.0119475
0.0120614
0.0121748
0.0122879
0.0124007
0.0125133
0.0126258
0.0127382
0.0128506
0.0129628
0.0130751
0.0131872
0.0132992
0.013411
0.0135226
0.0136339
0.0137449
0.0138556
0.0139658
0.0140755
0.0141847
0.0142922
0.00367593
0.00360695
0.00344741
0.00328353
0.00316176
0.00310758
0.00311209
0.00312762
0.00315305
0.00318754
0.00322961
0.00327895
0.00337015
0.00346835
0.00357237
0.00368176
0.00379629
0.00391583
0.00404018
0.00416886
0.00429986
0.0044336
0.0045704
0.00471063
0.00485453
0.0050019
0.00515264
0.00530725
0.00546567
0.00562734
0.00579206
0.00595974
0.00613023
0.00630338
0.00647881
0.00665614
0.00683502
0.00701523
0.00719653
0.00737861
0.00756109
0.00774367
0.00792597
0.00810753
0.00828787
0.00846652
0.00864302
0.00881693
0.00898784
0.00915534
0.00931904
0.0094786
0.00963369
0.00978398
0.00992923
0.0100693
0.0102039
0.0103332
0.0104571
0.0105756
0.0106888
0.010797
0.0109004
0.0109992
0.0110939
0.0111848
0.0112725
0.0113573
0.0114397
0.0115201
0.0115989
0.0116762
0.0117518
0.0118248
0.0118896
0.0120247
0.00319257
0.0033727
0.00362483
0.00389979
0.00416399
0.00441222
0.00464627
0.0048479
0.00502763
0.00518825
0.00533112
0.00546637
0.00559268
0.00571287
0.00582895
0.00594301
0.00605707
0.00617325
0.00629356
0.00642014
0.00654894
0.00667873
0.00680937
0.00694147
0.00707561
0.007209
0.00733756
0.00746466
0.007592
0.0077201
0.00784964
0.00797909
0.00810836
0.00823812
0.00836876
0.00850046
0.00863345
0.00876781
0.00890324
0.0090395
0.00917653
0.0093141
0.00945177
0.00958908
0.00972556
0.00986072
0.00999407
0.0101251
0.0102534
0.0103785
0.0105
0.0106173
0.0107302
0.0108381
0.0109409
0.0110382
0.0111299
0.0112159
0.0112962
0.0113707
0.0114396
0.0115028
0.0115608
0.0116137
0.0116619
0.0117057
0.0117455
0.0117817
0.0118146
0.0118445
0.0118712
0.0118943
0.011912
0.0119172
0.0119789
0.00907976
0.0109524
0.0119813
0.0131757
0.0132075
0.0132778
0.0134739
0.0136131
0.0137561
0.013888
0.0139748
0.0134985
0.012916
0.0122957
0.0116894
0.0111251
0.0106199
0.0101795
0.00980687
0.00964309
0.00994669
0.0101498
0.010293
0.0104039
0.0105006
0.0105918
0.0106755
0.0107508
0.0108233
0.0108975
0.0109765
0.0110646
0.0111604
0.0112626
0.0113698
0.0114815
0.011593
0.0117034
0.0118128
0.0119219
0.0120313
0.0121412
0.0122514
0.0123619
0.0124725
0.0125833
0.0126939
0.0128039
0.012913
0.0130207
0.0131267
0.0132306
0.0133317
0.0134296
0.0135239
0.0136143
0.0137005
0.0137822
0.0138592
0.0139316
0.0139992
0.0140621
0.0141206
0.0141748
0.014225
0.0142714
0.0143144
0.0143541
0.0143908
0.0144242
0.014454
0.014479
0.0144964
0.0144944
0.0145586
0.0124111
0.0126552
0.0124882
0.012509
0.0126808
0.0128823
0.0131232
0.0133753
0.0135676
0.013754
0.0139536
0.0141622
0.0143768
0.0145951
0.0148095
0.0150141
0.0152046
0.0153819
0.0155508
0.0157119
0.0158591
0.0159951
0.0161309
0.0162954
0.0165104
0.0167649
0.0170066
0.0171616
0.0162829
0.015252
0.0144186
0.0139042
0.0141415
0.0143248
0.0144711
0.0145926
0.0146952
0.0147794
0.0148533
0.0149209
0.0149873
0.015057
0.0151317
0.0152122
0.0152989
0.0153919
0.0154908
0.015595
0.0157041
0.0158169
0.0159324
0.0160499
0.0161687
0.0162875
0.0164055
0.0165224
0.0166379
0.0167515
0.0168628
0.016972
0.0170793
0.017185
0.0172894
0.0173926
0.0174948
0.0175957
0.0176948
0.0177918
0.0178861
0.017977
0.0180635
0.0181439
0.0182141
0.0182558
0.0183848
0.00966973
0.00990334
0.0101462
0.0104393
0.0107537
0.0110225
0.0112799
0.0115265
0.0117798
0.0120361
0.0122974
0.0125664
0.0128482
0.013151
0.0134659
0.0137777
0.014067
0.014334
0.0145977
0.0148663
0.0151416
0.0154215
0.0157002
0.0159772
0.0162531
0.0165303
0.0168096
0.0170822
0.0173405
0.0175825
0.0178064
0.0180137
0.0182018
0.018371
0.018524
0.0186639
0.0187864
0.0188832
0.0189573
0.019025
0.0191032
0.0191911
0.0192879
0.0193922
0.0195031
0.0196191
0.0197391
0.0198616
0.0199853
0.0198478
0.0200323
0.0202093
0.0203733
0.0204862
0.0205674
0.0206449
0.0207187
0.0207888
0.020855
0.0209177
0.020977
0.0210327
0.0210844
0.0211315
0.0211732
0.0212085
0.021237
0.021258
0.0212715
0.0212774
0.0212761
0.0212681
0.0212542
0.021236
0.0212154
0.00819656
0.00863963
0.00901072
0.00937659
0.00975733
0.0100742
0.0103581
0.0106345
0.0109061
0.0111727
0.0114352
0.0116952
0.0119539
0.0122119
0.012469
0.0127209
0.0129624
0.0131975
0.0134307
0.0136671
0.0139098
0.0141598
0.0144164
0.0146796
0.0149525
0.0152324
0.0155165
0.0158032
0.0160892
0.0163708
0.016638
0.0168788
0.0171023
0.0173136
0.0175234
0.0177373
0.0179468
0.0181494
0.0183444
0.0185318
0.0187131
0.0188893
0.0190611
0.0192288
0.0193928
0.0195531
0.0197098
0.019863
0.0200125
0.0201581
0.0202989
0.020435
0.020566
0.0206917
0.0208122
0.0209282
0.0210401
0.0211483
0.0212533
0.0213553
0.0214547
0.0215518
0.0216465
0.0217388
0.0218282
0.0219141
0.0219957
0.022072
0.0221424
0.022206
0.0222622
0.0223104
0.0223503
0.0223819
0.0224112
0.00731231
0.00766218
0.0080237
0.00826045
0.00897536
0.00939354
0.00967472
0.00994703
0.0102156
0.0104775
0.0107337
0.0109863
0.0112366
0.0114851
0.0117321
0.0119769
0.0122159
0.012449
0.0126802
0.0129116
0.013144
0.0133777
0.0136123
0.0138464
0.0140793
0.0143106
0.0145399
0.0147667
0.0149908
0.0152113
0.0154247
0.0156276
0.01582
0.0160047
0.0161851
0.0163664
0.0165485
0.0167302
0.0169109
0.0170897
0.0172664
0.0174407
0.0176125
0.0177816
0.017948
0.0181117
0.0182727
0.0184311
0.0185863
0.018738
0.0188867
0.0190321
0.0191712
0.0193064
0.0194381
0.0195671
0.0196942
0.0198197
0.0199439
0.0200672
0.0201898
0.0203119
0.0204337
0.0205559
0.020679
0.0208019
0.020924
0.0210452
0.0211652
0.0212836
0.0214004
0.0215153
0.0216282
0.0217381
0.0218459
0.00770911
0.00836508
0.00876772
0.0091601
0.00921462
0.00935598
0.0095186
0.00968803
0.0098731
0.010056
0.010213
0.0103742
0.010549
0.0107388
0.0109427
0.0111583
0.0113826
0.0116123
0.0118452
0.0120791
0.0123126
0.0125445
0.0127734
0.0129977
0.0132165
0.0134297
0.0136373
0.0138393
0.0140343
0.0142235
0.0144082
0.0145886
0.0147648
0.0149369
0.0151054
0.0152705
0.0154325
0.0155921
0.0157494
0.0159049
0.0160588
0.0162115
0.0163631
0.0165135
0.0166629
0.0168112
0.0169585
0.017105
0.017251
0.0173962
0.0175404
0.0176834
0.0178248
0.0179645
0.0181023
0.0182381
0.0183719
0.0185037
0.0186338
0.0187623
0.0188894
0.0190152
0.01914
0.0192639
0.019387
0.0195094
0.0196309
0.0197513
0.0198706
0.0199886
0.0201052
0.0202203
0.020334
0.0204464
0.0205581
0.020663
0.00329381
0.00373885
0.00426372
0.00484514
0.00538778
0.00595281
0.00651342
0.00705218
0.00755792
0.0080491
0.00852593
0.00897809
0.0093904
0.00975297
0.0100964
0.010422
0.0107328
0.0110318
0.0113121
0.0115735
0.0118176
0.0120457
0.012259
0.0124587
0.0126463
0.0128232
0.012991
0.0131514
0.0133063
0.0134571
0.0136043
0.0137488
0.0138915
0.0140331
0.0141744
0.0143158
0.0144568
0.0145983
0.0147409
0.0148848
0.0150304
0.0151775
0.015326
0.0154757
0.0156262
0.0157773
0.0159287
0.0160803
0.0162317
0.0163826
0.0165326
0.0166813
0.0168281
0.0169727
0.0171148
0.0172541
0.0173905
0.0175241
0.0176549
0.0177832
0.0179091
0.018033
0.0181549
0.0182752
0.0183942
0.018512
0.0186289
0.018745
0.0188603
0.0189751
0.0190894
0.0192034
0.0193172
0.0194311
0.0195454
0.019655
0.00483751
0.00454702
0.00444177
0.00444456
0.00452126
0.00465386
0.00482821
0.00503903
0.00528199
0.00555172
0.005841
0.00614255
0.00644967
0.00675535
0.00705294
0.00733868
0.0076112
0.00786906
0.00812346
0.00837922
0.00863282
0.00888408
0.00913265
0.00937805
0.00961991
0.00985823
0.0100933
0.0103243
0.0105492
0.0107683
0.010983
0.0111944
0.0114025
0.0116077
0.0118115
0.0120141
0.0122139
0.0124117
0.0126079
0.0128033
0.0129984
0.013194
0.0133909
0.0135896
0.0137904
0.0139934
0.0141989
0.0144145
0.0146331
0.0148524
0.0150724
0.0152929
0.0155136
0.0157336
0.0159526
0.0161693
0.0163836
0.0165783
0.016726
0.0168694
0.017009
0.0171453
0.0172785
0.0174092
0.0175374
0.0176635
0.0177878
0.0179104
0.0180315
0.0181514
0.0182703
0.0183882
0.0185054
0.0186222
0.0187389
0.0188521
0.00933819
0.00910518
0.00894536
0.00850494
0.00793933
0.0075395
0.00725207
0.00705081
0.00691528
0.00680909
0.00679618
0.00686991
0.00696685
0.00708739
0.00723035
0.00739191
0.00756594
0.0077488
0.00792365
0.00808828
0.0082426
0.0083856
0.00851646
0.00863493
0.00874117
0.00883756
0.00892567
0.00900556
0.0090962
0.0091952
0.0093034
0.0094205
0.00954567
0.00967889
0.00982027
0.00996941
0.0101229
0.0102802
0.0104415
0.0106069
0.0107763
0.0109494
0.0111252
0.0113037
0.0114846
0.0116679
0.0118537
0.0120424
0.0122342
0.012429
0.0126266
0.0128274
0.0130315
0.0132387
0.0134489
0.0136618
0.0138773
0.0140952
0.0143155
0.014538
0.0147627
0.0149893
0.0152217
0.0154622
0.0157032
0.015945
0.0161877
0.0164312
0.0166751
0.0169188
0.0171613
0.0174012
0.0176361
0.0178623
0.0180436
0.0181706
0.0134152
0.0131767
0.0129665
0.0127806
0.0126116
0.0124549
0.0123065
0.0121659
0.0120323
0.0119062
0.0117878
0.0116782
0.0115788
0.0114905
0.0114142
0.0113503
0.0112991
0.0112603
0.0112337
0.011219
0.0112156
0.011223
0.0112406
0.0112679
0.0113041
0.0113488
0.0114016
0.0114622
0.0115303
0.0116051
0.0116853
0.0116706
0.0116106
0.0115431
0.0114739
0.0114183
0.0113768
0.0113504
0.0113392
0.0113425
0.0113589
0.0113857
0.0114227
0.0114701
0.0115279
0.0115959
0.0116738
0.0117612
0.0118578
0.0119634
0.0120778
0.0122003
0.0123303
0.0124674
0.0126112
0.0127613
0.0129167
0.013077
0.0132415
0.0134099
0.0135816
0.0137564
0.0139336
0.0141128
0.0142938
0.0144761
0.014659
0.0148418
0.015024
0.0152046
0.0153827
0.0155573
0.0157267
0.0158916
0.0161557
0.0167722
0.0166131
0.0164607
0.0163131
0.0161683
0.0160248
0.0158816
0.0157379
0.0155937
0.0154491
0.0153047
0.015161
0.0150191
0.0148801
0.0147451
0.0146153
0.0144917
0.0143754
0.014267
0.0141674
0.0140771
0.0139965
0.0139259
0.0138654
0.0138149
0.0137745
0.0137438
0.0137225
0.0137103
0.0137069
0.0137118
0.0137247
0.0137451
0.0137725
0.0138066
0.0138473
0.0138943
0.0139477
0.0140072
0.0140727
0.0141438
0.014218
0.0142949
0.0143744
0.0144564
0.0145412
0.0146295
0.0147211
0.0148159
0.0149132
0.0150094
0.0149558
0.0149093
0.0148702
0.0148387
0.0148148
0.0147985
0.0147898
0.0147886
0.0147948
0.0148081
0.0148282
0.014855
0.0148879
0.0149262
0.0149693
0.0150166
0.0150676
0.0151218
0.0151784
0.0152371
0.0152982
0.0153643
0.0154465
0.0155925
0.0186246
0.0185453
0.0184649
0.0183833
0.0183001
0.0182151
0.0181281
0.0180389
0.0179474
0.0178536
0.0177577
0.0176598
0.0175602
0.0174593
0.0173574
0.0172552
0.017153
0.0170517
0.0169517
0.0168538
0.0167585
0.0166665
0.0165782
0.0164943
0.0164152
0.0163412
0.0162728
0.0162101
0.0161532
0.0161024
0.0160576
0.0160189
0.0159863
0.0159597
0.015939
0.015924
0.0159146
0.0159108
0.0159125
0.0159195
0.0159315
0.0159482
0.0159692
0.0159946
0.0160242
0.0160572
0.0160923
0.0161297
0.0161693
0.0162115
0.0162566
0.0163045
0.0163551
0.0164084
0.0164645
0.0165231
0.0165843
0.0166481
0.0167144
0.0167832
0.0168545
0.0169282
0.0170043
0.0170827
0.0171634
0.0172464
0.0173317
0.0174191
0.0175087
0.0176004
0.0176942
0.0177892
0.0178838
0.0178889
0.0178802
0.0194154
0.0193863
0.0193541
0.0193192
0.0192819
0.0192424
0.0192009
0.0191575
0.0191123
0.0190652
0.0190164
0.018966
0.0189138
0.0188601
0.0188047
0.018748
0.0186899
0.0186307
0.0185705
0.0185096
0.0184481
0.0183864
0.0183247
0.0182632
0.0182023
0.0181422
0.0180834
0.0180259
0.0179702
0.0179164
0.0178648
0.0178156
0.017769
0.017725
0.017684
0.0176459
0.0176109
0.017579
0.0175503
0.0175249
0.0175028
0.017484
0.0174684
0.017456
0.0174469
0.0174409
0.0174381
0.0174385
0.0174417
0.0174473
0.0174547
0.0174641
0.0174759
0.0174901
0.0175069
0.0175264
0.0175484
0.017573
0.0176
0.0176292
0.0176608
0.0176947
0.0177309
0.0177695
0.0178106
0.017854
0.0178999
0.0179482
0.0179989
0.0180521
0.0181078
0.0181657
0.0182257
0.0182876
0.0183496
0.0195458
0.0195458
0.0195423
0.0195359
0.019527
0.0195161
0.0195035
0.0194893
0.0194738
0.0194571
0.0194392
0.0194202
0.0194
0.0193786
0.019356
0.0193322
0.0193071
0.0192806
0.0192528
0.0192237
0.0191932
0.0191614
0.0191283
0.0190941
0.0190587
0.0190222
0.0189848
0.0189466
0.0189078
0.0188684
0.0188288
0.0187891
0.0187494
0.0187099
0.0186709
0.0186325
0.0185948
0.0185582
0.0185226
0.0184884
0.0184556
0.0184243
0.0183948
0.0183671
0.0183413
0.0183176
0.0182959
0.0182765
0.0182593
0.0182442
0.0182313
0.0182207
0.018212
0.018205
0.0181996
0.018196
0.0181942
0.0181942
0.018196
0.0181996
0.0182049
0.0182119
0.0182207
0.0182312
0.0182434
0.0182575
0.0182733
0.0182909
0.0183104
0.0183318
0.0183552
0.0183805
0.0184077
0.0184367
0.0184666
0.019341
0.0193535
0.0193628
0.0193695
0.0193741
0.019377
0.0193785
0.0193789
0.0193784
0.0193771
0.0193751
0.0193725
0.0193691
0.019365
0.0193601
0.0193543
0.0193476
0.0193398
0.0193308
0.0193205
0.0193089
0.0192959
0.0192813
0.0192652
0.0192476
0.0192283
0.0192074
0.019185
0.019161
0.0191355
0.0191085
0.0190803
0.0190508
0.0190203
0.0189888
0.0189567
0.0189239
0.0188908
0.0188576
0.0188243
0.0187913