/*--------------------------------*- C++ -*----------------------------------*\
  =========                 |
  \\      /  F ield         | OpenFOAM: The Open Source CFD Toolbox
   \\    /   O peration     | Website:  https://openfoam.org
    \\  /    A nd           | Version:  13
     \\/     M anipulation  |
\*---------------------------------------------------------------------------*/
FoamFile
{
    format      ascii;
    class       volScalarField;
    location    "200";
    object      omega;
}
// * * * * * * * * * * * * * * * * * * * * * * * * * * * * * * * * * * * * * //

dimensions      [0 0 -1 0 0 0 0];

internalField   nonuniform List<scalar> 
173327
(
14.9454
14.8908
14.8367
14.7833
14.7304
14.6782
14.6266
14.5755
14.5251
14.4751
14.4257
14.3768
14.3284
14.2804
14.2329
14.1857
14.1389
14.0925
14.0463
14.0005
13.955
13.9096
13.8646
13.8197
13.7751
13.7306
13.6863
13.6422
13.5982
13.5544
13.5107
13.4671
13.4237
13.3804
13.3373
13.2942
13.2513
13.2086
13.1659
13.1235
13.0811
13.0389
12.9969
12.9551
12.9134
12.8719
12.8306
12.7895
12.7487
12.708
12.6676
12.6274
12.5874
12.5477
12.5082
12.469
12.4301
12.3914
12.353
12.3148
12.277
12.2394
12.202
12.165
12.1282
12.0917
12.0554
12.0194
11.9836
11.9481
11.9128
11.8777
11.8429
11.8082
11.7738
11.7396
11.7059
14.9472
14.8926
14.8386
14.7852
14.7324
14.6803
14.6287
14.5778
14.5274
14.4775
14.4282
14.3793
14.331
14.283
14.2356
14.1885
14.1417
14.0953
14.0493
14.0035
13.958
13.9127
13.8677
13.8229
13.7783
13.7339
13.6897
13.6456
13.6017
13.558
13.5143
13.4709
13.4275
13.3843
13.3412
13.2982
13.2553
13.2126
13.17
13.1276
13.0853
13.0432
13.0012
12.9593
12.9177
12.8762
12.8349
12.7938
12.7529
12.7122
12.6717
12.6315
12.5915
12.5517
12.5122
12.4729
12.4339
12.3951
12.3566
12.3184
12.2804
12.2427
12.2053
12.1682
12.1313
12.0946
12.0583
12.0221
11.9863
11.9507
11.9153
11.8802
11.8453
11.8106
11.7761
11.7419
11.7082
14.9509
14.8964
14.8425
14.7893
14.7366
14.6846
14.6331
14.5823
14.532
14.4822
14.433
14.3842
14.336
14.2882
14.2408
14.1937
14.1471
14.1008
14.0548
14.0091
13.9636
13.9185
13.8735
13.8288
13.7843
13.7399
13.6957
13.6517
13.6079
13.5641
13.5206
13.4771
13.4338
13.3906
13.3475
13.3046
13.2618
13.2191
13.1765
13.1341
13.0918
13.0496
13.0076
12.9658
12.9241
12.8826
12.8413
12.8002
12.7592
12.7185
12.678
12.6377
12.5976
12.5578
12.5182
12.4788
12.4397
12.4009
12.3623
12.324
12.286
12.2482
12.2107
12.1735
12.1365
12.0998
12.0633
12.0271
11.9912
11.9555
11.92
11.8848
11.8498
11.8151
11.7805
11.7462
11.7125
14.9566
14.9023
14.8486
14.7955
14.7431
14.6912
14.6399
14.5892
14.5391
14.4895
14.4404
14.3918
14.3437
14.296
14.2487
14.2018
14.1552
14.109
14.0631
14.0174
13.9721
13.927
13.8821
13.8374
13.7929
13.7486
13.7045
13.6605
13.6167
13.573
13.5294
13.486
13.4427
13.3995
13.3564
13.3135
13.2706
13.2279
13.1854
13.1429
13.1006
13.0585
13.0164
12.9746
12.9329
12.8913
12.85
12.8088
12.7679
12.7271
12.6865
12.6462
12.6061
12.5662
12.5266
12.4872
12.4481
12.4092
12.3706
12.3322
12.2941
12.2563
12.2188
12.1815
12.1445
12.1077
12.0712
12.035
11.999
11.9632
11.9277
11.8925
11.8574
11.8226
11.788
11.7536
11.7198
14.9648
14.9108
14.8574
14.8045
14.7523
14.7007
14.6496
14.5991
14.5492
14.4998
14.4509
14.4025
14.3545
14.307
14.2598
14.213
14.1666
14.1205
14.0747
14.0291
13.9839
13.9388
13.894
13.8494
13.8049
13.7607
13.7166
13.6726
13.6288
13.5851
13.5416
13.4981
13.4548
13.4116
13.3686
13.3256
13.2828
13.24
13.1974
13.155
13.1126
13.0704
13.0284
12.9865
12.9447
12.9032
12.8618
12.8206
12.7795
12.7387
12.6981
12.6578
12.6176
12.5777
12.538
12.4986
12.4594
12.4205
12.3818
12.3434
12.3053
12.2674
12.2298
12.1925
12.1554
12.1186
12.0821
12.0458
12.0098
11.974
11.9385
11.9032
11.8681
11.8332
11.7986
11.7642
11.7304
14.9761
14.9224
14.8693
14.8168
14.7649
14.7136
14.6628
14.6126
14.563
14.5138
14.4651
14.4169
14.3692
14.3218
14.2748
14.2282
14.1819
14.1359
14.0902
14.0448
13.9996
13.9546
13.9098
13.8652
13.8209
13.7766
13.7325
13.6886
13.6448
13.6011
13.5576
13.5141
13.4708
13.4276
13.3845
13.3415
13.2986
13.2558
13.2132
13.1706
13.1283
13.086
13.0439
13.0019
12.9601
12.9185
12.877
12.8358
12.7947
12.7538
12.7132
12.6727
12.6325
12.5925
12.5528
12.5133
12.4741
12.4351
12.3964
12.3579
12.3197
12.2818
12.2442
12.2068
12.1697
12.1328
12.0963
12.0599
12.0239
11.988
11.9525
11.9171
11.882
11.8471
11.8124
11.778
11.7441
14.9914
14.9382
14.8855
14.8334
14.7818
14.7308
14.6804
14.6306
14.5812
14.5323
14.4839
14.436
14.3884
14.3413
14.2945
14.248
14.2018
14.156
14.1104
14.0651
14.0199
13.975
13.9303
13.8858
13.8414
13.7972
13.7531
13.7092
13.6654
13.6217
13.5781
13.5346
13.4912
13.448
13.4048
13.3618
13.3188
13.276
13.2333
13.1907
13.1482
13.1059
13.0637
13.0216
12.9797
12.938
12.8965
12.8551
12.814
12.773
12.7323
12.6917
12.6514
12.6114
12.5715
12.532
12.4927
12.4536
12.4148
12.3763
12.338
12.3001
12.2623
12.2249
12.1877
12.1508
12.1142
12.0778
12.0417
12.0058
11.9701
11.9347
11.8996
11.8646
11.8299
11.7954
11.7615
15.0121
14.9593
14.9071
14.8554
14.8043
14.7537
14.7037
14.6542
14.6052
14.5566
14.5085
14.4608
14.4135
14.3665
14.3199
14.2736
14.2276
14.1818
14.1364
14.0911
14.046
14.0012
13.9565
13.912
13.8676
13.8234
13.7793
13.7353
13.6915
13.6477
13.6041
13.5605
13.5171
13.4737
13.4305
13.3873
13.3443
13.3013
13.2585
13.2158
13.1732
13.1308
13.0885
13.0463
13.0043
12.9625
12.9208
12.8793
12.838
12.797
12.7561
12.7154
12.675
12.6349
12.5949
12.5553
12.5158
12.4767
12.4378
12.3992
12.3608
12.3227
12.2849
12.2474
12.2102
12.1732
12.1364
12.1
12.0638
12.0278
11.9921
11.9566
11.9213
11.8863
11.8515
11.8169
11.7829
15.0398
14.9876
14.9359
14.8847
14.8341
14.784
14.7343
14.6852
14.6365
14.5883
14.5404
14.493
14.4459
14.3991
14.3526
14.3065
14.2605
14.2149
14.1695
14.1242
14.0792
14.0343
13.9896
13.9451
13.9007
13.8564
13.8122
13.7682
13.7242
13.6804
13.6366
13.5929
13.5493
13.5059
13.4625
13.4192
13.376
13.3329
13.2899
13.247
13.2043
13.1617
13.1192
13.0769
13.0347
12.9927
12.9509
12.9092
12.8678
12.8266
12.7855
12.7447
12.7042
12.6638
12.6238
12.5839
12.5444
12.5051
12.4661
12.4273
12.3888
12.3506
12.3127
12.2751
12.2377
12.2006
12.1638
12.1272
12.0908
12.0548
12.0189
11.9833
11.948
11.9128
11.8779
11.8432
11.8092
15.0774
15.0258
14.9747
14.924
14.8738
14.8241
14.7748
14.726
14.6776
14.6296
14.582
14.5347
14.4877
14.4411
14.3947
14.3486
14.3027
14.257
14.2116
14.1663
14.1212
14.0762
14.0314
13.9868
13.9422
13.8978
13.8534
13.8092
13.7651
13.721
13.6771
13.6332
13.5894
13.5457
13.5021
13.4586
13.4152
13.3719
13.3286
13.2855
13.2426
13.1997
13.157
13.1145
13.0721
13.0298
12.9878
12.9459
12.9043
12.8628
12.8216
12.7806
12.7398
12.6993
12.659
12.619
12.5793
12.5398
12.5006
12.4617
12.423
12.3847
12.3466
12.3088
12.2712
12.234
12.197
12.1602
12.1238
12.0875
12.0516
12.0158
11.9803
11.945
11.91
11.8751
11.8409
15.1287
15.0777
15.027
14.9768
14.927
14.8776
14.8286
14.78
14.7317
14.6838
14.6363
14.589
14.542
14.4953
14.4489
14.4026
14.3566
14.3108
14.2651
14.2197
14.1743
14.1291
14.0841
14.0391
13.9943
13.9496
13.905
13.8604
13.816
13.7716
13.7273
13.6831
13.639
13.595
13.5511
13.5072
13.4635
13.4198
13.3763
13.3328
13.2895
13.2464
13.2034
13.1605
13.1178
13.0752
13.0329
12.9907
12.9488
12.907
12.8655
12.8242
12.7832
12.7424
12.7019
12.6616
12.6216
12.5819
12.5425
12.5033
12.4644
12.4258
12.3875
12.3495
12.3118
12.2743
12.2371
12.2002
12.1635
12.1271
12.0909
12.055
12.0193
11.9838
11.9486
11.9135
11.8791
15.1996
15.149
15.0986
15.0486
14.999
14.9496
14.9006
14.852
14.8036
14.7555
14.7077
14.6602
14.6129
14.5659
14.519
14.4724
14.426
14.3797
14.3336
14.2877
14.2419
14.1962
14.1506
14.1052
14.0599
14.0146
13.9695
13.9244
13.8795
13.8346
13.7898
13.7451
13.7005
13.656
13.6115
13.5672
13.5229
13.4788
13.4348
13.3909
13.3471
13.3035
13.26
13.2167
13.1736
13.1306
13.0878
13.0453
13.0029
12.9608
12.9189
12.8772
12.8358
12.7947
12.7538
12.7132
12.6729
12.6328
12.5931
12.5536
12.5144
12.4756
12.437
12.3987
12.3606
12.3229
12.2854
12.2482
12.2113
12.1746
12.1382
12.102
12.066
12.0303
11.9948
11.9595
11.9248
15.2993
15.2488
15.1984
15.1482
15.0982
15.0484
14.9989
14.9496
14.9006
14.8518
14.8032
14.7549
14.7068
14.6589
14.6112
14.5636
14.5163
14.4691
14.4221
14.3753
14.3286
14.282
14.2355
14.1892
14.143
14.0969
14.0509
14.005
13.9593
13.9136
13.868
13.8225
13.7771
13.7318
13.6866
13.6415
13.5965
13.5517
13.507
13.4624
13.418
13.3737
13.3296
13.2857
13.2419
13.1984
13.155
13.1119
13.069
13.0263
12.9839
12.9417
12.8998
12.8582
12.8169
12.7758
12.735
12.6946
12.6544
12.6145
12.5749
12.5356
12.4966
12.458
12.4195
12.3814
12.3436
12.306
12.2687
12.2317
12.1949
12.1583
12.122
12.0859
12.0501
12.0144
11.9794
15.444
15.393
15.3419
15.2907
15.2395
15.1884
15.1373
15.0865
15.0358
14.9852
14.9349
14.8848
14.8349
14.7852
14.7357
14.6864
14.6373
14.5885
14.5398
14.4912
14.4429
14.3947
14.3467
14.2989
14.2512
14.2036
14.1562
14.109
14.0618
14.0148
13.9679
13.9212
13.8746
13.8281
13.7817
13.7355
13.6895
13.6436
13.5978
13.5522
13.5068
13.4616
13.4166
13.3717
13.3271
13.2827
13.2385
13.1946
13.1509
13.1075
13.0643
13.0215
12.9789
12.9366
12.8946
12.8529
12.8115
12.7704
12.7296
12.6891
12.649
12.6091
12.5696
12.5304
12.4914
12.4528
12.4144
12.3763
12.3385
12.301
12.2637
12.2266
12.1898
12.1532
12.1169
12.0807
12.0452
15.6672
15.6144
15.5611
15.5073
15.4531
15.3988
15.3444
15.2901
15.2358
15.1816
15.1277
15.0739
15.0205
14.9672
14.9143
14.8616
14.8092
14.7571
14.7052
14.6536
14.6023
14.5513
14.5005
14.45
14.3997
14.3496
14.2997
14.2501
14.2007
14.1515
14.1025
14.0537
14.0051
13.9567
13.9084
13.8604
13.8126
13.7651
13.7177
13.6705
13.6236
13.5769
13.5304
13.4842
13.4382
13.3925
13.3471
13.3019
13.2571
13.2125
13.1682
13.1243
13.0806
13.0373
12.9943
12.9516
12.9092
12.8672
12.8255
12.7842
12.7431
12.7024
12.6621
12.622
12.5822
12.5428
12.5037
12.4648
12.4262
12.3879
12.3499
12.3121
12.2745
12.2372
12.2001
12.1632
12.1269
16.0458
15.9893
15.9312
15.8718
15.8115
15.7505
15.689
15.6272
15.5655
15.5038
15.4424
15.3812
15.3204
15.2601
15.2001
15.1407
15.0817
15.0231
14.9651
14.9075
14.8504
14.7938
14.7376
14.6819
14.6266
14.5717
14.5173
14.4632
14.4095
14.3562
14.3032
14.2506
14.1984
14.1464
14.0949
14.0436
13.9927
13.9421
13.8919
13.8419
13.7923
13.743
13.6941
13.6455
13.5972
13.5493
13.5017
13.4544
13.4076
13.361
13.3148
13.269
13.2236
13.1785
13.1338
13.0894
13.0454
13.0018
12.9585
12.9156
12.8731
12.8309
12.789
12.7475
12.7064
12.6655
12.625
12.5847
12.5448
12.5052
12.4658
12.4267
12.3879
12.3493
12.3109
12.2728
12.2353
16.8025
16.7365
16.6667
16.5938
16.5185
16.4415
16.3635
16.2847
16.2058
16.1269
16.0484
15.9703
15.8927
15.8159
15.7399
15.6649
15.5909
15.5178
15.4458
15.3747
15.3047
15.2356
15.1674
15.1002
15.0339
14.9684
14.9038
14.84
14.777
14.7148
14.6534
14.5926
14.5325
14.4732
14.4144
14.3564
14.2989
14.242
14.1858
14.1301
14.0749
14.0203
13.9663
13.9128
13.8598
13.8073
13.7553
13.7038
13.6529
13.6024
13.5523
13.5028
13.4537
13.4051
13.3569
13.3091
13.2619
13.215
13.1686
13.1225
13.0769
13.0317
12.9869
12.9424
12.8984
12.8547
12.8113
12.7683
12.7257
12.6833
12.6413
12.5996
12.5582
12.517
12.4762
12.4356
12.3957
18.6583
18.5598
18.4513
18.3354
18.214
18.0887
17.961
17.8321
17.7029
17.5744
17.4469
17.321
17.1969
17.075
16.9554
16.8382
16.7236
16.6115
16.502
16.395
16.2905
16.1885
16.0888
15.9913
15.8961
15.8031
15.7123
15.6236
15.5369
15.452
15.3691
15.2879
15.2083
15.1304
15.0541
14.9792
14.9058
14.8337
14.7629
14.6933
14.625
14.5578
14.4916
14.4266
14.3625
14.2993
14.2371
14.1758
14.1153
14.0557
13.9968
13.9386
13.8812
13.8244
13.7684
13.7129
13.6581
13.6039
13.5502
13.4971
13.4445
13.3925
13.3409
13.2899
13.2393
13.1892
13.1395
13.0903
13.0415
12.9931
12.9451
12.8975
12.8504
12.8036
12.7572
12.7112
12.666
23.6749
23.4123
23.1323
22.8403
22.5415
22.2399
21.9386
21.6404
21.347
21.0599
20.78
20.5083
20.2451
19.9905
19.7446
19.5074
19.2788
19.0587
18.8467
18.6425
18.446
18.2568
18.0747
17.8993
17.7305
17.5679
17.4113
17.2603
17.1148
16.9744
16.8389
16.708
16.5815
16.4592
16.3409
16.2262
16.115
16.0071
15.9023
15.8005
15.7015
15.6051
15.5112
15.4197
15.3303
15.243
15.1576
15.0741
14.9922
14.9119
14.8331
14.7557
14.6796
14.6047
14.531
14.4584
14.3868
14.3162
14.2465
14.1777
14.1097
14.0425
13.9761
13.9104
13.8454
13.7812
13.7176
13.6546
13.5924
13.5308
13.4698
13.4095
13.3498
13.2908
13.2324
13.1753
37.241
36.508
35.7309
34.9277
34.1133
33.298
32.4909
31.699
30.9276
30.1801
29.459
28.7658
28.1013
27.4656
26.8585
26.2796
25.728
25.203
24.7035
24.2285
23.777
23.3479
22.9401
22.5526
22.1843
21.8343
21.5015
21.1851
20.8841
20.5976
20.3248
20.0649
19.8171
19.5806
19.3548
19.1389
18.9324
18.7347
18.5452
18.3633
18.1886
18.0205
17.8586
17.7025
17.5518
17.406
17.2649
17.128
16.9951
16.8658
16.7398
16.617
16.497
16.3797
16.2647
16.1521
16.0415
15.9327
15.8257
15.7204
15.6166
15.5143
15.4134
15.3139
15.2157
15.1187
15.0229
14.9283
14.8349
14.7427
14.6517
14.5618
14.4731
14.3856
14.2993
14.2152
62.7154
61.301
59.7732
58.1719
56.5305
54.8749
53.2255
51.5981
50.0045
48.4531
46.9492
45.4973
44.1
42.7588
41.4746
40.2471
39.0758
37.9598
36.8976
35.8877
34.9286
34.0183
33.1551
32.337
31.5621
30.8284
30.134
29.4768
28.855
28.2667
27.7101
27.1831
26.684
26.2109
25.7625
25.3371
24.9333
24.5492
24.1837
23.8356
23.5042
23.1883
22.8869
22.5988
22.3229
22.0583
21.804
21.5592
21.3231
21.0948
20.8736
20.659
20.4503
20.2469
20.0483
19.854
19.6637
19.4769
19.2934
19.1128
18.9349
18.7595
18.5865
18.4156
18.2467
18.0798
17.9147
17.7514
17.5899
17.4302
17.2723
17.1163
16.9623
16.8101
16.6601
16.5139
94.513
92.9753
91.0094
88.9484
86.8266
84.6721
82.5078
80.3515
78.2158
76.1085
74.0352
72.0009
70.0085
68.0604
66.1586
64.305
62.5014
60.7494
59.0507
57.4066
55.8184
54.287
52.8134
51.3978
50.0403
48.7408
47.4986
46.3128
45.1822
44.1054
43.0809
42.107
41.1813
40.3022
39.4675
38.6753
37.9234
37.2098
36.5323
35.8886
35.2768
34.6946
34.1401
33.6111
33.1058
32.6221
32.1583
31.7125
31.283
30.8682
30.4664
30.0762
29.6963
29.3253
28.9621
28.6055
28.2547
27.9086
27.5665
27.2278
26.8918
26.5581
26.2263
25.8961
25.5673
25.2399
24.9137
24.5889
24.2656
23.9438
23.6238
23.3059
22.9904
22.6777
22.3684
22.0662
151.914
153.14
153.444
152.803
152.048
151.325
150.395
149.257
147.906
146.341
144.559
142.529
140.118
137.384
134.386
131.181
127.824
124.364
120.842
117.301
113.778
110.301
106.894
103.573
100.353
97.2426
94.2503
91.3801
88.6345
86.0149
83.5214
81.1529
78.9078
76.7826
74.7734
72.8756
71.0845
69.3948
67.8012
66.2981
64.8799
63.541
62.2757
61.0785
59.944
58.8669
57.842
56.8645
55.9295
55.0324
54.1688
53.3347
52.526
51.7391
50.9706
50.2173
49.4764
48.7451
48.0211
47.3024
46.5872
45.8738
45.1611
44.448
43.7339
43.0181
42.3005
41.581
40.8599
40.1376
39.4147
38.6921
37.9708
37.252
36.5375
35.8332
302.458
314.645
324.53
329.857
330.421
327.086
320.846
312.943
304.199
295.212
286.412
277.866
269.417
261.022
252.752
244.638
236.691
228.91
221.284
213.786
206.424
199.219
192.194
185.372
178.772
172.426
166.362
160.586
155.099
149.898
144.978
140.333
135.957
131.841
127.971
124.336
120.923
117.72
114.712
111.889
109.236
106.743
104.398
102.188
100.104
98.1342
96.2691
94.499
92.8144
91.2067
89.6675
88.1886
86.7627
85.3827
84.0419
82.7342
81.4538
80.1954
78.9543
77.7261
76.507
75.2934
74.0825
72.8715
71.6586
70.4418
69.2201
67.9926
66.759
65.5193
64.2743
63.0251
61.7739
60.5247
59.2847
290.907
181.56
145.652
133.474
127.933
125.094
124.033
122.378
121.181
120.455
120.131
120.882
123.201
127.039
132.08
138.162
145.178
153.027
161.405
168.74
172.979
175.33
176.47
176.793
176.547
175.82
174.457
172.561
170.324
167.847
165.202
162.415
159.523
156.567
153.582
150.599
147.647
144.747
141.916
139.165
136.499
133.923
131.437
129.043
126.737
124.517
122.38
120.321
118.335
116.417
114.563
112.768
111.025
109.331
107.68
106.067
104.488
102.939
101.415
99.9134
98.4296
96.9607
95.5037
94.0559
92.6149
91.1786
89.745
88.3127
86.8805
85.4477
84.0141
82.5803
81.1481
79.7232
78.3118
125.97
115.278
112.91
111.281
109.653
107.341
104.936
102.226
99.3282
96.738
94.4771
92.5069
90.8302
89.4391
88.2869
87.3363
86.5486
85.9235
85.488
85.2339
85.0546
84.9241
84.8733
85.0896
85.7868
87.0882
89.3639
92.4229
95.9797
99.9226
104.148
108.284
111.55
114.1
116.055
117.514
118.491
118.987
119.099
118.906
118.471
117.844
117.063
116.161
115.162
114.088
112.955
111.778
110.568
109.334
108.084
106.822
105.555
104.288
103.023
101.765
100.515
99.2758
98.049
96.8359
95.6373
94.4537
93.2854
92.1324
90.9944
89.871
88.7615
87.6649
86.5803
85.5066
84.4427
83.3879
82.3422
81.3091
80.291
119.941
120.553
120.482
119.391
117.062
113.738
110.01
106.624
103.476
100.481
97.6274
94.9176
92.378
90.0516
87.9125
85.9106
83.9018
81.9046
80.0806
78.485
77.1037
75.9134
74.8761
73.9698
73.1729
72.4861
71.9345
71.5063
71.1824
70.9569
70.8179
70.7548
70.7336
70.7271
70.7237
70.7207
70.7943
71.0091
71.2844
71.6274
72.0759
72.5918
73.1427
73.701
74.2441
74.7539
75.2161
75.6201
75.9583
76.2021
76.2942
76.2752
76.1567
75.9478
75.6673
75.3321
74.9558
74.5479
74.1168
73.6713
73.2195
72.768
72.3224
71.8864
71.4624
71.0515
70.6539
70.2692
69.8964
69.5341
69.1807
68.8342
68.4927
68.1572
67.822
146.915
146.445
143.901
140.158
135.901
131.687
127.439
123.458
119.692
116.098
112.658
109.372
106.239
103.253
100.412
97.6991
95.0819
92.5681
90.1725
87.9097
85.7867
83.8006
81.9452
80.2157
78.6235
77.1616
75.8205
74.6
73.4868
72.4668
71.4902
70.4719
69.4558
68.4712
67.5758
66.8046
66.1126
65.4829
64.9053
64.3713
63.8759
63.4143
62.9815
62.5727
62.1833
61.8092
61.447
61.0934
60.7457
60.4009
60.056
59.7098
59.3651
59.0244
58.6839
58.3421
57.9992
57.6568
57.3166
56.9799
56.6483
56.3233
56.0064
55.699
55.4023
55.1177
54.8456
54.5869
54.342
54.1118
53.8968
53.6981
53.5165
53.3529
53.232
170.311
168.471
165.399
162.597
157.593
152.266
147.268
142.656
138.316
134.147
130.138
126.301
122.646
119.174
115.885
112.774
109.793
106.928
104.213
101.659
99.267
97.0329
94.9503
93.0013
91.172
89.4515
87.8286
86.2913
84.8298
83.4365
82.0981
80.801
79.5403
78.3176
77.1367
76.0054
74.9249
73.8913
72.9005
71.9486
71.0326
70.1497
69.2972
68.4728
67.6743
66.9
66.148
65.4166
64.7009
63.9983
63.3093
62.6319
61.9493
61.2719
60.6018
59.942
59.2947
58.6611
58.0416
57.4369
56.8471
56.2725
55.7127
55.171
54.6499
54.1451
53.6552
53.1794
52.717
52.2676
51.831
51.4073
50.9963
50.5951
50.2218
156.658
156.115
173.884
180.735
178.083
175.755
173.145
170.643
168.073
164.884
160.657
156.115
151.545
147.075
142.781
138.695
134.824
131.158
127.699
124.452
121.415
118.578
115.93
113.456
111.141
108.971
106.933
105.008
103.166
101.4
99.7107
98.0916
96.5353
95.035
93.586
92.1825
90.8185
89.4895
88.1921
86.9239
85.6832
84.4686
83.2787
82.1126
80.9692
79.8478
78.7489
77.6719
76.6157
75.5802
74.5653
73.5706
72.596
71.6409
70.705
69.7881
68.8899
68.0103
67.1491
66.3061
65.4813
64.6745
63.8854
63.1138
62.3593
61.6216
60.8998
60.1933
59.5013
58.8232
58.1583
57.5058
56.8651
56.2353
55.6174
55.0031
317.028
325.697
328.691
325.178
317.381
306.572
293.818
279.775
265.617
251.956
239.135
227.331
216.589
206.881
198.104
190.123
182.845
176.19
170.103
164.529
159.408
154.683
150.303
146.227
142.416
138.838
135.467
132.279
129.256
126.381
123.642
121.029
118.532
116.142
113.851
111.65
109.527
107.478
105.503
103.597
101.757
99.9782
98.2572
96.5898
94.9721
93.4009
91.8731
90.3864
88.9385
87.5276
86.1523
84.8114
83.504
82.2297
80.9877
79.7777
78.599
77.4513
76.3341
75.2468
74.1891
73.1605
72.1605
71.1884
70.2435
69.3247
68.4316
67.5634
66.7192
65.898
65.099
64.3212
63.5637
62.8257
62.107
61.4025
143.352
152.302
160.293
167.558
174.15
180.003
185.025
189.118
192.216
194.295
195.379
195.547
194.906
193.538
191.537
189.053
186.219
183.158
179.933
176.59
173.179
169.74
166.307
162.907
159.558
156.277
153.073
149.945
146.813
143.699
140.617
137.581
134.6
131.683
128.836
126.065
123.374
120.764
118.235
115.789
113.422
111.135
108.924
106.788
104.724
102.729
100.801
98.9347
97.1286
95.3812
93.6909
92.0564
90.4763
88.9493
87.4738
86.0485
84.672
83.3425
82.0582
80.8174
79.6185
78.4601
77.3405
76.2583
75.2119
74.2
73.2213
72.2744
71.3582
70.4718
69.6143
68.7849
67.9831
67.2084
66.4609
65.7386
60.4955
63.3875
65.9692
68.3828
70.7524
73.1567
75.6321
78.1841
80.7979
83.4585
86.0938
88.6295
91.0279
93.251
95.2646
97.0433
98.5716
99.8446
100.869
101.652
102.209
102.561
102.728
102.734
102.603
102.354
102.007
101.582
101.158
100.732
100.302
99.8686
99.4294
98.9832
98.5282
98.0547
97.5105
96.8974
96.2213
95.4882
94.7037
93.8737
93.0037
92.0996
91.167
90.2112
89.2378
88.2515
87.2567
86.2575
85.2576
84.26
83.2676
82.2829
81.308
80.3449
79.3952
78.4604
77.5417
76.6402
75.7567
74.8917
74.0452
73.2163
72.4054
71.6131
70.8393
70.0843
69.3482
68.6312
67.9334
67.2552
66.597
65.96
65.3468
64.7557
34.1091
34.9133
35.6502
36.3702
37.101
37.863
38.6657
39.5206
40.4304
41.3957
42.4072
43.4552
44.5277
45.6108
46.69
47.7505
48.7785
49.7611
50.6872
51.5473
52.3346
53.0441
53.6724
54.2179
54.6816
55.0655
55.3739
55.6136
55.791
55.9122
55.9832
56.0106
56.0005
55.9587
55.8964
55.864
55.8637
55.8943
55.954
56.0412
56.151
56.262
56.3728
56.4835
56.5938
56.7033
56.8105
56.9141
57.0127
57.1052
57.191
57.2688
57.3369
57.394
57.4386
57.4697
57.4863
57.4877
57.4735
57.4435
57.3978
57.3364
57.2598
57.1682
57.0623
56.9428
56.8107
56.667
56.5131
56.3503
56.1801
56.0042
55.8246
55.6435
55.4551
24.4668
24.7265
24.9704
25.2071
25.4439
25.6869
25.9408
26.2092
26.4947
26.799
27.1226
27.4652
27.8257
28.2021
28.5915
28.9909
29.3964
29.8042
30.2102
30.6103
31.0004
31.3769
31.7362
32.0755
32.3921
32.6842
32.9501
33.1887
33.3993
33.5819
33.7362
33.8633
33.9647
34.044
34.1036
34.1473
34.1781
34.1992
34.2136
34.2238
34.2353
34.2689
34.3259
34.4061
34.5088
34.6304
34.7652
34.9135
35.0752
35.2497
35.4351
35.6305
35.8353
36.0484
36.2689
36.4955
36.7269
36.9618
37.1989
37.4366
37.6736
37.9086
38.1401
38.3671
38.5884
38.803
39.0102
39.2095
39.4005
39.5831
39.7576
39.9243
40.0843
40.237
40.3783
20.9979
21.0795
21.1546
21.2259
21.2957
21.366
21.4387
21.5149
21.5957
21.6819
21.7738
21.8719
21.976
22.086
22.2016
22.3221
22.4469
22.5751
22.7057
22.8377
22.9698
23.1009
23.2299
23.3555
23.4767
23.5927
23.7025
23.8056
23.9012
23.989
24.0687
24.1401
24.2034
24.2589
24.3069
24.348
24.3827
24.4119
24.4363
24.4566
24.4736
24.4893
24.5054
24.523
24.5429
24.5691
24.6074
24.6577
24.7199
24.7918
24.8716
24.9593
25.0549
25.1585
25.2697
25.3883
25.5139
25.646
25.7843
25.9281
26.0769
26.23
26.3868
26.5468
26.7092
26.8735
27.0393
27.2059
27.3731
27.5406
27.7079
27.8746
28.0393
28.2017
28.359
19.7169
19.7358
19.7502
19.7615
19.7706
19.7785
19.7861
19.7938
19.8022
19.8117
19.8225
19.8348
19.8486
19.8639
19.8807
19.8989
19.9183
19.9386
19.9597
19.9813
20.0031
20.0248
20.0459
20.0662
20.0853
20.103
20.1191
20.1332
20.1452
20.1549
20.1623
20.1673
20.1698
20.17
20.168
20.164
20.1581
20.1506
20.1418
20.1321
20.1219
20.1114
20.1009
20.0907
20.0812
20.0729
20.0662
20.0618
20.061
20.0654
20.0766
20.0945
20.1186
20.148
20.1829
20.2231
20.2683
20.3181
20.3717
20.4288
20.489
20.5521
20.618
20.6864
20.7572
20.8301
20.9051
20.982
21.0608
21.1413
21.2235
21.3071
21.3915
21.4763
21.5598
19.3617
19.3586
19.3514
19.341
19.3279
19.3129
19.2964
19.2787
19.2603
19.2413
19.222
19.2024
19.1826
19.1627
19.1426
19.1223
19.1017
19.0808
19.0594
19.0375
19.0151
18.9919
18.9679
18.943
18.9171
18.8901
18.8618
18.8323
18.8016
18.7695
18.7363
18.7018
18.6662
18.6295
18.5918
18.5533
18.5142
18.4745
18.4344
18.3942
18.3539
18.3139
18.2743
18.2353
18.1971
18.1598
18.1238
18.0892
18.0559
18.0243
17.9944
17.9665
17.9414
17.9201
17.9024
17.8883
17.8775
17.8701
17.866
17.865
17.8671
17.872
17.8797
17.89
17.9027
17.9176
17.9348
17.9539
17.9749
17.9978
18.0223
18.0483
18.0756
18.1037
18.1317
19.4195
19.4107
19.3977
19.3811
19.3614
19.3392
19.3148
19.2886
19.2609
19.2318
19.2015
19.1702
19.1378
19.1045
19.0702
19.035
18.9988
18.9617
18.9234
18.8841
18.8437
18.8021
18.7593
18.7152
18.6699
18.6232
18.5753
18.526
18.4754
18.4236
18.3704
18.3159
18.2604
18.2037
18.1461
18.0877
18.0287
17.9691
17.9092
17.8491
17.7889
17.729
17.6693
17.6102
17.5517
17.494
17.4373
17.3816
17.3271
17.2738
17.222
17.1716
17.1228
17.0756
17.03
16.9864
16.9451
16.906
16.8691
16.8343
16.8016
16.771
16.7423
16.7156
16.6906
16.6674
16.6459
16.6259
16.6074
16.5904
16.5746
16.5601
16.5465
16.5337
16.5211
19.5939
19.5838
19.5692
19.5508
19.529
19.5043
19.4772
19.4478
19.4165
19.3835
19.3489
19.3129
19.2754
19.2367
19.1967
19.1554
19.1127
19.0688
19.0235
18.9768
18.9288
18.8793
18.8284
18.776
18.7221
18.6668
18.6099
18.5516
18.4919
18.4307
18.3682
18.3044
18.2393
18.173
18.1057
18.0376
17.9686
17.8992
17.8293
17.7591
17.6889
17.6188
17.5489
17.4795
17.4106
17.3425
17.2751
17.2087
17.1434
17.0793
17.0163
16.9546
16.8942
16.8352
16.7775
16.7212
16.6664
16.6132
16.5617
16.5119
16.4638
16.4172
16.3721
16.3285
16.2863
16.2454
16.2058
16.1673
16.13
16.0938
16.0585
16.0242
15.9906
15.958
15.9244
19.563
19.5515
19.5356
19.5159
19.4929
19.467
19.4386
19.408
19.3754
19.3411
19.3053
19.2679
19.2292
19.1891
19.1477
19.105
19.061
19.0157
18.9691
18.9211
18.8717
18.8209
18.7686
18.7149
18.6598
18.6032
18.5452
18.4858
18.425
18.3629
18.2995
18.2349
18.1692
18.1024
18.0348
17.9664
17.8975
17.8281
17.7585
17.6889
17.6194
17.5501
17.4813
17.4131
17.3456
17.279
17.2134
17.1489
17.0856
17.0236
16.963
16.9038
16.846
16.7897
16.7348
16.6814
16.6296
16.5796
16.5313
16.4847
16.4397
16.3964
16.3545
16.3141
16.2751
16.2373
16.2008
16.1654
16.1311
16.0979
16.0656
16.0342
16.0036
15.9738
15.9431
19.3145
19.3022
19.2861
19.2666
19.2443
19.2195
19.1926
19.1638
19.1335
19.1017
19.0687
19.0345
18.9992
18.9629
18.9254
18.887
18.8474
18.8068
18.765
18.7221
18.6781
18.6329
18.5865
18.5388
18.49
18.44
18.3888
18.3365
18.283
18.2284
18.1729
18.1164
18.0592
18.0014
17.9431
17.8844
17.8256
17.7668
17.7082
17.6499
17.5922
17.5352
17.4791
17.424
17.3701
17.3174
17.2662
17.2166
17.1687
17.1225
17.0781
17.0356
16.995
16.9567
16.9208
16.8874
16.8562
16.8275
16.8009
16.7766
16.7543
16.7341
16.7157
16.6991
16.6841
16.6706
16.6586
16.6478
16.6383
16.6299
16.6225
16.6159
16.61
16.6046
16.599
19.1763
19.1669
19.1542
19.1388
19.1212
19.1019
19.0811
19.0592
19.0364
19.0128
18.9885
18.9637
18.9383
18.9124
18.886
18.8589
18.8312
18.8028
18.7737
18.7438
18.713
18.6814
18.6488
18.6153
18.5808
18.5453
18.5088
18.4715
18.4335
18.3947
18.3554
18.3158
18.2758
18.2358
18.1959
18.1562
18.117
18.0784
18.0406
18.0038
17.9681
17.9339
17.9013
17.8705
17.8416
17.8147
17.79
17.7683
17.7497
17.7349
17.7238
17.7167
17.7134
17.7138
17.7179
17.7255
17.7363
17.7501
17.7668
17.7859
17.8074
17.8309
17.8561
17.883
17.9111
17.9405
17.9708
18.0019
18.0336
18.0656
18.0976
18.1291
18.16
18.1901
18.2188
19.4201
19.4269
19.4306
19.432
19.4317
19.4305
19.4286
19.4264
19.4241
19.422
19.42
19.4182
19.4165
19.415
19.4134
19.4117
19.4097
19.4073
19.4044
19.4007
19.3962
19.3907
19.3843
19.3768
19.3683
19.3589
19.3485
19.3374
19.3256
19.3133
19.3006
19.2879
19.2752
19.2629
19.2512
19.2404
19.2306
19.222
19.2149
19.2095
19.2062
19.2052
19.207
19.213
19.225
19.2431
19.2672
19.297
19.3326
19.3738
19.4206
19.4727
19.5299
19.5918
19.6577
19.7273
19.7996
19.874
19.9496
20.0258
20.1026
20.18
20.2578
20.3362
20.4147
20.4933
20.5716
20.6494
20.7267
20.8033
20.8793
20.9548
21.0296
21.1034
21.175
20.4671
20.516
20.5608
20.6029
20.6436
20.684
20.7247
20.7662
20.809
20.853
20.8983
20.9447
20.9919
21.0397
21.0877
21.1356
21.1828
21.2291
21.2742
21.3175
21.3591
21.3986
21.4359
21.4708
21.5035
21.5341
21.5624
21.5886
21.613
21.6358
21.6573
21.6778
21.6978
21.7175
21.7376
21.7589
21.7832
21.8109
21.8427
21.8795
21.9257
21.9813
22.0465
22.1208
22.2028
22.2925
22.3894
22.493
22.6027
22.7184
22.8403
22.9682
23.1017
23.2407
23.3846
23.5329
23.6852
23.8409
23.9995
24.1601
24.3225
24.4855
24.648
24.809
24.9675
25.1229
25.2746
25.4222
25.5656
25.7047
25.8398
25.971
26.0984
26.2218
26.3396
23.1887
23.335
23.4719
23.6033
23.7327
23.8624
23.9941
24.1286
24.2662
24.4068
24.5498
24.6945
24.84
24.9853
25.129
25.2703
25.4079
25.5408
25.668
25.7887
25.9022
26.008
26.1058
26.1954
26.2769
26.3517
26.4204
26.4836
26.5419
26.5964
26.6484
26.6993
26.7499
26.8008
26.8534
26.9147
26.9901
27.0797
27.1835
27.3014
27.4298
27.569
27.7196
27.8817
28.0552
28.2401
28.4363
28.6437
28.862
29.0906
29.329
29.5765
29.8323
30.0958
30.3648
30.6374
30.9115
31.1852
31.4567
31.7241
31.9858
32.2402
32.4861
32.7219
32.9469
33.1605
33.3617
33.5504
33.7271
33.8922
34.0463
34.1902
34.3248
34.4504
34.566
29.8954
30.2939
30.6597
31.0064
31.3447
31.6823
32.0238
32.3704
32.7215
33.0757
33.4307
33.7844
34.1327
34.4714
34.7967
35.1068
35.3986
35.6694
35.9171
36.1402
36.3377
36.51
36.6588
36.7859
36.8932
36.9831
37.0577
37.119
37.1691
37.2172
37.2877
37.3804
37.4955
37.6328
37.7923
37.9679
38.1553
38.3555
38.5694
38.7977
39.0405
39.298
39.5704
39.8558
40.1521
40.4576
40.7709
41.0904
41.4142
41.7404
42.0667
42.3911
42.7114
43.0252
43.3303
43.6246
43.9063
44.1735
44.4248
44.6587
44.8743
45.0707
45.2472
45.4035
45.5394
45.655
45.7506
45.8269
45.8845
45.9243
45.9479
45.9567
45.9525
45.9371
45.9086
48.4741
49.6354
50.6554
51.5921
52.4891
53.3718
54.2527
55.1349
56.0119
56.872
57.7043
58.4916
59.2187
59.8788
60.4666
60.9785
61.4132
61.7717
62.0558
62.2685
62.413
62.51
62.6225
62.7506
62.894
63.0523
63.225
63.4118
63.6124
63.8181
64.0045
64.1728
64.3241
64.4594
64.5791
64.6834
64.7719
64.8446
64.9012
64.9416
64.9656
64.973
64.9638
64.938
64.8962
64.8383
64.7642
64.6736
64.5665
64.4428
64.3024
64.1455
63.9721
63.7824
63.5768
63.3557
63.1198
62.8694
62.6052
62.3277
62.0375
61.7353
61.4216
61.0973
60.7631
60.4188
60.0657
59.7054
59.3394
58.9695
58.5974
58.2248
57.8539
57.487
57.1249
108.392
112.271
115.638
118.685
121.54
124.243
126.785
129.13
131.147
132.77
133.987
134.821
135.382
135.682
135.735
135.565
135.195
134.65
133.953
133.126
132.19
131.143
129.938
128.595
127.133
125.574
123.936
122.234
120.484
118.697
116.886
115.061
113.231
111.405
109.59
107.792
106.017
104.27
102.555
100.874
99.2296
97.6244
96.059
94.5344
93.0508
91.6081
90.2058
88.8434
87.519
86.231
84.979
83.7624
82.5805
81.4321
80.3164
79.2322
78.1783
77.1536
76.1571
75.1877
74.2447
73.3276
72.4358
71.5686
70.7255
69.9057
69.1088
68.3345
67.5822
66.8517
66.1429
65.4557
64.7904