/*--------------------------------*- C++ -*----------------------------------*\
  =========                 |
  \\      /  F ield         | OpenFOAM: The Open Source CFD Toolbox
   \\    /   O peration     | Website:  https://openfoam.org
    \\  /    A nd           | Version:  13
     \\/     M anipulation  |
\*---------------------------------------------------------------------------*/
FoamFile
{
    format      ascii;
    class       volScalarField;
    location    "200";
    object      p;
}
// * * * * * * * * * * * * * * * * * * * * * * * * * * * * * * * * * * * * * //

dimensions      [0 2 -2 0 0 0 0];

internalField   nonuniform List<scalar> 
173327
(
-12.2494
-12.3054
-12.3284
-12.3202
-12.2826
-12.2179
-12.1278
-12.0144
-11.8795
-11.7251
-11.5534
-11.3666
-11.1666
-10.9552
-10.7342
-10.505
-10.2691
-10.0281
-9.78297
-9.53496
-9.28492
-9.03366
-8.78192
-8.53036
-8.27956
-8.03009
-7.78245
-7.53713
-7.29453
-7.05496
-6.81864
-6.58572
-6.35637
-6.13072
-5.9089
-5.69098
-5.47703
-5.26713
-5.0614
-4.85995
-4.66278
-4.46982
-4.28097
-4.0962
-3.91557
-3.73915
-3.56706
-3.39929
-3.23581
-3.07642
-2.92107
-2.7696
-2.6221
-2.47848
-2.33887
-2.20306
-2.07102
-1.9425
-1.81757
-1.69633
-1.57879
-1.46487
-1.35411
-1.24634
-1.14117
-1.0387
-0.938728
-0.841415
-0.746514
-0.654079
-0.56371
-0.475288
-0.388315
-0.302604
-0.217805
-0.133861
-0.0517104
-12.2904
-12.345
-12.3663
-12.3561
-12.3165
-12.2494
-12.1569
-12.0411
-11.9038
-11.7471
-11.5732
-11.3841
-11.1819
-10.9685
-10.7456
-10.5146
-10.2772
-10.0346
-9.78813
-9.53883
-9.28763
-9.03533
-8.78266
-8.53026
-8.27874
-8.02861
-7.78038
-7.53449
-7.29135
-7.05127
-6.81449
-6.58118
-6.3515
-6.12557
-5.90352
-5.68541
-5.47129
-5.26123
-5.05534
-4.85371
-4.65639
-4.46331
-4.27438
-4.08958
-3.90892
-3.73248
-3.56033
-3.39252
-3.22898
-3.06962
-2.9143
-2.76294
-2.6155
-2.47201
-2.33244
-2.19677
-2.06483
-1.93649
-1.81173
-1.69064
-1.57326
-1.45942
-1.34887
-1.24125
-1.13638
-1.03412
-0.934459
-0.837344
-0.742745
-0.650503
-0.560448
-0.47227
-0.385687
-0.300367
-0.216159
-0.132956
-0.0517139
-12.3725
-12.4246
-12.4426
-12.4287
-12.3848
-12.3132
-12.2161
-12.0955
-11.9535
-11.7922
-11.6138
-11.4204
-11.214
-10.9966
-10.77
-10.5356
-10.295
-10.0495
-9.80038
-9.54861
-9.29515
-9.0408
-8.78628
-8.53223
-8.27922
-8.02776
-7.77832
-7.53132
-7.28716
-7.04613
-6.80848
-6.57439
-6.34402
-6.1175
-5.89493
-5.67638
-5.46188
-5.25149
-5.04528
-4.84335
-4.64572
-4.45237
-4.26325
-4.07831
-3.89757
-3.72106
-3.54885
-3.38096
-3.21736
-3.05797
-2.90268
-2.75141
-2.60409
-2.46073
-2.32133
-2.18582
-2.05411
-1.92606
-1.80164
-1.68087
-1.56375
-1.45016
-1.33985
-1.23256
-1.12809
-1.02632
-0.927173
-0.830619
-0.736578
-0.644916
-0.555423
-0.467843
-0.381885
-0.297336
-0.213954
-0.131652
-0.0512662
-12.497
-12.5449
-12.558
-12.5382
-12.4879
-12.4094
-12.3052
-12.1774
-12.0282
-11.8598
-11.6746
-11.4746
-11.2619
-11.0386
-10.8063
-10.5668
-10.3214
-10.0716
-9.81842
-9.56296
-9.30613
-9.04872
-8.79143
-8.5349
-8.27966
-8.0262
-7.77496
-7.52633
-7.28068
-7.03828
-6.79938
-6.56417
-6.3328
-6.1054
-5.88206
-5.66284
-5.44777
-5.23688
-5.03022
-4.82786
-4.62984
-4.43614
-4.24674
-4.0616
-3.88072
-3.70413
-3.53183
-3.36387
-3.20021
-3.0408
-2.88556
-2.7344
-2.58725
-2.4441
-2.30493
-2.1697
-2.03831
-1.91067
-1.78669
-1.66636
-1.54966
-1.43645
-1.32655
-1.21975
-1.11587
-1.01479
-0.91642
-0.820689
-0.727502
-0.636708
-0.548099
-0.461429
-0.37646
-0.292973
-0.210779
-0.129663
-0.0504858
-12.665
-12.7073
-12.7133
-12.6855
-12.6264
-12.5386
-12.4246
-12.287
-12.128
-11.9501
-11.7556
-11.5467
-11.3256
-11.0943
-10.8546
-10.6082
-10.3565
-10.1009
-9.84236
-9.58203
-9.32076
-9.05932
-8.79839
-8.53856
-8.28037
-8.02425
-7.77063
-7.51985
-7.27224
-7.02807
-6.78756
-6.5509
-6.31823
-6.08968
-5.86532
-5.6452
-5.42935
-5.21778
-5.01053
-4.80762
-4.6091
-4.41497
-4.22521
-4.0398
-3.85873
-3.68199
-3.5096
-3.34156
-3.17785
-3.01845
-2.86327
-2.71225
-2.56531
-2.42242
-2.28356
-2.14868
-2.0177
-1.89053
-1.76709
-1.64733
-1.53117
-1.41852
-1.30922
-1.2031
-1.10001
-0.999827
-0.902442
-0.807762
-0.715673
-0.626012
-0.538576
-0.453134
-0.36946
-0.287358
-0.206602
-0.126984
-0.0493232
-12.8786
-12.9134
-12.9102
-12.8719
-12.8013
-12.7013
-12.5748
-12.4245
-12.253
-12.0629
-11.8565
-11.6363
-11.4046
-11.1633
-10.9143
-10.6593
-10.3997
-10.1367
-9.87158
-9.6052
-9.33843
-9.07199
-8.80654
-8.54264
-8.28077
-8.02136
-7.76478
-7.51133
-7.26132
-7.01498
-6.77252
-6.5341
-6.29986
-6.06989
-5.84428
-5.62305
-5.40622
-5.1938
-4.9858
-4.78224
-4.58313
-4.38848
-4.1983
-4.01255
-3.83123
-3.65432
-3.48181
-3.3137
-3.14997
-2.99059
-2.83551
-2.68466
-2.53797
-2.3954
-2.25691
-2.12246
-1.99198
-1.86537
-1.74256
-1.62348
-1.50803
-1.39612
-1.28763
-1.18241
-1.08032
-0.981243
-0.885062
-0.791663
-0.700919
-0.612662
-0.526699
-0.442808
-0.360763
-0.280354
-0.201351
-0.123546
-0.0477554
-13.1404
-13.1655
-13.1506
-13.0989
-13.0137
-12.8985
-12.7563
-12.5902
-12.4032
-12.198
-11.9772
-11.7433
-11.4985
-11.2451
-10.9849
-10.7195
-10.4503
-10.1787
-9.90564
-9.63204
-9.35872
-9.08636
-8.81556
-8.54683
-8.28062
-8.0173
-7.75721
-7.50062
-7.24778
-6.99891
-6.75416
-6.51369
-6.27761
-6.046
-5.81891
-5.59637
-5.37839
-5.16496
-4.95607
-4.75173
-4.55195
-4.35672
-4.16604
-3.97991
-3.79828
-3.62116
-3.44851
-3.28033
-3.11659
-2.95727
-2.80232
-2.65167
-2.50528
-2.36308
-2.22502
-2.09108
-1.96118
-1.83523
-1.71316
-1.59487
-1.48029
-1.36931
-1.26183
-1.15771
-1.05684
-0.959077
-0.864317
-0.772433
-0.683282
-0.596703
-0.512512
-0.430488
-0.350401
-0.272024
-0.19511
-0.119463
-0.045891
-13.4535
-13.4664
-13.4367
-13.3684
-13.2652
-13.1311
-12.9697
-12.7845
-12.5788
-12.3554
-12.1173
-11.867
-11.6069
-11.3392
-11.0657
-10.7882
-10.5079
-10.2261
-9.94386
-9.66191
-9.38104
-9.10185
-8.82489
-8.55061
-8.27941
-8.01161
-7.7475
-7.48732
-7.23125
-6.97949
-6.73215
-6.48935
-6.25118
-6.0177
-5.78894
-5.56491
-5.34561
-5.13101
-4.92111
-4.71589
-4.51534
-4.31946
-4.12823
-3.94165
-3.75969
-3.58231
-3.40951
-3.24125
-3.07752
-2.91829
-2.7635
-2.61311
-2.46705
-2.32527
-2.18773
-2.05438
-1.92514
-1.79995
-1.67872
-1.56137
-1.44781
-1.33795
-1.23167
-1.12886
-1.0294
-0.93317
-0.840054
-0.749919
-0.662619
-0.577999
-0.495877
-0.416031
-0.338233
-0.262234
-0.187771
-0.114656
-0.0436824
-13.8221
-13.8196
-13.7716
-13.6826
-13.5574
-13.4004
-13.2159
-13.0078
-12.7797
-12.5349
-12.2764
-12.007
-11.729
-11.4448
-11.1561
-10.8646
-10.5716
-10.2783
-9.98551
-9.69411
-9.4047
-9.11782
-8.83394
-8.55345
-8.27666
-8.00386
-7.73526
-7.47106
-7.2114
-6.95642
-6.7062
-6.46082
-6.22034
-5.98479
-5.75418
-5.52849
-5.30772
-5.09183
-4.8808
-4.6746
-4.4732
-4.2766
-4.08477
-3.89769
-3.71535
-3.5377
-3.36473
-3.1964
-3.03269
-2.87357
-2.71898
-2.56888
-2.42322
-2.28193
-2.14497
-2.01229
-1.88382
-1.75949
-1.63922
-1.52294
-1.41055
-1.30196
-1.19707
-1.09576
-0.997925
-0.903447
-0.812203
-0.724057
-0.638872
-0.556494
-0.476736
-0.399387
-0.324215
-0.250951
-0.179318
-0.109125
-0.0411432
-14.2509
-14.2294
-14.1587
-14.0446
-13.8925
-13.7079
-13.4958
-13.2605
-13.0062
-12.7363
-12.4541
-12.1625
-11.8641
-11.5609
-11.255
-10.9477
-10.6404
-10.3342
-10.0297
-9.72783
-9.42896
-9.13359
-8.84209
-8.55475
-8.27183
-7.99354
-7.72003
-7.45143
-7.18785
-6.92935
-6.67599
-6.42781
-6.18481
-5.947
-5.71437
-5.48689
-5.26452
-5.04722
-4.83496
-4.62768
-4.42536
-4.22797
-4.03549
-3.84788
-3.66512
-3.48717
-3.31402
-3.14562
-2.98195
-2.82296
-2.66862
-2.51886
-2.37365
-2.23291
-2.09661
-1.96468
-1.83708
-1.71372
-1.59454
-1.47946
-1.36839
-1.26125
-1.15792
-1.0583
-0.962287
-0.869768
-0.780621
-0.694714
-0.611909
-0.532056
-0.45497
-0.380446
-0.308247
-0.238089
-0.16968
-0.10282
-0.0382465
-14.7462
-14.7009
-14.6023
-14.4574
-14.273
-14.0554
-13.8104
-13.5432
-13.2581
-12.9591
-12.6497
-12.3329
-12.0111
-11.6867
-11.3613
-11.0365
-10.7134
-10.3929
-10.0756
-9.76218
-9.453
-9.14838
-8.8486
-8.55386
-8.26432
-7.98011
-7.70131
-7.42799
-7.16019
-6.89792
-6.64119
-6.38998
-6.14429
-5.90407
-5.66928
-5.43987
-5.2158
-4.99699
-4.7834
-4.57497
-4.37166
-4.17343
-3.98024
-3.79206
-3.60886
-3.43061
-3.25727
-3.0888
-2.92518
-2.76636
-2.6123
-2.46294
-2.31823
-2.17811
-2.04255
-1.91147
-1.78483
-1.66256
-1.54459
-1.43085
-1.32125
-1.2157
-1.11411
-1.01638
-0.922393
-0.832047
-0.745225
-0.661802
-0.581637
-0.504588
-0.430481
-0.359112
-0.290242
-0.223574
-0.1588
-0.0957053
-0.0349793
-15.3152
-15.2404
-15.1075
-14.9252
-14.7018
-14.4448
-14.161
-13.8563
-13.5355
-13.2031
-12.8625
-12.517
-12.1691
-11.8209
-11.4741
-11.1299
-10.7894
-10.4533
-10.1221
-9.79625
-9.47596
-9.16143
-8.85279
-8.55015
-8.25356
-7.96305
-7.67863
-7.4003
-7.12802
-6.86175
-6.60145
-6.34706
-6.09851
-5.85573
-5.61866
-5.38722
-5.16134
-4.94094
-4.72594
-4.51629
-4.31193
-4.11281
-3.91888
-3.7301
-3.54644
-3.36786
-3.19433
-3.02582
-2.86227
-2.70365
-2.5499
-2.40099
-2.25685
-2.11743
-1.98268
-1.85254
-1.72697
-1.60591
-1.48928
-1.37701
-1.26903
-1.16525
-1.06558
-0.969914
-0.878157
-0.790201
-0.705935
-0.625239
-0.547981
-0.474019
-0.403197
-0.335316
-0.270129
-0.207333
-0.146609
-0.0877332
-0.0313217
-15.9672
-15.8555
-15.6803
-15.4524
-15.1821
-14.8782
-14.5487
-14.2002
-13.8382
-13.4674
-13.0916
-12.7139
-12.3367
-11.9622
-11.5917
-11.2264
-10.8671
-10.5142
-10.1681
-9.82893
-9.49683
-9.1718
-8.85382
-8.54286
-8.23886
-7.94175
-7.65145
-7.36787
-7.09091
-6.82047
-6.55644
-6.29871
-6.04718
-5.80174
-5.56229
-5.32872
-5.10095
-4.87888
-4.66242
-4.4515
-4.24603
-4.04598
-3.85127
-3.66187
-3.47773
-3.29883
-3.12511
-2.95655
-2.7931
-2.63471
-2.48133
-2.33292
-2.18941
-2.05076
-1.91691
-1.78781
-1.66342
-1.54368
-1.42852
-1.31787
-1.21166
-1.10981
-1.01223
-0.918826
-0.829498
-0.744145
-0.662662
-0.584939
-0.510852
-0.440265
-0.373035
-0.308976
-0.247837
-0.189306
-0.133058
-0.0788675
-0.0272542
-16.7134
-16.5559
-16.3285
-16.0452
-15.7183
-15.3587
-14.9753
-14.5759
-14.1664
-13.7518
-13.336
-12.9222
-12.5127
-12.1092
-11.713
-11.3248
-10.9453
-10.5745
-10.2125
-9.85935
-9.51484
-9.1788
-8.85106
-8.53143
-8.21973
-7.91576
-7.61936
-7.33034
-7.04853
-6.77376
-6.50586
-6.24467
-5.99005
-5.74185
-5.49993
-5.26416
-5.03443
-4.81062
-4.59264
-4.38039
-4.17379
-3.97276
-3.77725
-3.58721
-3.4026
-3.22336
-3.04947
-2.88088
-2.71756
-2.55944
-2.40648
-2.25863
-2.11582
-1.97802
-1.84516
-1.7172
-1.5941
-1.4758
-1.36224
-1.25336
-1.14908
-1.04933
-0.95401
-0.863047
-0.776345
-0.693807
-0.615334
-0.540825
-0.470168
-0.403242
-0.339908
-0.280001
-0.223275
-0.169411
-0.118079
-0.0690605
-0.0227524
-17.5672
-17.3519
-17.0601
-16.7092
-16.3144
-15.8885
-15.4421
-14.9835
-14.5194
-14.055
-13.5943
-13.1403
-12.695
-12.2599
-11.8358
-11.4232
-11.0221
-10.6324
-10.2538
-9.88608
-9.5287
-9.18131
-8.84353
-8.515
-8.19541
-7.88444
-7.58181
-7.28724
-7.00048
-6.72129
-6.44945
-6.18473
-5.92695
-5.67591
-5.43146
-5.19343
-4.96169
-4.7361
-4.51654
-4.30292
-4.09514
-3.89311
-3.69677
-3.50608
-3.32097
-3.1414
-2.96735
-2.79875
-2.63558
-2.47777
-2.32528
-2.17804
-2.03602
-1.89914
-1.76737
-1.64066
-1.51896
-1.40223
-1.2904
-1.18343
-1.08123
-0.983736
-0.890865
-0.802533
-0.718657
-0.639147
-0.563913
-0.492862
-0.425897
-0.36291
-0.303778
-0.248344
-0.196385
-0.147591
-0.101619
-0.0582703
-0.0177853
-18.5469
-18.259
-17.8872
-17.4537
-16.9771
-16.4724
-15.9518
-15.4245
-14.8977
-14.3768
-13.8658
-13.3673
-12.8829
-12.4135
-11.9595
-11.5208
-11.0969
-10.6874
-10.2916
-9.9087
-9.53805
-9.17898
-8.83089
-8.49325
-8.16557
-7.84742
-7.53841
-7.23816
-6.94635
-6.66266
-6.38679
-6.11847
-5.85747
-5.60355
-5.35651
-5.11618
-4.88238
-4.65497
-4.43381
-4.2188
-4.00981
-3.80678
-3.60961
-3.41826
-3.23266
-3.05279
-2.87859
-2.71003
-2.54705
-2.38961
-2.23764
-2.0911
-1.94993
-1.81408
-1.6835
-1.55814
-1.43797
-1.32294
-1.21299
-1.10807
-1.0081
-0.91303
-0.822774
-0.737256
-0.656397
-0.580118
-0.508343
-0.440987
-0.377968
-0.319197
-0.264571
-0.213944
-0.167111
-0.123783
-0.0836183
-0.0464244
-0.0122925
-19.6729
-19.2928
-18.8216
-18.2872
-17.7118
-17.1132
-16.505
-15.8977
-15.299
-14.7141
-14.1467
-13.599
-13.0721
-12.566
-12.0802
-11.614
-11.1666
-10.7368
-10.3233
-9.92512
-9.54115
-9.17046
-8.8122
-8.4656
-8.12995
-7.80469
-7.4893
-7.18336
-6.88645
-6.5982
-6.31825
-6.04628
-5.78199
-5.52513
-5.27544
-5.03274
-4.79682
-4.56752
-4.34469
-4.1282
-3.91795
-3.71384
-3.5158
-3.32376
-3.13766
-2.95747
-2.78315
-2.61463
-2.45189
-2.29486
-2.14348
-1.99771
-1.85748
-1.72275
-1.59346
-1.46959
-1.35108
-1.23789
-1.12997
-1.02727
-0.929713
-0.837243
-0.749786
-0.667271
-0.589628
-0.516788
-0.448684
-0.385248
-0.326413
-0.272108
-0.222253
-0.176733
-0.135366
-0.0978824
-0.063957
-0.0333566
-0.00613667
-20.9802
-20.4829
-19.8876
-19.2291
-18.5339
-17.8227
-17.111
-16.4105
-15.729
-15.0715
-14.4409
-13.8387
-13.2649
-12.7187
-12.199
-11.7039
-11.2317
-10.7806
-10.349
-9.93504
-9.53743
-9.1549
-8.78634
-8.43072
-8.0871
-7.75473
-7.43299
-7.12138
-6.81941
-6.52663
-6.24263
-5.96701
-5.69945
-5.43963
-5.18729
-4.9422
-4.70416
-4.47299
-4.24853
-4.03064
-3.81917
-3.61402
-3.41511
-3.22239
-3.03581
-2.85533
-2.6809
-2.51248
-2.35001
-2.19346
-2.04274
-1.89782
-1.75863
-1.62512
-1.49725
-1.37497
-1.25825
-1.14703
-1.04128
-0.940937
-0.84595
-0.756254
-0.671781
-0.592464
-0.51824
-0.449049
-0.384835
-0.325544
-0.271125
-0.221528
-0.176697
-0.13655
-0.100941
-0.0696375
-0.042368
-0.0188768
0.000808584
-21.8444
-21.096
-20.2861
-19.4462
-18.6002
-17.7661
-16.9567
-16.1797
-15.4396
-14.7387
-14.077
-13.4534
-12.8657
-12.3112
-11.7871
-11.2905
-10.8187
-10.3693
-9.94014
-9.52927
-9.13506
-8.75612
-8.39123
-8.03939
-7.69972
-7.37151
-7.05412
-6.74697
-6.44956
-6.16138
-5.88202
-5.61107
-5.3482
-5.09309
-4.84549
-4.60519
-4.37202
-4.14583
-3.92642
-3.71365
-3.50739
-3.30755
-3.11409
-2.92699
-2.74619
-2.57166
-2.40335
-2.24121
-2.08518
-1.9352
-1.79121
-1.65317
-1.52101
-1.39469
-1.27416
-1.1594
-1.05035
-0.946977
-0.849216
-0.75701
-0.670295
-0.589013
-0.513103
-0.442509
-0.377177
-0.317063
-0.262128
-0.212337
-0.167663
-0.128076
-0.0935267
-0.0639108
-0.0390552
-0.018757
-0.00284732
0.00873682
-23.4288
-22.4884
-21.4926
-20.477
-19.4693
-18.4909
-17.5552
-16.6688
-15.8347
-15.0538
-14.325
-13.6455
-13.0116
-12.4191
-11.8636
-11.3411
-10.8478
-10.3805
-9.93613
-9.51228
-9.10678
-8.71787
-8.34411
-7.98432
-7.63751
-7.30286
-6.97966
-6.66728
-6.36517
-6.07277
-5.7896
-5.51522
-5.24923
-4.99132
-4.74118
-4.4986
-4.26334
-4.03523
-3.8141
-3.59983
-3.39233
-3.19152
-2.99734
-2.80975
-2.62869
-2.45413
-2.28601
-2.12428
-1.96888
-1.81975
-1.67683
-1.54006
-1.40939
-1.28477
-1.16617
-1.05353
-0.94685
-0.846063
-0.751109
-0.661919
-0.578428
-0.500584
-0.428336
-0.361631
-0.300419
-0.244662
-0.194335
-0.149418
-0.109909
-0.0758082
-0.0470999
-0.0237235
-0.00556952
0.00747022
0.0154101
0.0183472
-25.2673
-24.08
-22.8476
-21.6102
-20.4005
-19.2462
-18.162
-17.1522
-16.2173
-15.355
-14.5606
-13.8283
-13.1515
-12.5238
-11.9392
-11.3924
-10.8787
-10.394
-9.93489
-9.49824
-9.08154
-8.68269
-8.29999
-7.93206
-7.5778
-7.2363
-6.90683
-6.58873
-6.28139
-5.98422
-5.69667
-5.41825
-5.14854
-4.88718
-4.63389
-4.38842
-4.15057
-3.92015
-3.69699
-3.48096
-3.27195
-3.06991
-2.87477
-2.68648
-2.505
-2.33028
-2.16227
-2.0009
-1.84613
-1.69788
-1.55609
-1.4207
-1.29165
-1.16887
-1.05233
-0.941973
-0.837763
-0.739651
-0.647588
-0.56152
-0.48139
-0.407142
-0.338723
-0.276085
-0.219186
-0.16799
-0.122475
-0.0826234
-0.048444
-0.019958
0.00282254
0.0199192
0.0313809
0.0372004
0.0371488
0.0312102
-27.469
-25.9851
-24.462
-22.9511
-21.5008
-20.1402
-18.875
-17.7077
-16.6403
-15.6709
-14.7923
-13.9952
-13.269
-12.6034
-11.9894
-11.4194
-10.887
-10.3868
-9.91448
-9.46643
-9.03966
-8.63175
-8.24078
-7.86526
-7.504
-7.15606
-6.82074
-6.49743
-6.18549
-5.88415
-5.59274
-5.31069
-5.03756
-4.77302
-4.51681
-4.26872
-4.02852
-3.79601
-3.57103
-3.35341
-3.14303
-2.93984
-2.74382
-2.55492
-2.3731
-2.19832
-2.03052
-1.86964
-1.71562
-1.56837
-1.42785
-1.29398
-1.16672
-1.046
-0.931769
-0.82397
-0.722538
-0.627418
-0.538561
-0.455918
-0.379436
-0.309058
-0.244737
-0.186432
-0.134103
-0.0877185
-0.0472572
-0.0127048
0.0159462
0.0387038
0.0555825
0.0666185
0.0718351
0.0711217
0.0640359
0.050376
-29.9641
-28.0737
-26.1687
-24.2636
-22.5144
-20.9605
-19.5555
-18.2751
-17.1116
-16.0597
-15.1111
-14.2557
-13.4813
-12.7757
-12.1286
-11.5311
-10.9756
-10.4558
-9.96626
-9.50281
-9.06188
-8.64071
-8.23714
-7.84962
-7.47692
-7.11808
-6.7726
-6.44009
-6.11986
-5.81091
-5.51235
-5.22352
-4.94395
-4.67342
-4.41175
-4.15873
-3.91408
-3.67756
-3.44899
-3.22823
-3.01519
-2.80981
-2.61205
-2.42187
-2.23919
-2.06393
-1.89604
-1.73542
-1.582
-1.43566
-1.29634
-1.16396
-1.03848
-0.919851
-0.807996
-0.702836
-0.6043
-0.512324
-0.426845
-0.347806
-0.275156
-0.208847
-0.148831
-0.0950584
-0.0474778
-0.00604296
0.0292684
0.0584543
0.0815351
0.0985747
0.109688
0.115029
0.114765
0.10898
0.0975167
0.0815755
-30.4075
-28.1732
-25.7567
-23.5364
-21.6202
-19.9585
-18.5145
-17.2556
-16.1539
-15.1827
-14.3198
-13.5436
-12.8371
-12.188
-11.587
-11.0267
-10.5011
-10.0053
-9.53518
-9.08748
-8.65919
-8.24806
-7.85277
-7.47206
-7.10498
-6.75173
-6.4125
-6.08647
-5.77197
-5.46782
-5.17326
-4.88779
-4.61141
-4.34417
-4.08584
-3.83595
-3.59421
-3.3605
-3.13481
-2.91718
-2.70771
-2.50642
-2.31329
-2.1282
-1.95105
-1.78171
-1.6201
-1.46609
-1.31957
-1.18042
-1.04859
-0.924012
-0.806636
-0.696371
-0.593119
-0.496799
-0.40734
-0.324676
-0.248749
-0.179517
-0.116934
-0.0609485
-0.0114887
0.0315239
0.0681494
0.0984298
0.122401
0.140131
0.151751
0.157501
0.15779
0.153245
0.144733
0.133662
0.127472
-30.2291
-28.3342
-26.5156
-24.5571
-22.6057
-20.8101
-19.2
-17.7784
-16.5433
-15.472
-14.5447
-13.7286
-12.9959
-12.3298
-11.718
-11.1521
-10.6249
-10.1282
-9.65506
-9.20068
-8.76201
-8.33817
-7.92893
-7.53192
-7.14617
-6.7751
-6.422
-6.08496
-5.76046
-5.44709
-5.14393
-4.85073
-4.56774
-4.29504
-4.03211
-3.77807
-3.53237
-3.29486
-3.06541
-2.84401
-2.63078
-2.426
-2.22984
-2.04228
-1.86322
-1.69252
-1.52999
-1.3754
-1.22861
-1.0895
-0.957995
-0.834067
-0.717673
-0.608662
-0.506873
-0.412214
-0.324625
-0.24405
-0.170452
-0.103814
-0.0441073
0.00871843
0.0547604
0.0941439
0.126922
0.153114
0.172766
0.185993
0.193013
0.19424
0.190429
0.182826
0.173445
0.166183
0.177491
-31.4085
-28.9848
-26.9155
-24.8685
-22.8942
-21.0755
-19.4408
-17.9893
-16.7159
-15.6133
-14.6612
-13.8203
-13.0654
-12.3788
-11.7472
-11.1615
-10.6141
-10.0979
-9.60759
-9.13963
-8.69283
-8.26744
-7.86313
-7.48018
-7.11583
-6.76175
-6.41191
-6.06958
-5.74058
-5.42541
-5.12381
-4.83389
-4.55256
-4.27897
-4.01296
-3.75384
-3.50191
-3.25869
-3.02465
-2.79923
-2.58235
-2.37422
-2.17485
-1.98436
-1.8029
-1.63047
-1.46674
-1.31136
-1.16404
-1.02455
-0.892788
-0.768869
-0.652847
-0.544482
-0.443567
-0.350037
-0.263836
-0.18487
-0.113108
-0.0485799
0.00871051
0.0587593
0.101765
0.138033
0.167628
0.190512
0.206689
0.216289
0.219586
0.217132
0.209979
0.199847
0.189655
0.185403
0.211281
-31.8415
-29.2818
-26.9384
-24.767
-22.7548
-20.9335
-19.3176
-17.8936
-16.6587
-15.5856
-14.6473
-13.8145
-13.065
-12.3822
-11.7532
-11.1683
-10.6203
-10.1038
-9.6147
-9.14914
-8.7051
-8.28159
-7.87691
-7.4886
-7.11334
-6.74734
-6.38877
-6.04056
-5.70581
-5.38435
-5.07575
-4.77878
-4.49168
-4.21443
-3.9471
-3.68976
-3.44222
-3.20315
-2.97204
-2.74916
-2.53454
-2.32805
-2.12989
-1.94031
-1.75941
-1.58718
-1.42354
-1.26826
-1.12115
-0.982106
-0.851002
-0.727526
-0.611419
-0.502722
-0.401545
-0.307882
-0.221655
-0.142888
-0.0715861
-0.00763886
0.0490666
0.0986074
0.140963
0.176092
0.204086
0.224994
0.238872
0.245889
0.246258
0.24057
0.230068
0.216606
0.20319
0.196861
0.222084
-31.2502
-28.3407
-25.7637
-23.5601
-21.6239
-19.9224
-18.457
-17.184
-16.0777
-15.11
-14.2549
-13.4888
-12.7926
-12.1528
-11.5595
-11.0053
-10.4836
-9.98906
-9.5177
-9.06545
-8.6306
-8.2128
-7.81151
-7.42528
-7.05183
-6.6892
-6.33663
-5.99507
-5.66519
-5.34684
-5.03978
-4.7433
-4.45634
-4.17872
-3.9107
-3.65213
-3.40275
-3.16198
-2.92956
-2.70587
-2.49098
-2.28449
-2.08634
-1.89659
-1.71526
-1.5424
-1.37807
-1.22208
-1.07418
-0.934218
-0.802071
-0.677469
-0.560272
-0.450601
-0.348623
-0.254372
-0.167757
-0.0887785
-0.0174161
0.0465323
0.103205
0.152711
0.194895
0.229387
0.256179
0.275376
0.286996
0.291067
0.287869
0.27815
0.263212
0.244686
0.224548
0.207743
0.213871
-31.4314
-27.9911
-24.8355
-22.1266
-19.9959
-18.3038
-16.9313
-15.7932
-14.8345
-14.0141
-13.299
-12.6618
-12.0822
-11.5462
-11.0433
-10.5658
-10.108
-9.6669
-9.23964
-8.82434
-8.42077
-8.02929
-7.64996
-7.28179
-6.92351
-6.57407
-6.2329
-5.90039
-5.57681
-5.26293
-4.95969
-4.66691
-4.38451
-4.11123
-3.84586
-3.58889
-3.34064
-3.10106
-2.86999
-2.6474
-2.43328
-2.22755
-2.03001
-1.84068
-1.65976
-1.48725
-1.32307
-1.16707
-1.01914
-0.879194
-0.747185
-0.623025
-0.506662
-0.398086
-0.297297
-0.204308
-0.119054
-0.0414377
0.0285967
0.0911383
0.146269
0.194066
0.234538
0.267608
0.293313
0.311656
0.322587
0.326022
0.321959
0.310708
0.293138
0.270469
0.24375
0.215096
0.194424
-35.4836
-33.0307
-29.5267
-25.888
-22.6681
-20.1777
-18.2559
-16.7159
-15.4447
-14.3846
-13.4927
-12.7344
-12.0797
-11.5019
-10.9801
-10.4992
-10.0489
-9.62305
-9.21494
-8.81788
-8.43058
-8.05385
-7.68841
-7.3339
-6.98951
-6.65424
-6.32713
-6.00731
-5.6949
-5.39057
-5.09484
-4.80786
-4.52924
-4.25857
-3.99533
-3.73869
-3.48863
-3.24579
-3.0107
-2.78365
-2.56468
-2.35376
-2.15089
-1.95599
-1.76907
-1.59023
-1.41939
-1.25644
-1.10136
-0.954138
-0.81482
-0.68345
-0.56004
-0.444556
-0.336971
-0.237204
-0.145207
-0.0610425
0.0153316
0.0840398
0.145096
0.198486
0.244213
0.282352
0.313058
0.336508
0.352739
0.361679
0.363061
0.356671
0.342633
0.321189
0.29285
0.25823
0.218215
0.174292
-35.3276
-32.4499
-29.1062
-25.7262
-22.8279
-20.5634
-18.753
-17.2225
-15.896
-14.7469
-13.7499
-12.8807
-12.1198
-11.4485
-10.8497
-10.3103
-9.82173
-9.38134
-8.97321
-8.57667
-8.18954
-7.81395
-7.45012
-7.09702
-6.75392
-6.42052
-6.09659
-5.78167
-5.47518
-5.17703
-4.88741
-4.60665
-4.33427
-4.06974
-3.81264
-3.5625
-3.31922
-3.08334
-2.8554
-2.63558
-2.4237
-2.21967
-2.02347
-1.83499
-1.65414
-1.48093
-1.31525
-1.15701
-1.0061
-0.86257
-0.726564
-0.598291
-0.477838
-0.365171
-0.260193
-0.162834
-0.0731265
0.00886691
0.0831508
0.149761
0.208693
0.259931
0.303464
0.33931
0.3675
0.387967
0.400603
0.405329
0.402084
0.390842
0.371615
0.344406
0.309226
0.265851
0.213265
0.149937
-32.3881
-29.8046
-27.0873
-24.4117
-22.015
-19.9852
-18.2759
-16.8219
-15.5827
-14.5247
-13.6137
-12.8192
-12.1185
-11.4908
-10.9164
-10.3823
-9.8795
-9.39248
-8.91677
-8.46131
-8.02782
-7.61488
-7.22065
-6.8439
-6.48394
-6.14127
-5.81624
-5.5062
-5.20685
-4.91675
-4.63639
-4.36525
-4.10229
-3.84656
-3.59767
-3.35567
-3.12061
-2.89261
-2.67186
-2.45857
-2.25274
-2.05424
-1.86298
-1.67887
-1.50188
-1.3321
-1.16965
-1.01459
-0.866969
-0.726962
-0.594787
-0.47062
-0.354459
-0.246198
-0.145741
-0.0530024
0.0320623
0.109458
0.179195
0.241287
0.295731
0.342525
0.381642
0.413108
0.436896
0.452822
0.460696
0.460386
0.451783
0.434709
0.408902
0.374099
0.329948
0.275593
0.208932
0.126239
-30.1838
-28.0273
-25.8179
-23.6386
-21.6067
-19.7992
-18.2259
-16.8587
-15.6648
-14.6152
-13.685
-12.8537
-12.1048
-11.4246
-10.8005
-10.2229
-9.68416
-9.17792
-8.70251
-8.2571
-7.83748
-7.43923
-7.05921
-6.69518
-6.34516
-6.00644
-5.6759
-5.35322
-5.04075
-4.7396
-4.44898
-4.1677
-3.89543
-3.63258
-3.37953
-3.13555
-2.89969
-2.67159
-2.45141
-2.23952
-2.03596
-1.84048
-1.65281
-1.47279
-1.30035
-1.13546
-0.978097
-0.828238
-0.686019
-0.55166
-0.42531
-0.306989
-0.196591
-0.093954
0.00102372
0.088393
0.168216
0.240522
0.305319
0.36262
0.412414
0.454637
0.489208
0.51606
0.534948
0.545537
0.547581
0.540838
0.525001
0.499703
0.464537
0.419043
0.362576
0.293841
0.209844
0.104158
-26.6363
-24.7426
-22.8804
-21.1201
-19.5139
-18.0766
-16.796
-15.6525
-14.6282
-13.7071
-12.8745
-12.117
-11.4235
-10.7839
-10.1903
-9.6359
-9.11523
-8.62443
-8.16032
-7.71998
-7.30086
-6.90092
-6.51838
-6.15171
-5.79956
-5.4611
-5.13633
-4.82528
-4.52704
-4.24035
-3.96422
-3.69787
-3.44004
-3.18965
-2.94705
-2.71296
-2.48757
-2.27058
-2.06159
-1.86063
-1.66757
-1.48202
-1.30395
-1.1334
-0.970415
-0.815024
-0.667158
-0.526878
-0.394298
-0.269568
-0.152813
-0.0440524
0.0567703
0.149715
0.234799
0.312008
0.381337
0.442834
0.496587
0.542627
0.580849
0.611104
0.633165
0.646735
0.651549
0.647341
0.633745
0.610281
0.576409
0.531542
0.474963
0.405613
0.321688
0.219516
0.0892986
-25.6475
-23.9873
-22.3579
-20.8037
-19.3573
-18.0315
-16.8238
-15.7248
-14.7237
-13.8098
-12.9723
-12.2012
-11.4878
-10.8251
-10.2067
-9.62745
-9.08301
-8.56993
-8.08557
-7.62762
-7.19381
-6.78196
-6.39
-6.01616
-5.65884
-5.31662
-4.98835
-4.67305
-4.36981
-4.07787
-3.79658
-3.52539
-3.26372
-3.01131
-2.76825
-2.53456
-2.30999
-2.09407
-1.88619
-1.6858
-1.49297
-1.30822
-1.13171
-0.963449
-0.8034
-0.651333
-0.507035
-0.370539
-0.241967
-0.121385
-0.00872901
0.0960704
0.193031
0.282178
0.36352
0.437042
0.502758
0.560677
0.610793
0.653059
0.687358
0.713528
0.731344
0.740481
0.740562
0.731165
0.711789
0.681843
0.640651
0.587424
0.521197
0.440665
0.343863
0.227496
0.0841708
-24.8798
-23.3902
-21.9253
-20.5158
-19.1844
-17.9429
-16.7936
-15.7327
-14.754
-13.8503
-13.0143
-12.2386
-11.5167
-10.843
-10.2123
-9.62026
-9.06309
-8.53758
-8.04105
-7.57114
-7.12561
-6.70237
-6.29951
-5.91536
-5.54843
-5.1974
-4.86117
-4.53884
-4.22963
-3.9328
-3.64771
-3.37377
-3.11041
-2.85714
-2.61363
-2.37962
-2.15484
-1.93888
-1.73137
-1.53211
-1.34114
-1.15853
-0.984263
-0.818173
-0.659967
-0.509523
-0.366996
-0.232517
-0.106202
0.0120143
0.122278
0.224611
0.319022
0.405544
0.484209
0.555039
0.618014
0.673068
0.72012
0.759091
0.789874
0.812299
0.82611
0.830948
0.826368
0.811849
0.786765
0.750382
0.701839
0.64012
0.564065
0.472427
0.363853
0.236806
0.0898194
-24.303
-22.9357
-21.5877
-20.2826
-19.0376
-17.863
-16.7626
-15.7357
-14.7789
-13.8875
-13.0563
-12.2801
-11.5538
-10.8727
-10.2328
-9.63033
-9.06205
-8.52528
-8.0176
-7.53683
-7.08093
-6.648
-6.23626
-5.84408
-5.46998
-5.11264
-4.7709
-4.44373
-4.13023
-3.82959
-3.54109
-3.26409
-2.99803
-2.74243
-2.4969
-2.26116
-2.03489
-1.81778
-1.60954
-1.40999
-1.21902
-1.03655
-0.862484
-0.696711
-0.539119
-0.389686
-0.24844
-0.115388
0.00954806
0.126421
0.235196
0.335855
0.428404
0.512905
0.589411
0.657913
0.718364
0.770705
0.814891
0.850879
0.878557
0.897725
0.908095
0.909272
0.900759
0.881945
0.852083
0.810282
0.755501
0.686576
0.602297
0.501608
0.383857
0.249238
0.100849
-23.8598
-22.578
-21.3116
-20.0801
-18.8976
-17.7729
-16.7102
-15.7105
-14.7722
-13.8923
-13.0673
-12.293
-11.5657
-10.8815
-10.2369
-9.62883
-9.0545
-8.51142
-7.99737
-7.51029
-7.04827
-6.60949
-6.19222
-5.79487
-5.41593
-5.05402
-4.70798
-4.37683
-4.05967
-3.7557
-3.46419
-3.18451
-2.91609
-2.65847
-2.41123
-2.174
-1.94646
-1.72831
-1.51927
-1.31915
-1.12781
-0.945152
-0.771108
-0.605545
-0.448348
-0.299472
-0.158888
-0.02655
0.0975754
0.213508
0.321263
0.420883
0.512389
0.595749
0.670946
0.73798
0.796845
0.84751
0.889907
0.923961
0.949525
0.966374
0.9742
0.972591
0.961012
0.93879
0.905099
0.858953
0.799219
0.724678
0.634167
0.526827
0.402518
0.262599
0.112285
-23.5608
-22.3321
-21.1168
-19.9322
-18.7903
-17.6991
-16.6628
-15.6828
-14.7587
-13.8886
-13.0696
-12.2987
-11.5725
-10.8879
-10.2418
-9.63144
-9.05425
-8.50795
-7.99041
-7.4997
-7.03397
-6.59148
-6.17059
-5.76973
-5.38747
-5.02247
-4.67357
-4.33978
-4.02016
-3.71389
-3.42026
-3.13863
-2.86844
-2.60922
-2.36054
-2.12199
-1.89323
-1.67396
-1.46396
-1.26303
-1.07102
-0.887829
-0.713342
-0.547455
-0.39007
-0.241125
-0.100576
0.0316124
0.155431
0.270915
0.378114
0.477065
0.567806
0.65035
0.724712
0.790879
0.848822
0.898515
0.939897
0.972844
0.997176
1.01266
1.01895
1.01561
1.00209
0.977675
0.941499
0.892528
0.829572
0.751365
0.656762
0.545052
0.416454
0.273088
0.121144
-23.3812
-22.1788
-20.9899
-19.8304
-18.7114
-17.6399
-16.62
-15.6532
-14.7393
-13.8768
-13.0634
-12.2964
-11.5728
-10.8898
-10.2444
-9.63422
-9.05674
-8.50979
-7.99132
-7.49945
-7.0324
-6.58846
-6.16603
-5.76362
-5.3798
-5.01329
-4.66296
-4.32776
-4.00679
-3.69922
-3.40434
-3.1215
-2.85018
-2.5899
-2.34022
-2.10075
-1.87116
-1.65117
-1.44052
-1.23903
-1.04654
-0.86291
-0.688025
-0.521765
-0.364061
-0.214828
-0.0740366
0.0583159
0.182253
0.297785
0.404972
0.503841
0.594369
0.67659
0.750603
0.816444
0.87404
0.923352
0.964376
0.996931
1.02077
1.03565
1.04121
1.03699
1.02245
0.996886
0.959433
0.909028
0.844469
0.764492
0.667962
0.55421
0.423612
0.277695
0.12455
-23.3455
-22.1416
-20.9537
-19.7975
-18.6832
-17.6172
-16.603
-15.6418
-14.7331
-13.8753
-13.0661
-12.3028
-11.5824
-10.9021
-10.2591
-9.65094
-9.07516
-8.52961
-8.01226
-7.52124
-7.05478
-6.61121
-6.18896
-5.78654
-5.40258
-5.03581
-4.68511
-4.34947
-4.02798
-3.71983
-3.42433
-3.14085
-2.86885
-2.60784
-2.35739
-2.11714
-1.88675
-1.66594
-1.45448
-1.25218
-1.05888
-0.874465
-0.69881
-0.531822
-0.373419
-0.223508
-0.0820727
0.0508936
0.175426
0.291506
0.39918
0.498495
0.589472
0.672159
0.746589
0.812752
0.870613
0.920134
0.961271
0.993888
1.01777
1.03266
1.03822
1.034
1.01946
0.993911
0.956478
0.906121
0.84166
0.761851
0.665584
0.552211
0.422095
0.27676
0.124035
-23.4453
-22.2133
-21.0023
-19.8286
-18.7019
-17.628
-16.6094
-15.6465
-14.7382
-13.8823
-13.0759
-12.316
-11.5994
-10.9231
-10.2841
-9.67975
-9.10762
-8.56548
-8.05128
-7.56311
-7.09919
-6.65784
-6.23751
-5.83672
-5.4541
-5.0884
-4.73851
-4.40341
-4.08224
-3.77423
-3.47871
-3.19507
-2.92279
-2.66136
-2.41037
-2.16947
-1.93835
-1.71674
-1.5044
-1.30116
-1.10689
-0.921452
-0.744762
-0.576739
-0.417278
-0.266314
-0.123841
0.0101487
0.135705
0.252868
0.361654
0.46207
0.554122
0.637822
0.713172
0.78015
0.838745
0.888947
0.930688
0.963869
0.988331
1.00385
1.0101
1.00669
0.993062
0.968544
0.932295
0.883318
0.820489
0.742626
0.648661
0.537937
0.41067
0.268891
0.118611
-23.6484
-22.3637
-21.108
-19.8983
-18.7443
-17.6507
-16.6192
-15.6489
-14.7376
-13.8817
-13.0778
-12.3218
-11.6102
-10.9394
-10.3063
-9.70796
-9.14172
-8.60528
-8.09653
-7.61348
-7.15428
-6.71726
-6.30085
-5.90356
-5.52402
-5.16099
-4.81337
-4.48017
-4.16053
-3.85374
-3.55918
-3.27627
-3.00449
-2.74336
-2.49249
-2.25155
-2.02023