/*--------------------------------*- C++ -*----------------------------------*\
  =========                 |
  \\      /  F ield         | OpenFOAM: The Open Source CFD Toolbox
   \\    /   O peration     | Website:  https://openfoam.org
    \\  /    A nd           | Version:  13
     \\/     M anipulation  |
\*---------------------------------------------------------------------------*/
FoamFile
{
    format      ascii;
    class       volScalarField;
    location    "500";
    object      k;
}
// * * * * * * * * * * * * * * * * * * * * * * * * * * * * * * * * * * * * * //

dimensions      [0 2 -2 0 0 0 0];

internalField   nonuniform List<scalar> 
172836
(
0.209393
0.208625
0.20786
0.207099
0.206342
0.205589
0.20484
0.204094
0.209551
0.208782
0.208017
0.207256
0.206499
0.205746
0.204996
0.204251
0.210664
0.20989
0.209121
0.208355
0.207593
0.206835
0.206081
0.20533
0.204584
0.211252
0.210476
0.209705
0.208937
0.208173
0.207414
0.206658
0.205906
0.205157
0.212126
0.211348
0.210573
0.209803
0.209036
0.208274
0.207515
0.20676
0.206009
0.2133
0.212518
0.211739
0.210965
0.210194
0.209427
0.208664
0.207905
0.207149
0.214744
0.213957
0.213173
0.212393
0.211617
0.210845
0.210077
0.209312
0.208551
0.216389
0.215597
0.214808
0.214023
0.213242
0.212464
0.21169
0.21092
0.210153
0.217339
0.216546
0.215756
0.21497
0.214187
0.213408
0.212633
0.211861
0.211551
0.210768
0.209991
0.209218
0.20845
0.207685
0.206925
0.206169
0.205417
0.204669
0.203924
0.203184
0.202461
0.211703
0.210921
0.210143
0.20937
0.208601
0.207837
0.207077
0.206321
0.205569
0.204821
0.204076
0.203336
0.202614
0.212036
0.211253
0.210474
0.209701
0.208931
0.208166
0.207405
0.206648
0.205895
0.205146
0.204401
0.20366
0.202937
0.212613
0.211828
0.211048
0.210273
0.209502
0.208735
0.207973
0.207214
0.20646
0.205709
0.204963
0.20422
0.203496
0.213476
0.212688
0.211906
0.211128
0.210354
0.209585
0.20882
0.208059
0.207302
0.206549
0.205799
0.205054
0.204327
0.214636
0.213845
0.213059
0.212277
0.2115
0.210727
0.209958
0.209192
0.208431
0.207674
0.20692
0.206171
0.20544
0.216063
0.215268
0.214477
0.213691
0.212909
0.212131
0.211357
0.210587
0.20982
0.209058
0.208299
0.207545
0.206809
0.217685
0.216885
0.21609
0.215299
0.214511
0.213728
0.212949
0.212174
0.211402
0.210634
0.20987
0.209111
0.20837
0.219397
0.218594
0.217793
0.216998
0.216207
0.21542
0.214636
0.213856
0.21308
0.212308
0.21154
0.210775
0.210031
0.211709
0.274512
0.273295
0.272085
0.270883
0.269687
0.268499
0.26732
0.266149
0.264987
0.263835
0.262691
0.261558
0.260433
0.259318
0.258213
0.257116
0.256029
0.254951
0.253881
0.25282
0.251766
0.25072
0.249681
0.248649
0.247624
0.246605
0.245592
0.244585
0.243583
0.242587
0.241596
0.24061
0.239629
0.238653
0.237682
0.236717
0.235756
0.2348
0.23385
0.232906
0.231968
0.231035
0.230109
0.229188
0.228275
0.227367
0.226466
0.225572
0.224685
0.223805
0.222931
0.222064
0.221204
0.220351
0.219505
0.218665
0.217831
0.217004
0.216183
0.215368
0.214559
0.213756
0.212958
0.212165
0.211377
0.210595
0.209818
0.209045
0.208278
0.207514
0.206755
0.205999
0.205248
0.204501
0.203758
0.203019
0.202297
0.27464
0.273425
0.272217
0.271016
0.269822
0.268635
0.267457
0.266287
0.265126
0.263973
0.262831
0.261697
0.260573
0.259458
0.258352
0.257256
0.256169
0.255091
0.254022
0.252961
0.251907
0.250862
0.249823
0.248792
0.247768
0.246749
0.245737
0.244731
0.24373
0.242735
0.241745
0.24076
0.23978
0.238805
0.237835
0.23687
0.23591
0.234955
0.234005
0.233061
0.232123
0.231191
0.230264
0.229344
0.22843
0.227522
0.226621
0.225726
0.224839
0.223958
0.223084
0.222216
0.221356
0.220502
0.219655
0.218815
0.217981
0.217154
0.216332
0.215517
0.214708
0.213904
0.213106
0.212313
0.211525
0.210743
0.209966
0.209193
0.208425
0.207662
0.206902
0.206147
0.205396
0.204649
0.203906
0.203167
0.202446
0.274922
0.273711
0.272506
0.271308
0.270116
0.268932
0.267756
0.266587
0.265428
0.264277
0.263135
0.262003
0.260879
0.259765
0.258661
0.257565
0.256479
0.255402
0.254333
0.253272
0.25222
0.251175
0.250138
0.249107
0.248084
0.247066
0.246055
0.24505
0.244051
0.243056
0.242068
0.241084
0.240105
0.239131
0.238162
0.237197
0.236238
0.235284
0.234335
0.233392
0.232454
0.231522
0.230596
0.229676
0.228762
0.227854
0.226953
0.226058
0.22517
0.224289
0.223414
0.222547
0.221686
0.220831
0.219984
0.219143
0.218309
0.217481
0.216659
0.215843
0.215033
0.214229
0.21343
0.212636
0.211848
0.211066
0.210288
0.209515
0.208746
0.207982
0.207222
0.206466
0.205714
0.204966
0.204222
0.203483
0.202761
0.27544
0.274235
0.273036
0.271842
0.270655
0.269475
0.268302
0.267136
0.265979
0.264831
0.263691
0.26256
0.261437
0.260324
0.259221
0.258126
0.25704
0.255964
0.254895
0.253835
0.252783
0.251738
0.250701
0.249671
0.248648
0.247631
0.24662
0.245615
0.244616
0.243622
0.242634
0.241651
0.240672
0.239699
0.23873
0.237767
0.236808
0.235854
0.234906
0.233963
0.233026
0.232094
0.231168
0.230249
0.229335
0.228427
0.227526
0.226632
0.225744
0.224863
0.223988
0.22312
0.222259
0.221404
0.220556
0.219715
0.21888
0.218051
0.217229
0.216412
0.215601
0.214796
0.213996
0.213202
0.212412
0.211628
0.210849
0.210075
0.209305
0.208539
0.207777
0.20702
0.206267
0.205518
0.204772
0.204031
0.203308
0.276281
0.275083
0.27389
0.272702
0.27152
0.270344
0.269175
0.268013
0.266858
0.265712
0.264573
0.263443
0.262322
0.261209
0.260105
0.25901
0.257924
0.256847
0.255778
0.254717
0.253664
0.252618
0.25158
0.250549
0.249524
0.248507
0.247495
0.246489
0.245489
0.244494
0.243505
0.242521
0.241542
0.240568
0.239599
0.238635
0.237676
0.236722
0.235774
0.23483
0.233893
0.232961
0.232035
0.231115
0.230201
0.229294
0.228392
0.227497
0.226609
0.225727
0.224852
0.223983
0.223121
0.222266
0.221417
0.220575
0.219738
0.218908
0.218084
0.217266
0.216454
0.215647
0.214845
0.214048
0.213257
0.212471
0.21169
0.210913
0.21014
0.209372
0.208608
0.207848
0.207093
0.206341
0.205593
0.204849
0.204123
0.277468
0.276278
0.275092
0.27391
0.272733
0.271562
0.270396
0.269237
0.268085
0.26694
0.265802
0.264672
0.263551
0.262437
0.261333
0.260236
0.259149
0.258069
0.256998
0.255935
0.254879
0.253831
0.252791
0.251757
0.25073
0.249709
0.248695
0.247687
0.246685
0.245688
0.244697
0.243711
0.24273
0.241754
0.240784
0.239818
0.238858
0.237903
0.236953
0.236009
0.235071
0.234138
0.233212
0.232291
0.231377
0.230468
0.229566
0.22867
0.227781
0.226898
0.226022
0.225152
0.224289
0.223432
0.222582
0.221738
0.2209
0.220068
0.219241
0.218421
0.217606
0.216796
0.215991
0.215192
0.214398
0.213608
0.212823
0.212042
0.211266
0.210494
0.209726
0.208962
0.208203
0.207447
0.206695
0.205947
0.205218
0.278928
0.277747
0.276569
0.275394
0.274223
0.273057
0.271896
0.27074
0.269591
0.268448
0.267312
0.266182
0.265061
0.263947
0.262841
0.261743
0.260654
0.259572
0.258498
0.257432
0.256374
0.255323
0.254279
0.253242
0.252211
0.251188
0.25017
0.249159
0.248154
0.247154
0.24616
0.245172
0.244189
0.243211
0.242238
0.241271
0.240309
0.239352
0.238402
0.237456
0.236517
0.235583
0.234656
0.233734
0.232819
0.231909
0.231006
0.230109
0.229219
0.228335
0.227458
0.226587
0.225722
0.224864
0.224012
0.223166
0.222326
0.221491
0.220662
0.219839
0.219021
0.218208
0.2174
0.216597
0.215799
0.215005
0.214216
0.213431
0.21265
0.211874
0.211101
0.210332
0.209568
0.208807
0.20805
0.207298
0.206564
0.280511
0.279341
0.278172
0.277007
0.275844
0.274685
0.27353
0.27238
0.271235
0.270096
0.268962
0.267835
0.266715
0.265602
0.264497
0.263399
0.262308
0.261225
0.26015
0.259082
0.258021
0.256968
0.255921
0.254882
0.253849
0.252823
0.251803
0.250789
0.249781
0.24878
0.247784
0.246793
0.245808
0.244829
0.243856
0.242887
0.241925
0.240967
0.240016
0.239071
0.238131
0.237198
0.23627
0.235349
0.234434
0.233525
0.232622
0.231725
0.230835
0.229951
0.229074
0.228203
0.227338
0.226479
0.225626
0.224779
0.223937
0.223101
0.222271
0.221445
0.220624
0.219808
0.218997
0.218191
0.217389
0.216591
0.215797
0.215007
0.214222
0.213441
0.212663
0.21189
0.21112
0.210354
0.209592
0.208834
0.208096
0.282078
0.280922
0.279766
0.278612
0.27746
0.276311
0.275164
0.274022
0.272884
0.27175
0.270621
0.269498
0.268381
0.267271
0.266167
0.265071
0.263981
0.262899
0.261823
0.260755
0.259693
0.258639
0.257591
0.256551
0.255517
0.254489
0.253468
0.252453
0.251444
0.250442
0.249445
0.248454
0.247469
0.246489
0.245516
0.244548
0.243585
0.242629
0.241679
0.240734
0.239796
0.238864
0.237938
0.237018
0.236104
0.235197
0.234296
0.233401
0.232512
0.23163
0.230754
0.229884
0.22902
0.228162
0.227309
0.226463
0.225621
0.224785
0.223954
0.223127
0.222305
0.221487
0.220674
0.219864
0.21906
0.218259
0.217462
0.216669
0.215879
0.215094
0.214312
0.213534
0.21276
0.21199
0.211223
0.210462
0.20972
0.283595
0.282455
0.281315
0.280174
0.279035
0.277896
0.27676
0.275626
0.274495
0.273368
0.272245
0.271127
0.270013
0.268905
0.267804
0.266709
0.26562
0.264538
0.263463
0.262394
0.261332
0.260276
0.259228
0.258186
0.25715
0.256122
0.2551
0.254084
0.253075
0.252071
0.251074
0.250083
0.249099
0.24812
0.247147
0.24618
0.245219
0.244265
0.243316
0.242374
0.241439
0.240509
0.239586
0.238669
0.237759
0.236855
0.235957
0.235065
0.23418
0.2333
0.232427
0.23156
0.230698
0.229842
0.228992
0.228147
0.227306
0.226471
0.22564
0.224814
0.223991
0.223172
0.222357
0.221547
0.220739
0.219935
0.219134
0.218337
0.217544
0.216755
0.215969
0.215187
0.214409
0.213634
0.212865
0.212099
0.211354
0.285108
0.283987
0.282864
0.281739
0.280613
0.279487
0.278362
0.277237
0.276115
0.274994
0.273876
0.272762
0.271651
0.270546
0.269445
0.268351
0.267262
0.266179
0.265103
0.264032
0.262968
0.26191
0.26086
0.259815
0.258778
0.257747
0.256723
0.255705
0.254694
0.25369
0.252692
0.2517
0.250715
0.249736
0.248764
0.247798
0.246839
0.245886
0.24494
0.244
0.243067
0.24214
0.24122
0.240307
0.2394
0.2385
0.237605
0.236717
0.235835
0.234959
0.234089
0.233225
0.232366
0.231513
0.230665
0.229821
0.228983
0.228148
0.227318
0.226491
0.225668
0.224848
0.224033
0.223219
0.22241
0.221603
0.220801
0.22
0.219203
0.218409
0.217619
0.216832
0.21605
0.215271
0.214496
0.213727
0.212979
0.286707
0.285607
0.284504
0.283397
0.282287
0.281174
0.28006
0.278945
0.277831
0.276716
0.275603
0.274491
0.273382
0.272277
0.271176
0.270079
0.268988
0.267902
0.266821
0.265746
0.264678
0.263615
0.262559
0.26151
0.260467
0.259431
0.258403
0.257381
0.256366
0.255359
0.254358
0.253365
0.252378
0.251399
0.250426
0.249461
0.248502
0.247551
0.246607
0.24567
0.24474
0.243817
0.242901
0.241991
0.241089
0.240192
0.239302
0.238419
0.237541
0.236669
0.235803
0.234942
0.234086
0.233236
0.23239
0.231549
0.230711
0.229877
0.229047
0.228219
0.227395
0.226573
0.225753
0.224938
0.224123
0.223313
0.222503
0.221697
0.220895
0.220095
0.219299
0.218507
0.217718
0.216933
0.216153
0.215377
0.214624
0.288486
0.287413
0.286332
0.285246
0.284154
0.283057
0.281956
0.280852
0.279745
0.278637
0.277527
0.276417
0.275308
0.274201
0.273097
0.271997
0.2709
0.269808
0.26872
0.267637
0.266561
0.26549
0.264425
0.263367
0.262317
0.261273
0.260237
0.259208
0.258187
0.257174
0.256168
0.25517
0.254181
0.253199
0.252225
0.251258
0.2503
0.249349
0.248407
0.247472
0.246544
0.245625
0.244712
0.243807
0.242909
0.242017
0.241132
0.240252
0.239379
0.238511
0.237649
0.236792
0.235939
0.235091
0.234247
0.233407
0.23257
0.231735
0.230903
0.230073
0.229245
0.228419
0.227595
0.226771
0.225952
0.225133
0.224319
0.223504
0.222692
0.221884
0.221079
0.220277
0.219479
0.218686
0.217896
0.217112
0.216351
0.290557
0.289515
0.288462
0.2874
0.286329
0.28525
0.284164
0.283072
0.281974
0.280871
0.279765
0.278655
0.277543
0.276432
0.275322
0.274213
0.273107
0.272005
0.270905
0.269811
0.268721
0.267637
0.266559
0.265488
0.264424
0.263368
0.262321
0.261281
0.26025
0.259228
0.258215
0.25721
0.256215
0.255229
0.254252
0.253284
0.252325
0.251375
0.250434
0.249502
0.248578
0.247663
0.246756
0.245856
0.244964
0.244078
0.243198
0.242325
0.241457
0.240594
0.239737
0.238884
0.238035
0.237189
0.236347
0.235507
0.234669
0.233833
0.232997
0.232162
0.231328
0.230495
0.229661
0.22883
0.227998
0.227169
0.226338
0.225512
0.224688
0.223867
0.223049
0.222234
0.221423
0.220615
0.219814
0.219016
0.218245
0.293031
0.292027
0.291008
0.289976
0.288931
0.287874
0.286805
0.285727
0.284639
0.283542
0.282437
0.281326
0.28021
0.279092
0.277972
0.276852
0.275733
0.274615
0.2735
0.272387
0.271279
0.270177
0.26908
0.267991
0.266909
0.265836
0.264771
0.263717
0.262671
0.261636
0.260612
0.259598
0.258594
0.257602
0.25662
0.255649
0.254689
0.253739
0.2528
0.25187
0.250951
0.25004
0.249139
0.248246
0.24736
0.246481
0.245609
0.244742
0.243881
0.243025
0.242173
0.241324
0.240479
0.239636
0.238795
0.237954
0.237114
0.236273
0.235431
0.234589
0.233745
0.2329
0.232055
0.231206
0.230361
0.229513
0.228669
0.227824
0.22698
0.226139
0.225302
0.224468
0.223638
0.222813
0.221992
0.221178
0.220392
0.296048
0.295091
0.294115
0.29312
0.292106
0.291075
0.290028
0.288965
0.287888
0.286797
0.285692
0.284577
0.283453
0.282323
0.281188
0.280051
0.278912
0.277772
0.276632
0.275495
0.27436
0.273231
0.272108
0.270992
0.269885
0.268787
0.267699
0.266622
0.265557
0.264504
0.263464
0.262437
0.261422
0.260421
0.259433
0.258458
0.257496
0.256547
0.25561
0.254685
0.253771
0.252869
0.251976
0.251092
0.250216
0.249348
0.248486
0.247629
0.246777
0.24593
0.245085
0.244243
0.243403
0.242563
0.241722
0.24088
0.240035
0.239187
0.238336
0.237481
0.236623
0.235761
0.234894
0.234028
0.233157
0.232287
0.231413
0.230542
0.229673
0.228806
0.227941
0.227081
0.226225
0.225373
0.224529
0.223691
0.222883
0.299759
0.298861
0.297936
0.296985
0.296008
0.295009
0.293986
0.292941
0.291875
0.290789
0.289683
0.28856
0.287423
0.286276
0.285121
0.283958
0.282791
0.281621
0.280448
0.279276
0.278106
0.27694
0.275781
0.274629
0.273486
0.272355
0.271235
0.270129
0.269037
0.267959
0.266897
0.265851
0.264821
0.263808
0.262811
0.26183
0.260865
0.259916
0.258981
0.258061
0.257155
0.256261
0.255379
0.254507
0.253644
0.252789
0.25194
0.251096
0.250256
0.249419
0.248584
0.24775
0.246915
0.246077
0.245236
0.244389
0.243537
0.242678
0.241813
0.24094
0.24006
0.239174
0.238283
0.237383
0.236483
0.235577
0.234673
0.233765
0.232858
0.231954
0.231053
0.230156
0.229264
0.228379
0.2275
0.226632
0.225796
0.304334
0.303505
0.302641
0.301741
0.300809
0.299844
0.298849
0.297823
0.296767
0.295683
0.294571
0.293434
0.292277
0.291105
0.289918
0.28872
0.287513
0.286298
0.28508
0.283859
0.282639
0.281422
0.280212
0.27901
0.27782
0.276642
0.275479
0.274332
0.273202
0.272091
0.270999
0.269927
0.268876
0.267846
0.266837
0.265848
0.264879
0.263929
0.262999
0.262086
0.261189
0.260308
0.259441
0.258585
0.25774
0.256902
0.256071
0.255244
0.254421
0.253598
0.252776
0.25195
0.251122
0.250286
0.249443
0.24859
0.247726
0.246851
0.245965
0.245066
0.244157
0.243237
0.242305
0.24137
0.240423
0.239473
0.238516
0.237562
0.236607
0.235653
0.234703
0.233759
0.23282
0.231889
0.230968
0.230057
0.229185
0.309899
0.309145
0.308345
0.307501
0.306615
0.305687
0.304719
0.303711
0.302663
0.301577
0.300453
0.299297
0.298112
0.296904
0.295676
0.29443
0.29317
0.291898
0.290618
0.289333
0.288048
0.286765
0.285488
0.284221
0.282967
0.281728
0.280507
0.279306
0.278126
0.276969
0.275837
0.27473
0.273649
0.272595
0.271567
0.270565
0.269588
0.268636
0.267707
0.266801
0.265915
0.265047
0.264196
0.263359
0.262533
0.261716
0.260906
0.260099
0.259294
0.258488
0.257678
0.256864
0.256041
0.255206
0.254357
0.253493
0.252613
0.251716
0.250801
0.249869
0.24892
0.247956
0.24698
0.245986
0.244987
0.243977
0.242966
0.241946
0.240928
0.239911
0.238899
0.237893
0.236895
0.235908
0.234931
0.23397
0.233052
0.316471
0.315794
0.315062
0.314275
0.313436
0.312544
0.311602
0.310608
0.309564
0.30847
0.307329
0.306144
0.304922
0.303667
0.302385
0.301077
0.299748
0.298402
0.297044
0.295678
0.294308
0.292941
0.291579
0.290229
0.288893
0.287575
0.286279
0.285007
0.283762
0.282546
0.28136
0.280206
0.279084
0.277996
0.276941
0.275919
0.274928
0.273969
0.273039
0.272136
0.271259
0.270405
0.269571
0.268754
0.26795
0.267157
0.26637
0.265586
0.264802
0.264015
0.26322
0.262417
0.2616
0.260764
0.259909
0.259032
0.258132
0.257208
0.256259
0.255287
0.254292
0.253275
0.252236
0.251187
0.250117
0.249038
0.247947
0.246856
0.245763
0.244672
0.243586
0.242507
0.241438
0.240382
0.239343
0.23832
0.23735
0.323909
0.323308
0.322641
0.321905
0.321103
0.320238
0.319311
0.318323
0.317273
0.316163
0.314995
0.313775
0.312507
0.311198
0.309852
0.308473
0.307066
0.305636
0.304188
0.302727
0.301261
0.299795
0.298335
0.296886
0.295454
0.294042
0.292655
0.291297
0.28997
0.288678
0.287422
0.286205
0.285028
0.283891
0.282795
0.281739
0.280722
0.279744
0.278801
0.277893
0.277017
0.276169
0.275346
0.274545
0.273759
0.272987
0.272222
0.271461
0.2707
0.269934
0.269161
0.268373
0.267567
0.266738
0.265884
0.265001
0.264088
0.263144
0.262167
0.261159
0.26012
0.259053
0.257961
0.256839
0.255704
0.254549
0.253388
0.252214
0.251038
0.249864
0.248697
0.24754
0.246396
0.24527
0.244163
0.243084
0.242063
0.331435
0.3308
0.330089
0.3293
0.328435
0.327497
0.326488
0.32541
0.324263
0.323052
0.321781
0.320456
0.319083
0.317665
0.316207
0.314715
0.313194
0.311651
0.310092
0.308523
0.306953
0.305387
0.303831
0.302293
0.300777
0.299288
0.297831
0.296409
0.295026
0.293686
0.29239
0.29114
0.289939
0.288785
0.28768
0.286622
0.285611
0.284645
0.283722
0.282839
0.281993
0.281181
0.280397
0.279638
0.278899
0.278174
0.277459
0.27675
0.27604
0.275327
0.274603
0.27386
0.273093
0.272297
0.271467
0.270598
0.269687
0.268733
0.267734
0.266691
0.265606
0.264478
0.263321
0.262126
0.260909
0.259668
0.25842
0.257167
0.255914
0.254669
0.253439
0.252229
0.251045
0.249896
0.248783
0.247752
0.33984
0.339163
0.338386
0.337518
0.336561
0.335526
0.334419
0.333245
0.332008
0.330713
0.329364
0.327965
0.326518
0.325028
0.323499
0.321935
0.320341
0.318723
0.317087
0.31544
0.313787
0.312137
0.310495
0.308867
0.30726
0.305679
0.30413
0.302617
0.301145
0.299719
0.298342
0.297017
0.295748
0.294535
0.293381
0.292287
0.291253
0.290279
0.289366
0.288511
0.287714
0.286972
0.286283
0.285643
0.285049
0.284497
0.283984
0.283506
0.283058
0.282637
0.282227
0.281815
0.281386
0.280924
0.280416
0.279848
0.279211
0.278495
0.277696
0.276811
0.275841
0.274794
0.273664
0.272478
0.271234
0.269955
0.268643
0.26732
0.266001
0.264697
0.263425
0.262197
0.261028
0.259927
0.258914
0.258039
0.347153
0.346124
0.344976
0.343748
0.342444
0.34108
0.339672
0.338228
0.336758
0.335266
0.333752
0.332216
0.330659
0.329084
0.32749
0.325879
0.324253
0.322614
0.320965
0.319311
0.317656
0.316005
0.314363
0.312737
0.311133
0.309558
0.308018
0.306522
0.305076
0.303689
0.302368
0.301122
0.299956
0.29888
0.297899
0.297022
0.296256
0.295608
0.295085
0.294694
0.29444
0.294327
0.294362
0.294548
0.294887
0.295384
0.296028
0.29684
0.297794
0.298841
0.29993
0.301007
0.302018
0.302914
0.303651
0.304195
0.304519
0.304608
0.304457
0.30407
0.303458
0.302656
0.301673
0.300558
0.299334
0.298058
0.296758
0.295478
0.294256
0.293133
0.292148
0.291334
0.290737
0.290387
0.290394
0.352899
0.351277
0.349488
0.347631
0.345727
0.343805
0.341899
0.340031
0.33822
0.336469
0.334778
0.333143
0.331557
0.33001
0.328493
0.326996
0.325513
0.324037
0.322565
0.321095
0.31963
0.318173
0.316733
0.315319
0.313944
0.312623
0.311376
0.310223
0.309187
0.308295
0.307572
0.307049
0.306756
0.306727
0.306994
0.307593
0.308561
0.309933
0.311744
0.314026
0.316809
0.320122
0.323976
0.328409
0.333408
0.338932
0.345106
0.351709
0.358535
0.365376
0.372037
0.378345
0.384152
0.389345
0.393845
0.397609
0.400629
0.402923
0.404542
0.405559
0.406041
0.406117
0.405874
0.405443
0.404919
0.404435
0.404103
0.40404
0.40436
0.405173
0.406597
0.408731
0.411715
0.415739
0.360229
0.357736
0.355056
0.352207
0.349248
0.346257
0.343327
0.340543
0.337998
0.335724
0.333707
0.331923
0.330345
0.328933
0.327644
0.326453
0.325339
0.324288
0.323294
0.322361
0.321503
0.320743
0.320119
0.319676
0.319476
0.319589
0.320098
0.321097
0.322688
0.324983
0.328101
0.332163
0.337294
0.343615
0.351242
0.36028
0.370818
0.382928
0.396641
0.411988
0.428933
0.447399
0.467388
0.488629
0.511126
0.534629
0.558394
0.581758
0.604166
0.625178
0.644478
0.661859
0.677222
0.690559
0.701939
0.711496
0.719413
0.725906
0.731214
0.735629
0.739373
0.742757
0.746021
0.749472
0.753341
0.757873
0.763308
0.769864
0.777764
0.78719
0.798354
0.811454
0.826612
0.395087
0.392821
0.389549
0.385264
0.380061
0.374193
0.367989
0.361868
0.356267
0.351424
0.347284
0.343796
0.340902
0.338542
0.336662
0.335218
0.334184
0.333557
0.333365
0.333671
0.334581
0.336243
0.338852
0.342651
0.347925
0.354999
0.364224
0.375962
0.390571
0.408384
0.429684
0.454693
0.483548
0.516292
0.552869
0.593113
0.636782
0.683519
0.732887
0.784447
0.837589
0.891923
0.94677
1.00125
1.05571
1.10864
1.15887
1.2056
1.24832
1.28681
1.32104
1.35114
1.37737
1.40005
1.41958
1.43639
1.45092
1.46361
1.47491
1.48519
1.49492
1.50442
1.51407
1.52416
1.53496
1.54676
1.55972
1.57399
1.59
1.60785
1.62741
1.64898
1.67215
0.540234
0.545796
0.543461
0.536771
0.525866
0.511342
0.49432
0.476387
0.459256
0.444232
0.43116
0.419959
0.410563
0.40293
0.397064
0.393029
0.390974
0.39115
0.393931
0.399827
0.409476
0.423628
0.443103
0.468734
0.501294
0.541416
0.589525
0.645782
0.710061
0.781947
0.860765
0.945625
1.03548
1.12918
1.22554
1.32341
1.42167
1.51923
1.61524
1.70875
1.79895
1.88561
1.96767
2.04523
2.11787
2.18412
2.24369
2.29661
2.34313
2.38363
2.41859
2.44854
2.47402
2.49557
2.51374
2.52903
2.54195
2.55297
2.56243
2.57084
2.57837
2.58554
2.59247
2.59943
2.60656
2.61404
2.62199
2.63051
2.63971
2.64967
2.66069
2.67324
2.68715
1.09053
1.10556
1.09432
1.06913
1.0311
0.983233
0.93019
0.877922
0.83058
0.788059
0.750668
0.718895
0.693397
0.675005
0.664723
0.663719
0.673277
0.694722
0.72928
0.777935
0.841267
0.919334
1.01162
1.11703
1.23402
1.36067
1.49483
1.6343
1.7769
1.9206
2.06356
2.20417
2.34105
2.47307
2.59936
2.71917
2.83207
2.93765
3.03554
3.1261
3.20852
3.28276
3.35062
3.40951
3.46005
3.50292
3.53876
3.56823
3.59196
3.61052
3.6245
3.63443
3.64082
3.64419
3.64496
3.64355
3.64038
3.63578
3.63001
3.62346
3.61629
3.60873
3.60091
3.59303
3.58518
3.57745
3.56992
3.56262
3.55568
3.54947
3.54489
3.54295
2.69787
2.70066
2.65453
2.58216
2.48978
2.38192
2.27399
2.15971
2.04494
1.93564
1.83756
1.75588
1.69498
1.65827
1.64809
1.6655
1.71029
1.78114
1.87573
1.99099
2.12336
2.26911
2.4245
2.58603
2.75046
2.91492
3.07694
3.23447
3.38583
3.52973
3.66521
3.79159
3.90849
4.01564
4.11301
4.20075
4.27886
4.34787
4.40771
4.45839
4.5018
4.53587
4.56151
4.57978
4.59158
4.59765
4.59865
4.5952
4.58782
4.57704
4.56334
4.54721
4.52905
4.50925
4.48819
4.46617
4.44345
4.4203
4.39697
4.37357
4.35016
4.32687
4.30375
4.28082
4.25806
4.23547
4.21313
4.19108
4.1696
4.14982
4.13479
5.57593
5.51077
5.40309
5.25735
5.07972
4.85909
4.61468
4.36326
4.11915
3.89414
3.69808
3.53797
3.41934
3.34539
3.31587
3.33032
3.38458
3.47087
3.58183
3.71081
3.85146
3.99823
4.14724
4.29418
4.43619
4.57105
4.69711
4.81326
4.91876
5.01325
5.09666
5.16907
5.23076
5.28223
5.32372
5.35593
5.37932
5.39403
5.40142
5.40107
5.39337
5.37966
5.36094
5.33801
5.31155
5.28214
5.25031
5.21652
5.18124
5.14488
5.10782
5.07039
5.03289
4.99554
4.9585
4.92195
4.88596
4.85062
4.81589
4.78175
4.74817
4.71506
4.68235
4.64998
4.61781
4.58565
4.55365
4.52224
4.49276
4.46928
7.44308
7.20287
6.94627
6.67011
6.3906
6.11831
5.86124
5.6252
5.41607
5.23827
5.09406
4.98731
4.91803
4.88436
4.8881
4.92673
4.99626
5.08933
5.19691
5.31071
5.4251
5.53584
5.63968
5.73439
5.81843
5.89096
5.95157
6.00026
6.0373
6.06318
6.07851
6.08411
6.08052
6.06868
6.04932
6.0229
5.99044
5.95249
5.9094
5.86255
5.8129
5.76126
5.70822
5.65435
5.60012
5.54593
5.49213
5.43906
5.38699
5.33614
5.28666
5.23866
5.19219
5.14722
5.1037
5.06157
5.02069
4.9809
4.94205
4.90402
4.8666
4.82963
4.79289
4.75624
4.71955
4.6828
4.64629
4.61139
4.58324
7.75082
7.53932
7.33281
7.13367
6.94147
6.76083
6.59576
6.45008
6.32802
6.23121
6.16215
6.11963
6.10207
6.10821
6.1349
6.17765
6.23735
6.31073
6.38841
6.46325
6.53123
6.58949
6.63626
6.67056
6.69208
6.70097
6.69772
6.68312
6.65805
6.62356
6.58071
6.5305
6.47398
6.41214
6.34563
6.27554
6.20245
6.12718
6.05082
5.97429
5.89823
5.82321
5.74962
5.67787
5.60821
5.54093
5.47616
5.41405
5.35467
5.29804
5.24408
5.1927
5.14374
5.09699
5.05225
5.00922
4.96771
4.92745
4.8882
4.84972
4.81179
4.77426
4.73687
4.69945
4.66196
4.62433
4.5868
4.55074
4.52106
7.31157
7.24378
7.1766
7.11186
7.05286
7.00246
6.96296
6.93654
6.92537
6.92851
6.9471
6.97441
7.0104
7.05195
7.09324
7.13486
7.17575
7.2095
7.23265
7.24299
7.23958
7.22232
7.19154
7.14825
7.09336
7.0284
6.95442
6.87312
6.78555
6.69324
6.5971
6.49851
6.39799
6.29694
6.19547
6.09493
5.99592
5.89936
5.8055
5.71495
5.6278
5.54445
5.46489
5.38938
5.3178
5.25024
5.18654
5.12662
5.07027
5.01724
4.96728
4.92005
4.87526
4.8325
4.79156
4.75201
4.71363
4.67619
4.63947
4.60331
4.56735
4.53181
4.49639
4.46095
4.42528
4.38968
4.35518
4.3261
7.04866
7.10113
7.15228
7.20297
7.25899
7.30295
7.35451
7.40403
7.45732
7.50726
7.55479
7.59334
7.62518
7.64327
7.65075
7.64503
7.62491
7.58907
7.5378
7.47212
7.39284
7.30219
7.20108
7.09216
6.97618
6.85581
6.73155
6.60583
6.47882
6.35271
6.22718
6.10437
5.9835
5.86653
5.7532
5.64474
5.54061
5.44178
5.34764
5.25893
5.17503
5.09645
5.02263
4.95376
4.88935
4.82937
4.7734
4.72114
4.67229
4.62638
4.5832
4.5421
4.50309
4.46543
4.42917
4.39402
4.35984
4.32633
4.29322
4.26095
4.2289
4.1972
4.16535
4.13353
4.10163
4.07067
4.04377
6.85217
6.97718
7.10624
7.23652
0.274283
0.273068
0.271859
0.270658
0.269464
0.268277
0.267099
0.26593
0.264769
0.263617
0.262475
0.261342
0.260218
0.259104
0.257999
0.256903
0.255817
0.254739
0.253669
0.252608
0.251555
0.250509
0.249471
0.24844
0.247415
0.246397
0.245385
0.244378
0.243378
0.242382
0.241392
0.240407
0.239427
0.238453
0.237483
0.236518
0.235559
0.234605
0.233657
0.232714
0.231777
0.230846
0.229921
0.229002
0.22809
0.227184
0.226284
0.225392
0.224506
0.223626
0.222754
0.221888
0.221029
0.220177
0.219331
0.218492
0.21766
0.216833
0.216013
0.215199
0.21439
0.213587
0.21279
0.211998
0.211211
0.210429
0.209653
0.20888
0.208113
0.20735
0.206591
0.205837
0.205086
0.20434
0.203597
0.202859
0.202138
0.274406
0.273193
0.271986
0.270786
0.269594
0.268408
0.267231
0.266062
0.264902
0.263751
0.262609
0.261476
0.260353
0.259238
0.258133
0.257038
0.255951
0.254873
0.253804
0.252743
0.25169
0.250645
0.249607
0.248577
0.247553
0.246535
0.245523
0.244518
0.243518
0.242524
0.241535
0.240551
0.239572
0.238598
0.237629
0.236666
0.235707
0.234754
0.233806
0.232863
0.231926
0.230996
0.230071
0.229152
0.228239
0.227333
0.226433
0.22554
0.224654
0.223774
0.222901
0.222035
0.221176
0.220323
0.219477
0.218638
0.217805
0.216978
0.216158
0.215343
0.214535
0.213732
0.212934
0.212142
0.211355
0.210574
0.209797
0.209024
0.208257
0.207494
0.206735
0.205981
0.20523
0.204484
0.203742
0.203003
0.202283
0.274676
0.273467
0.272263
0.271066
0.269876
0.268693
0.267518
0.266351
0.265192
0.264042
0.262901
0.261769
0.260647
0.259533
0.258429
0.257334
0.256248
0.255171
0.254102
0.253042
0.25199
0.250945
0.249908
0.248879
0.247855
0.246839
0.245828
0.244824
0.243825
0.242832
0.241844
0.240861
0.239884
0.238911
0.237943
0.236981
0.236023
0.235071
0.234123
0.233182
0.232246
0.231315
0.230391
0.229472
0.22856
0.227654
0.226754
0.225861
0.224975
0.224095
0.223222
0.222355
0.221496
0.220642
0.219796
0.218956
0.218123
0.217295
0.216475
0.21566
0.214851
0.214047
0.213249
0.212457
0.21167
0.210887
0.21011
0.209337
0.208569
0.207806
0.207046
0.206291
0.20554
0.204793
0.20405
0.203311
0.20259
0.275175
0.273971
0.272773
0.27158
0.270394
0.269215
0.268044
0.266879
0.265723
0.264576
0.263437
0.262306
0.261185
0.260072
0.258969
0.257875
0.256789
0.255713
0.254645
0.253585
0.252533
0.251489
0.250452
0.249423
0.2484
0.247384
0.246374
0.24537
0.244372
0.243379
0.242392
0.24141
0.240433
0.239461
0.238494
0.237532
0.236575
0.235623
0.234677
0.233736
0.2328
0.231871
0.230947
0.230029
0.229117
0.228211
0.227312
0.226419
0.225533
0.224653
0.22378
0.222913
0.222053
0.2212
0.220353
0.219513
0.218679
0.217851
0.21703
0.216214
0.215404
0.2146
0.213801
0.213008
0.21222
0.211436
0.210658
0.209884
0.209115
0.20835
0.207589
0.206833
0.206081
0.205332
0.204588
0.203848
0.203125
0.275989
0.274792
0.273599
0.272413
0.271232
0.270057
0.268889
0.267728
0.266574
0.265429
0.264291
0.263162
0.262041
0.260929
0.259826
0.258731
0.257645
0.256568
0.2555
0.254439
0.253386
0.252341
0.251304
0.250273
0.24925
0.248233
0.247222
0.246217
0.245218
0.244225
0.243237
0.242255
0.241277
0.240305
0.239338
0.238376
0.237419
0.236467
0.235521
0.23458
0.233645
0.232715
0.231791
0.230873
0.229962
0.229056
0.228157
0.227264
0.226377
0.225497
0.224624
0.223757
0.222896
0.222042
0.221195
0.220354
0.219519
0.21869
0.217868
0.217051
0.216239
0.215434
0.214633
0.213838
0.213048
0.212262
0.211482
0.210706
0.209934
0.209167
0.208404
0.207645
0.20689
0.206139
0.205392
0.20465
0.203925
0.277141
0.275952
0.274767
0.273586
0.27241
0.27124
0.270075
0.268917
0.267766
0.266622
0.265486
0.264357
0.263236
0.262123
0.261019
0.259923
0.258836
0.257757
0.256686
0.255624
0.254569
0.253522
0.252482
0.251449
0.250423
0.249403
0.24839
0.247384
0.246383
0.245388
0.244398
0.243414
0.242435
0.241461
0.240493
0.23953
0.238572
0.237619
0.236672
0.235731
0.234795
0.233865
0.232941
0.232022
0.23111
0.230204
0.229304
0.228411
0.227524
0.226643
0.225769
0.224901
0.224039
0.223184
0.222336
0.221493
0.220657
0.219826
0.219002
0.218183
0.217369
0.216561
0.215757
0.214959
0.214166
0.213378
0.212594
0.211814
0.211039
0.210268
0.209501
0.208739
0.20798
0.207226
0.206475
0.205729
0.205001
0.278563
0.277382
0.276204
0.27503
0.273861
0.272695
0.271535
0.27038
0.269232
0.26809
0.266955
0.265826
0.264705
0.263592
0.262487
0.26139
0.260301
0.25922
0.258147
0.257081
0.256023
0.254973
0.25393
0.252894
0.251865
0.250843
0.249827
0.248817
0.247814
0.246816
0.245824
0.244838
0.243857
0.242881
0.241911
0.240947
0.239988
0.239034
0.238086
0.237144
0.236207
0.235277
0.234352
0.233433
0.232521
0.231614
0.230714
0.22982
0.228932
0.228051
0.227176
0.226307
0.225445
0.224588
0.223738
0.222894
0.222056
0.221224
0.220397
0.219575
0.218759
0.217947
0.217141
0.216339
0.215543
0.21475
0.213962
0.213179
0.212399
0.211624
0.210852
0.210085
0.209322