/*--------------------------------*- C++ -*----------------------------------*\
  =========                 |
  \\      /  F ield         | OpenFOAM: The Open Source CFD Toolbox
   \\    /   O peration     | Website:  https://openfoam.org
    \\  /    A nd           | Version:  13
     \\/     M anipulation  |
\*---------------------------------------------------------------------------*/
FoamFile
{
    format      ascii;
    class       volScalarField;
    location    "500";
    object      nut;
}
// * * * * * * * * * * * * * * * * * * * * * * * * * * * * * * * * * * * * * //

dimensions      [0 2 -1 0 0 0 0];

internalField   nonuniform List<scalar> 
172836
(
0.0176252
0.0176149
0.0176047
0.0175944
0.0175841
0.0175739
0.0175636
0.0175533
0.0176411
0.0176308
0.0176206
0.0176104
0.0176001
0.0175899
0.0175796
0.0175694
0.0176881
0.017678
0.0176678
0.0176576
0.0176474
0.0176372
0.0176271
0.0176169
0.0176067
0.0177557
0.0177455
0.0177354
0.0177252
0.017715
0.0177048
0.0176946
0.0176844
0.0176742
0.0178643
0.0178539
0.0178436
0.0178332
0.0178229
0.0178125
0.0178022
0.0177919
0.0177816
0.0180206
0.0180099
0.0179992
0.0179885
0.0179778
0.0179671
0.0179564
0.0179458
0.0179351
0.0182261
0.0182149
0.0182037
0.0181925
0.0181813
0.0181701
0.018159
0.0181478
0.0181367
0.0184762
0.0184646
0.018453
0.0184413
0.0184297
0.0184181
0.0184064
0.0183948
0.0183833
0.0187397
0.018728
0.0187162
0.0187045
0.0186928
0.0186811
0.0186694
0.0186577
0.0176491
0.0176387
0.0176284
0.0176181
0.0176078
0.0175975
0.0175873
0.017577
0.0175667
0.0175565
0.0175462
0.017536
0.0175263
0.0176645
0.0176542
0.0176439
0.0176337
0.0176234
0.0176132
0.0176029
0.0175927
0.0175825
0.0175722
0.017562
0.0175518
0.0175422
0.0177006
0.0176904
0.0176802
0.01767
0.0176598
0.0176496
0.0176394
0.0176292
0.0176191
0.0176089
0.0175987
0.0175886
0.0175791
0.0177673
0.0177571
0.0177469
0.0177367
0.0177265
0.0177163
0.0177062
0.017696
0.0176858
0.0176757
0.0176655
0.0176554
0.0176459
0.0178752
0.0178649
0.0178545
0.0178442
0.0178338
0.0178235
0.0178132
0.0178029
0.0177926
0.0177823
0.017772
0.0177618
0.0177522
0.0180314
0.0180207
0.01801
0.0179993
0.0179886
0.017978
0.0179673
0.0179567
0.0179461
0.0179355
0.0179249
0.0179143
0.0179044
0.0182371
0.018226
0.0182148
0.0182036
0.0181925
0.0181814
0.0181702
0.0181591
0.018148
0.0181369
0.0181259
0.0181149
0.0181046
0.0184874
0.0184758
0.0184642
0.0184526
0.018441
0.0184294
0.0184178
0.0184063
0.0183947
0.0183832
0.0183717
0.0183602
0.0183495
0.018761
0.0187494
0.0187378
0.0187261
0.0187145
0.0187028
0.0186912
0.0186795
0.0186679
0.0186562
0.0186446
0.0186331
0.0186223
0.0188915
0.0184009
0.0183879
0.0183749
0.0183618
0.0183487
0.0183356
0.0183226
0.0183096
0.0182966
0.0182837
0.0182709
0.0182582
0.0182455
0.018233
0.0182205
0.0182081
0.0181958
0.0181836
0.0181715
0.0181594
0.0181474
0.0181354
0.0181235
0.0181117
0.0180998
0.018088
0.0180761
0.0180643
0.0180525
0.0180406
0.0180288
0.0180169
0.018005
0.0179931
0.0179812
0.0179693
0.0179573
0.0179454
0.0179334
0.0179215
0.0179096
0.0178977
0.0178859
0.0178741
0.0178623
0.0178506
0.017839
0.0178274
0.0178159
0.0178045
0.0177932
0.0177819
0.0177707
0.0177596
0.0177486
0.0177377
0.0177268
0.017716
0.0177053
0.0176946
0.017684
0.0176734
0.0176629
0.0176525
0.017642
0.0176317
0.0176213
0.017611
0.0176007
0.0175904
0.0175802
0.0175699
0.0175596
0.0175494
0.0175392
0.017529
0.0175193
0.0184098
0.018397
0.0183841
0.0183712
0.0183583
0.0183454
0.0183325
0.0183196
0.0183067
0.0182939
0.0182812
0.0182686
0.018256
0.0182436
0.0182312
0.0182189
0.0182067
0.0181946
0.0181825
0.0181706
0.0181587
0.0181468
0.018135
0.0181233
0.0181115
0.0180998
0.0180881
0.0180764
0.0180647
0.0180529
0.0180412
0.0180295
0.0180177
0.0180059
0.0179941
0.0179823
0.0179704
0.0179586
0.0179468
0.0179349
0.0179231
0.0179113
0.0178996
0.0178879
0.0178762
0.0178646
0.017853
0.0178415
0.0178301
0.0178187
0.0178075
0.0177963
0.0177852
0.0177741
0.0177632
0.0177523
0.0177415
0.0177307
0.01772
0.0177094
0.0176989
0.0176884
0.0176779
0.0176675
0.0176571
0.0176468
0.0176365
0.0176263
0.017616
0.0176058
0.0175955
0.0175853
0.0175751
0.0175649
0.0175547
0.0175445
0.017535
0.0184341
0.0184217
0.0184091
0.0183965
0.0183839
0.0183713
0.0183586
0.018346
0.0183334
0.0183208
0.0183083
0.0182959
0.0182835
0.0182712
0.018259
0.0182469
0.0182349
0.018223
0.0182111
0.0181993
0.0181876
0.0181759
0.0181643
0.0181527
0.0181412
0.0181296
0.0181181
0.0181066
0.0180951
0.0180835
0.018072
0.0180605
0.0180489
0.0180373
0.0180257
0.018014
0.0180024
0.0179907
0.0179791
0.0179674
0.0179558
0.0179442
0.0179326
0.017921
0.0179095
0.0178981
0.0178866
0.0178753
0.017864
0.0178528
0.0178416
0.0178305
0.0178195
0.0178086
0.0177977
0.017787
0.0177762
0.0177656
0.017755
0.0177445
0.017734
0.0177236
0.0177132
0.0177029
0.0176926
0.0176824
0.0176721
0.0176619
0.0176518
0.0176416
0.0176314
0.0176213
0.0176111
0.017601
0.0175908
0.0175807
0.0175712
0.0184877
0.0184758
0.0184639
0.0184518
0.0184396
0.0184274
0.0184151
0.0184028
0.0183905
0.0183783
0.018366
0.0183538
0.0183416
0.0183295
0.0183175
0.0183056
0.0182937
0.018282
0.0182703
0.0182586
0.0182471
0.0182356
0.0182241
0.0182127
0.0182013
0.0181899
0.0181786
0.0181673
0.0181559
0.0181446
0.0181332
0.0181219
0.0181105
0.0180991
0.0180877
0.0180763
0.0180648
0.0180534
0.0180419
0.0180305
0.018019
0.0180076
0.0179962
0.0179848
0.0179735
0.0179622
0.0179509
0.0179397
0.0179286
0.0179175
0.0179065
0.0178955
0.0178846
0.0178738
0.0178631
0.0178524
0.0178417
0.0178311
0.0178206
0.0178102
0.0177998
0.0177894
0.017779
0.0177688
0.0177585
0.0177483
0.017738
0.0177279
0.0177177
0.0177075
0.0176974
0.0176872
0.0176771
0.0176669
0.0176568
0.0176467
0.0176372
0.0185887
0.0185775
0.0185661
0.0185545
0.0185428
0.018531
0.0185191
0.0185071
0.0184951
0.018483
0.0184709
0.0184588
0.0184467
0.0184346
0.0184227
0.0184108
0.0183989
0.0183872
0.0183755
0.0183638
0.0183523
0.0183407
0.0183293
0.0183179
0.0183065
0.0182951
0.0182838
0.0182725
0.0182612
0.0182499
0.0182386
0.0182273
0.018216
0.0182047
0.0181934
0.0181821
0.0181707
0.0181594
0.0181481
0.0181367
0.0181254
0.0181141
0.0181029
0.0180916
0.0180804
0.0180692
0.0180581
0.018047
0.0180359
0.0180249
0.0180139
0.018003
0.0179922
0.0179813
0.0179706
0.0179599
0.0179492
0.0179386
0.0179281
0.0179175
0.0179071
0.0178966
0.0178862
0.0178758
0.0178654
0.017855
0.0178447
0.0178344
0.0178241
0.0178138
0.0178035
0.0177932
0.0177829
0.0177727
0.0177624
0.0177522
0.0177426
0.0187496
0.018739
0.0187281
0.0187169
0.0187056
0.018694
0.0186823
0.0186704
0.0186584
0.0186463
0.0186342
0.0186219
0.0186097
0.0185974
0.0185852
0.0185731
0.018561
0.018549
0.018537
0.0185251
0.0185132
0.0185014
0.0184896
0.0184779
0.0184663
0.0184547
0.0184431
0.0184316
0.0184201
0.0184086
0.0183972
0.0183858
0.0183743
0.0183629
0.0183515
0.0183402
0.0183288
0.0183174
0.0183061
0.0182947
0.0182834
0.0182721
0.0182609
0.0182496
0.0182384
0.0182273
0.0182161
0.018205
0.0181939
0.0181828
0.0181718
0.0181609
0.0181499
0.018139
0.0181281
0.0181173
0.0181064
0.0180957
0.0180849
0.0180742
0.0180634
0.0180527
0.018042
0.0180314
0.0180207
0.01801
0.0179994
0.0179887
0.0179781
0.0179674
0.0179568
0.0179462
0.0179356
0.017925
0.0179145
0.0179039
0.0178941
0.0189673
0.0189571
0.0189466
0.0189357
0.0189246
0.0189132
0.0189015
0.0188897
0.0188776
0.0188654
0.0188531
0.0188406
0.0188281
0.0188156
0.018803
0.0187905
0.018778
0.0187655
0.0187531
0.0187407
0.0187284
0.0187161
0.0187039
0.0186917
0.0186797
0.0186676
0.0186557
0.0186438
0.0186319
0.0186201
0.0186084
0.0185966
0.018585
0.0185734
0.0185618
0.0185502
0.0185387
0.0185272
0.0185158
0.0185044
0.018493
0.0184816
0.0184703
0.018459
0.0184478
0.0184366
0.0184253
0.0184142
0.018403
0.0183919
0.0183807
0.0183696
0.0183585
0.0183475
0.0183364
0.0183253
0.0183143
0.0183032
0.0182922
0.0182811
0.0182701
0.018259
0.0182479
0.0182368
0.0182257
0.0182146
0.0182035
0.0181924
0.0181813
0.0181702
0.0181591
0.018148
0.0181369
0.0181258
0.0181148
0.0181038
0.0180936
0.0192155
0.019206
0.0191961
0.0191858
0.0191752
0.0191643
0.0191531
0.0191416
0.0191299
0.0191179
0.0191058
0.0190936
0.0190812
0.0190687
0.0190562
0.0190436
0.0190311
0.0190185
0.0190059
0.0189934
0.0189808
0.0189684
0.0189559
0.0189436
0.0189313
0.0189191
0.0189069
0.0188948
0.0188828
0.0188709
0.018859
0.0188472
0.0188355
0.0188238
0.0188122
0.0188007
0.0187892
0.0187777
0.0187664
0.018755
0.0187438
0.0187325
0.0187213
0.0187102
0.018699
0.0186879
0.0186768
0.0186657
0.0186547
0.0186436
0.0186325
0.0186215
0.0186104
0.0185993
0.0185881
0.018577
0.0185658
0.0185547
0.0185434
0.0185322
0.0185209
0.0185095
0.0184981
0.0184867
0.0184752
0.0184637
0.0184522
0.0184406
0.0184291
0.0184175
0.018406
0.0183944
0.0183829
0.0183714
0.0183599
0.0183485
0.0183378
0.0194512
0.0194429
0.0194342
0.0194251
0.0194157
0.0194058
0.0193956
0.0193852
0.0193745
0.0193635
0.0193523
0.0193409
0.0193294
0.0193177
0.0193059
0.0192941
0.0192821
0.0192702
0.0192582
0.0192462
0.0192342
0.0192222
0.0192103
0.0191984
0.0191865
0.0191748
0.0191631
0.0191514
0.0191399
0.0191284
0.019117
0.0191057
0.0190944
0.0190832
0.0190722
0.0190611
0.0190502
0.0190393
0.0190284
0.0190177
0.0190069
0.0189963
0.0189856
0.018975
0.0189645
0.0189539
0.0189434
0.0189328
0.0189223
0.0189117
0.0189011
0.0188905
0.0188798
0.0188691
0.0188584
0.0188476
0.0188368
0.0188259
0.0188149
0.0188038
0.0187927
0.0187814
0.0187702
0.0187587
0.0187473
0.0187358
0.0187243
0.0187127
0.0187011
0.0186895
0.0186778
0.0186662
0.0186546
0.018643
0.0186314
0.0186199
0.0186092
0.0196494
0.0196427
0.0196355
0.0196279
0.0196199
0.0196115
0.0196027
0.0195936
0.0195842
0.0195746
0.0195647
0.0195546
0.0195442
0.0195338
0.0195232
0.0195125
0.0195017
0.0194908
0.0194799
0.0194689
0.0194579
0.019447
0.019436
0.0194251
0.0194143
0.0194034
0.0193927
0.019382
0.0193714
0.0193609
0.0193504
0.0193401
0.0193298
0.0193195
0.0193094
0.0192993
0.0192893
0.0192794
0.0192695
0.0192597
0.0192499
0.0192402
0.0192306
0.0192209
0.0192113
0.0192017
0.0191921
0.0191825
0.0191728
0.0191631
0.0191534
0.0191437
0.0191339
0.019124
0.0191141
0.0191041
0.019094
0.0190838
0.0190735
0.0190631
0.0190526
0.019042
0.0190312
0.0190204
0.0190095
0.0189985
0.0189873
0.0189762
0.018965
0.0189538
0.0189425
0.0189313
0.0189201
0.0189089
0.0188977
0.0188866
0.0188763
0.01981
0.019805
0.0197994
0.0197934
0.0197869
0.01978
0.0197727
0.019765
0.019757
0.0197487
0.0197401
0.0197313
0.0197223
0.019713
0.0197036
0.0196941
0.0196845
0.0196748
0.019665
0.0196552
0.0196454
0.0196356
0.0196257
0.0196159
0.0196062
0.0195965
0.0195868
0.0195772
0.0195677
0.0195583
0.0195489
0.0195396
0.0195304
0.0195213
0.0195123
0.0195033
0.0194944
0.0194856
0.0194768
0.0194681
0.0194595
0.0194509
0.0194423
0.0194338
0.0194252
0.0194167
0.0194082
0.0193996
0.0193911
0.0193825
0.0193738
0.0193651
0.0193563
0.0193475
0.0193385
0.0193295
0.0193204
0.0193111
0.0193017
0.0192922
0.0192825
0.0192727
0.0192628
0.0192527
0.0192426
0.0192324
0.0192221
0.0192116
0.0192011
0.0191906
0.01918
0.0191695
0.0191589
0.0191484
0.0191379
0.0191275
0.0191178
0.0199441
0.0199408
0.0199368
0.0199324
0.0199274
0.0199219
0.019916
0.0199097
0.0199029
0.0198959
0.0198885
0.0198808
0.0198729
0.0198647
0.0198564
0.0198479
0.0198393
0.0198306
0.0198218
0.019813
0.0198041
0.0197952
0.0197863
0.0197775
0.0197687
0.01976
0.0197513
0.0197427
0.0197342
0.0197257
0.0197174
0.0197091
0.0197009
0.0196929
0.0196849
0.019677
0.0196692
0.0196614
0.0196537
0.0196461
0.0196386
0.0196311
0.0196237
0.0196163
0.0196089
0.0196014
0.019594
0.0195866
0.0195791
0.0195716
0.019564
0.0195563
0.0195486
0.0195408
0.0195328
0.0195248
0.0195166
0.0195083
0.0194998
0.0194912
0.0194824
0.0194734
0.0194642
0.0194551
0.0194457
0.0194362
0.0194265
0.0194169
0.0194071
0.0193973
0.0193875
0.0193776
0.0193678
0.0193579
0.0193482
0.0193384
0.0193294
0.0200642
0.0200625
0.0200602
0.0200573
0.0200538
0.0200498
0.0200452
0.0200401
0.0200346
0.0200286
0.0200222
0.0200155
0.0200085
0.0200012
0.0199937
0.0199861
0.0199782
0.0199703
0.0199622
0.0199541
0.0199459
0.0199378
0.0199296
0.0199215
0.0199134
0.0199054
0.0198974
0.0198896
0.0198819
0.0198742
0.0198667
0.0198593
0.019852
0.0198448
0.0198378
0.0198308
0.0198239
0.0198172
0.0198105
0.0198039
0.0197974
0.019791
0.0197846
0.0197783
0.0197719
0.0197656
0.0197592
0.0197528
0.0197464
0.0197399
0.0197333
0.0197266
0.0197199
0.019713
0.019706
0.0196989
0.0196915
0.019684
0.0196763
0.0196684
0.0196604
0.0196521
0.0196437
0.019635
0.0196263
0.0196174
0.0196084
0.0195993
0.0195901
0.0195808
0.0195715
0.0195622
0.0195529
0.0195436
0.0195344
0.0195253
0.0195168
0.0201812
0.0201814
0.0201809
0.0201796
0.0201777
0.020175
0.0201718
0.0201679
0.0201635
0.0201585
0.020153
0.0201471
0.0201408
0.0201342
0.0201273
0.0201202
0.0201129
0.0201054
0.0200978
0.0200901
0.0200823
0.0200745
0.0200668
0.0200591
0.0200514
0.0200438
0.0200364
0.020029
0.0200218
0.0200148
0.0200079
0.0200011
0.0199945
0.0199881
0.0199819
0.0199757
0.0199698
0.0199639
0.0199582
0.0199526
0.0199471
0.0199417
0.0199363
0.019931
0.0199258
0.0199205
0.0199151
0.0199098
0.0199044
0.0198989
0.0198933
0.0198876
0.0198817
0.0198757
0.0198696
0.0198632
0.0198566
0.0198498
0.0198427
0.0198354
0.0198278
0.01982
0.019812
0.0198038
0.0197954
0.0197868
0.019778
0.0197692
0.0197603
0.0197513
0.0197423
0.0197333
0.0197243
0.0197153
0.0197064
0.0196976
0.0196894
0.0203041
0.0203064
0.0203078
0.0203084
0.0203081
0.0203069
0.0203051
0.0203024
0.0202991
0.0202951
0.0202905
0.0202852
0.0202795
0.0202734
0.0202669
0.0202602
0.0202531
0.0202459
0.0202384
0.0202309
0.0202232
0.0202155
0.0202079
0.0202003
0.0201928
0.0201854
0.0201781
0.020171
0.0201641
0.0201574
0.0201509
0.0201447
0.0201386
0.0201328
0.0201272
0.0201218
0.0201166
0.0201116
0.0201068
0.0201022
0.0200977
0.0200933
0.0200889
0.0200847
0.0200805
0.0200762
0.020072
0.0200677
0.0200632
0.0200587
0.0200541
0.0200493
0.0200443
0.0200391
0.0200337
0.020028
0.020022
0.0200156
0.020009
0.020002
0.0199948
0.0199872
0.0199794
0.0199711
0.0199628
0.0199542
0.0199456
0.0199366
0.0199276
0.0199186
0.0199095
0.0199004
0.0198914
0.0198824
0.0198735
0.0198648
0.0198567
0.0204403
0.020445
0.0204486
0.0204511
0.0204527
0.0204532
0.0204528
0.0204515
0.0204493
0.0204462
0.0204423
0.0204377
0.0204324
0.0204266
0.0204204
0.0204137
0.0204066
0.0203993
0.0203918
0.020384
0.0203761
0.0203682
0.0203603
0.0203525
0.0203448
0.0203373
0.0203299
0.0203228
0.020316
0.0203094
0.0203031
0.0202971
0.0202915
0.0202862
0.0202811
0.0202764
0.020272
0.0202678
0.0202639
0.0202602
0.0202567
0.0202534
0.0202502
0.020247
0.020244
0.0202409
0.0202378
0.0202346
0.0202312
0.0202278
0.0202241
0.0202202
0.0202161
0.0202117
0.0202069
0.0202017
0.0201962
0.0201902
0.0201838
0.0201769
0.0201696
0.020162
0.0201539
0.0201456
0.0201368
0.0201279
0.0201186
0.0201094
0.0201
0.0200905
0.020081
0.0200715
0.020062
0.0200527
0.0200435
0.0200344
0.0200262
0.0205948
0.0206021
0.0206082
0.0206129
0.0206165
0.0206188
0.02062
0.02062
0.020619
0.0206168
0.0206136
0.0206095
0.0206046
0.020599
0.0205927
0.0205859
0.0205787
0.020571
0.020563
0.0205548
0.0205463
0.0205379
0.0205294
0.020521
0.0205128
0.0205047
0.020497
0.0204895
0.0204824
0.0204756
0.0204693
0.0204634
0.0204579
0.0204528
0.0204482
0.020444
0.0204402
0.0204367
0.0204336
0.0204309
0.0204284
0.0204261
0.020424
0.0204221
0.0204202
0.0204183
0.0204163
0.0204142
0.020412
0.0204096
0.0204069
0.0204039
0.0204006
0.0203968
0.0203926
0.0203878
0.0203825
0.0203766
0.0203702
0.0203632
0.0203556
0.0203476
0.0203391
0.02033
0.0203207
0.020311
0.0203012
0.020291
0.0202807
0.0202704
0.02026
0.0202497
0.0202395
0.0202294
0.0202195
0.0202098
0.0202011
0.0207697
0.0207799
0.0207885
0.0207955
0.0208011
0.0208052
0.020808
0.0208093
0.0208094
0.0208081
0.0208055
0.0208018
0.0207971
0.0207914
0.020785
0.0207778
0.0207699
0.0207615
0.0207527
0.0207435
0.0207341
0.0207246
0.0207151
0.0207056
0.0206964
0.0206874
0.0206787
0.0206704
0.0206626
0.0206552
0.0206484
0.0206421
0.0206364
0.0206313
0.0206268
0.0206228
0.0206193
0.0206164
0.0206139
0.0206119
0.0206102
0.0206089
0.0206078
0.0206069
0.0206061
0.0206053
0.0206044
0.0206034
0.0206023
0.0206008
0.020599
0.0205968
0.0205941
0.0205908
0.0205869
0.0205823
0.0205771
0.0205711
0.0205644
0.0205571
0.020549
0.0205403
0.020531
0.0205213
0.0205109
0.0205002
0.0204891
0.0204779
0.0204665
0.020455
0.0204435
0.020432
0.0204206
0.0204094
0.0203985
0.0203877
0.0203781
0.0209606
0.0209729
0.0209834
0.0209921
0.0209991
0.0210045
0.0210084
0.0210108
0.0210116
0.021011
0.0210089
0.0210055
0.0210009
0.0209951
0.0209882
0.0209805
0.0209718
0.0209625
0.0209525
0.0209421
0.0209313
0.0209203
0.0209092
0.0208982
0.0208874
0.0208768
0.0208666
0.0208569
0.0208476
0.020839
0.0208309
0.0208236
0.0208169
0.0208109
0.0208057
0.0208011
0.0207973
0.020794
0.0207914
0.0207893
0.0207878
0.0207866
0.0207858
0.0207853
0.0207849
0.0207846
0.0207843
0.0207838
0.0207831
0.0207821
0.0207807
0.0207788
0.0207763
0.0207731
0.0207692
0.0207646
0.0207592
0.020753
0.020746
0.0207383
0.0207298
0.0207206
0.0207107
0.0207001
0.0206891
0.0206775
0.0206657
0.0206533
0.0206408
0.0206281
0.0206154
0.0206027
0.02059
0.0205775
0.0205652
0.0205533
0.0205425
0.0211449
0.0211571
0.0211674
0.0211759
0.0211828
0.0211882
0.0211922
0.0211947
0.0211959
0.0211956
0.021194
0.0211911
0.0211868
0.021181
0.021174
0.0211658
0.0211565
0.0211463
0.0211352
0.0211234
0.021111
0.0210983
0.0210854
0.0210723
0.0210593
0.0210465
0.021034
0.0210219
0.0210102
0.0209991
0.0209886
0.0209787
0.0209696
0.0209613
0.0209537
0.0209469
0.0209408
0.0209355
0.0209308
0.0209269
0.0209235
0.0209207
0.0209184
0.0209165
0.0209148
0.0209133
0.0209119
0.0209104
0.0209088
0.020907
0.0209048
0.0209022
0.020899
0.0208953
0.020891
0.0208862
0.0208807
0.0208747
0.020868
0.0208607
0.0208527
0.0208441
0.0208347
0.0208249
0.0208143
0.0208032
0.0207914
0.0207793
0.0207668
0.020754
0.0207409
0.0207276
0.0207142
0.0207008
0.0206875
0.0206742
0.0206621
0.0212662
0.0212732
0.0212788
0.0212829
0.021286
0.0212883
0.02129
0.0212912
0.0212918
0.0212919
0.0212913
0.0212899
0.0212873
0.0212831
0.0212774
0.0212703
0.0212618
0.0212521
0.0212411
0.0212291
0.0212162
0.0212024
0.0211881
0.0211732
0.0211579
0.0211424
0.0211268
0.0211112
0.0210956
0.0210802
0.0210651
0.0210504
0.0210361
0.0210223
0.0210091
0.0209964
0.0209844
0.020973
0.0209623
0.0209523
0.0209429
0.0209342
0.0209261
0.0209185
0.0209115
0.0209048
0.0208986
0.0208927
0.0208869
0.0208814
0.0208758
0.0208703
0.0208649
0.0208596
0.0208547
0.02085
0.0208455
0.0208413
0.0208371
0.020833
0.0208288
0.0208243
0.0208195
0.020814
0.0208081
0.0208014
0.0207941
0.0207858
0.0207768
0.0207669
0.0207563
0.0207449
0.0207329
0.0207202
0.0207069
0.0206933
0.0206802
0.0212042
0.0211948
0.0211858
0.0211776
0.0211709
0.021166
0.0211632
0.0211626
0.0211639
0.0211667
0.0211702
0.0211733
0.0211749
0.0211749
0.0211734
0.0211703
0.0211653
0.0211587
0.0211502
0.02114
0.0211282
0.0211148
0.0210998
0.0210834
0.0210656
0.0210466
0.0210265
0.0210053
0.0209831
0.0209602
0.0209367
0.0209126
0.0208882
0.0208635
0.0208386
0.0208138
0.0207891
0.0207646
0.0207406
0.0207171
0.0206942
0.0206721
0.0206508
0.0206304
0.020611
0.0205926
0.0205754
0.0205593
0.0205446
0.0205308
0.0205186
0.0205083
0.0205004
0.0204949
0.020492
0.0204917
0.0204937
0.0204977
0.0205036
0.0205108
0.0205189
0.0205272
0.0205359
0.0205437
0.0205508
0.0205564
0.0205608
0.0205633
0.0205638
0.0205622
0.0205585
0.0205526
0.0205445
0.0205344
0.0205223
0.0205095
0.02073
0.0206858
0.020647
0.020614
0.0205881
0.0205703
0.0205611
0.0205602
0.0205672
0.0205805
0.0205983
0.0206175
0.0206359
0.0206531
0.0206687
0.0206823
0.0206934
0.0207017
0.020707
0.0207088
0.0207072
0.0207019
0.0206927
0.0206798
0.020663
0.0206425
0.0206182
0.0205902
0.0205589
0.0205242
0.0204865
0.020446
0.0204029
0.0203576
0.0203104
0.0202615
0.0202114
0.0201604
0.020109
0.0200574
0.0200063
0.0199558
0.0199065
0.0198587
0.0198129
0.0197697
0.0197291
0.019692
0.0196583
0.0196286
0.0196041
0.019586
0.0195749
0.0195713
0.0195753
0.0195866
0.0196048
0.0196292
0.0196589
0.0196928
0.0197298
0.0197689
0.0198083
0.0198477
0.0198854
0.019921
0.0199531
0.0199814
0.0200052
0.0200242
0.0200382
0.0200468
0.0200501
0.0200481
0.0200411
0.0200306
0.0193707
0.0192793
0.0192069
0.0191534
0.0191198
0.0191069
0.0191141
0.0191396
0.0191806
0.0192325
0.0192894
0.019347
0.0194043
0.0194603
0.0195137
0.0195636
0.0196088
0.0196485
0.0196819
0.0197081
0.0197267
0.0197371
0.0197391
0.0197323
0.0197168
0.0196925
0.0196596
0.0196181
0.0195684
0.019511
0.0194461
0.0193744
0.0192964
0.0192128
0.0191243
0.0190316
0.0189358
0.0188377
0.0187383
0.0186387
0.0185401
0.0184436
0.0183505
0.0182622
0.0181799
0.0181051
0.0180396
0.0179833
0.0179393
0.0179095
0.0178955
0.0178979
0.0179166
0.0179508
0.0179995
0.0180608
0.0181331
0.018214
0.0183015
0.0183933
0.018487
0.0185811
0.0186729
0.0187611
0.0188438
0.0189201
0.0189887
0.0190487
0.0190996
0.019141
0.0191728
0.019195
0.0192082
0.0192129
0.0192122
0.016701
0.0165871
0.0165127
0.0164734
0.01647
0.0165015
0.0165651
0.0166561
0.0167673
0.0168891
0.0170151
0.0171433
0.0172715
0.0173973
0.0175186
0.017633
0.0177384
0.017833
0.017915
0.017983
0.0180358
0.0180724
0.0180923
0.018095
0.0180803
0.0180483
0.0179993
0.0179338
0.0178524
0.0177562
0.0176461
0.0175236
0.0173901
0.0172476
0.0170983
0.0169444
0.0167889
0.0166346
0.0164848
0.0163429
0.0162124
0.016097
0.016
0.0159248
0.0158746
0.0158519
0.0158595
0.0158986
0.0159676
0.0160636
0.0161833
0.0163226
0.0164776
0.0166444
0.0168192
0.0169986
0.0171795
0.0173592
0.0175354
0.017706
0.0178691
0.018024
0.0181691
0.0183042
0.0184287
0.018543
0.0186476
0.0187434
0.0188318
0.0189148
0.0189947
0.019074
0.0191565
0.0192474
0.0129804
0.01291
0.0128826
0.0128987
0.0129575
0.0130566
0.013192
0.0133567
0.0135408
0.013737
0.0139424
0.0141536
0.0143668
0.0145777
0.0147819
0.0149754
0.0151545
0.0153158
0.0154562
0.0155732
0.0156649
0.0157296
0.0157667
0.0157757
0.015757
0.0157118
0.0156418
0.0155498
0.0154391
0.0153142
0.0151803
0.0150434
0.0149101
0.0147872
0.0146816
0.0146
0.0145483
0.0145317
0.0145543
0.0146194
0.0147289
0.0148834
0.0150853
0.0153314
0.0156227
0.0159592
0.0163272
0.0167146
0.0171117
0.0175104
0.0179047
0.0182898
0.0186624
0.0190203
0.0193622
0.0196874
0.0199961
0.0202889
0.0205667
0.0208316
0.0210848
0.0213294
0.0215676
0.0218032
0.0220394
0.0222799
0.0225289
0.0227907
0.0230701
0.0233716
0.0237001
0.0240604
0.0244507
0.00966031
0.00962944
0.00962661
0.00965181
0.00970506
0.00978746
0.00990023
0.0100435
0.010216
0.0104138
0.0106334
0.0108709
0.0111213
0.0113793
0.011639
0.0118944
0.0121397
0.0123695
0.0125792
0.0127651
0.0129251
0.0130587
0.0131675
0.0132553
0.0133282
0.0133947
0.0134647
0.0135494
0.01366
0.0138068
0.0139984
0.0142411
0.0145385
0.0148919
0.0153006
0.0157618
0.0162722
0.0168271
0.0174215
0.0180517
0.0187118
0.0193999
0.0201114
0.020837
0.021588
0.0223472
0.0230969
0.0238254
0.0245257
0.025194
0.0258289
0.0264311
0.0270023
0.0275451
0.0280626
0.0285586
0.0290368
0.0295014
0.0299567
0.0304063
0.0308553
0.0313074
0.0317675
0.0322395
0.0327272
0.0332348
0.0337655
0.0343221
0.0349111
0.0355348
0.0361927
0.0368884
0.037596
0.00829911
0.00839212
0.00842904
0.00844997
0.00845531
0.00844884
0.00844026
0.00844419
0.00847847
0.00855441
0.0086682
0.00881648
0.00899535
0.00920055
0.00942778
0.00967322
0.00993419
0.01021
0.0105027
0.0108181
0.0111654
0.0115573
0.0120083
0.0125328
0.0131431
0.0138473
0.0146478
0.0155419
0.0165216
0.0175751
0.0186888
0.0198479
0.021038
0.022246
0.0234604
0.0246718
0.0258728
0.0270571
0.028222
0.0293635
0.0304787
0.031573
0.0326388
0.0336818
0.034705
0.0356888
0.0366278
0.0375206
0.0383688
0.0391755
0.039945
0.0406816
0.0413902
0.0420752
0.042741
0.0433918
0.0440317
0.0446644
0.0452929
0.0459212
0.0465508
0.0471864
0.0478291
0.0484814
0.0491446
0.0498203
0.0505101
0.0512147
0.0519352
0.052673
0.0534313
0.0542128
0.0549744
0.0106411
0.0108534
0.0108693
0.0107967
0.0106404
0.0104192
0.0101717
0.00995128
0.00979806
0.00970655
0.00967612
0.00970899
0.00981072
0.00999083
0.0102632
0.0106462
0.0111615
0.0118321
0.0126791
0.0137174
0.0149528
0.0163796
0.0179805
0.0197287
0.0215911
0.0235317
0.025515
0.0275087
0.029485
0.0314217
0.0333023
0.0351154
0.0368538
0.0385144
0.0400974
0.041604
0.0430387
0.0444057
0.045708
0.046957
0.0481486
0.0492852
0.0503946
0.0514444
0.0524395
0.0533855
0.0542878
0.0551515
0.0559812
0.0567809
0.0575544
0.0583048
0.0590351
0.0597482
0.0604464
0.0611318
0.0618067
0.062473
0.0631318
0.0637857
0.0644354
0.0650826
0.0657278
0.0663725
0.0670174
0.0676633
0.0683111
0.0689611
0.0696142
0.070276
0.0709523
0.0715992
0.0191929
0.0194159
0.019306
0.0190308
0.0186371
0.0181747
0.0177757
0.0174043
0.0170825
0.0168386
0.0167072
0.0167269
0.0169387
0.0173837
0.0180993
0.0191136
0.0204411
0.022079
0.0240056
0.0261815
0.0285544
0.0310646
0.0336516
0.0362591
0.0388385
0.0413507
0.043767
0.0460681
0.0482433
0.0502884
0.0522046
0.0539967
0.0556728
0.0572411
0.0587117
0.0600956
0.0613996
0.0626363
0.0638089
0.064919
0.0659942
0.0670044
0.0679573
0.0688622
0.0697262
0.0705542
0.0713502
0.072117
0.072857
0.0735723
0.0742646
0.074936
0.075588
0.0762222
0.0768404
0.0774441
0.0780346
0.0786135
0.0791827
0.079743
0.0802947
0.0808387
0.0813764
0.0819081
0.082433
0.0829522
0.0834683
0.0839817
0.0844942
0.0850128
0.0855127
0.037443
0.0376355
0.0375055
0.0371287
0.0365664
0.035738
0.0347665
0.0337692
0.0328531
0.0321127
0.0316332
0.0314831
0.0317223
0.0323952
0.0335145
0.0350897
0.0370871
0.0394266
0.0420201
0.0447785
0.0476137
0.0504476
0.0532224
0.0558871
0.0584108
0.060776
0.0629755
0.0650108
0.066889
0.0686208
0.0702195
0.0716983
0.0730705
0.0743512
0.0755487
0.0766758
0.0777405
0.078743
0.0797026
0.0806071
0.081453
0.0822523
0.0830126
0.083739
0.0844346
0.0851017
0.0857421
0.0863573
0.0869488
0.0875185
0.0880681
0.0885992
0.0891136
0.0896129
0.0900982
0.0905714
0.0910334
0.0914856
0.0919279
0.0923616
0.0927867
0.0932027
0.09361
0.0940103
0.0944015
0.0947811
0.0951537
0.0955271
0.095907
0.0962713
0.0571785
0.0563408
0.0552715
0.0539076
0.0524434
0.0510105
0.0497099
0.0486217
0.0478208
0.0473693
0.0473061
0.0476816
0.0485031
0.0497555
0.0514467
0.0535307
0.0559579
0.0586187
0.0613896
0.0641636
0.0668642
0.069438
0.0718503
0.074084
0.0761344
0.0780065
0.0797111
0.0812629
0.0826783
0.0839738
0.0851647
0.086267
0.08729
0.0882454
0.0891437
0.0899838
0.0907777
0.0915271
0.0922204
0.0928704
0.0934841
0.0940664
0.09462
0.0951474
0.0956502
0.0961303
0.0965893
0.0970291
0.0974518
0.0978594
0.0982537
0.0986363
0.0990088
0.0993721
0.0997271
0.100075
0.100415
0.100748
0.101073
0.101391
0.101702
0.102003
0.102294
0.102573
0.102845
0.103104
0.103352
0.103599
0.103842
0.0691244
0.0681693
0.0670841
0.0659503
0.0648057
0.0637351
0.0628187
0.0621313
0.061742
0.0616951
0.0620355
0.0627715
0.0638924
0.0653913
0.0672114
0.0692743
0.0715675
0.0740261
0.0765163
0.0789404
0.0812394
0.0833769
0.085336
0.0871131
0.0887151
0.0901549
0.0914484
0.0926134
0.0936669
0.0946251
0.0955026
0.0963103
0.0970576
0.097755
0.0984005
0.0990017
0.0995668
0.100082
0.100557
0.101
0.101415
0.101805
0.102171
0.102518
0.102846
0.103158
0.103456
0.103743
0.10402
0.104291
0.104556
0.104816
0.105074
0.105328
0.10558
0.105828
0.106073
0.106313
0.106549
0.106779
0.107002
0.107215
0.107422
0.107617
0.107797
0.107965
0.108123
0.108281
0.108434
0.076225
0.0759982
0.0755891
0.0751247
0.0746898
0.074364
0.0742346
0.0743549
0.07476
0.07547
0.076503
0.077798
0.0793516
0.0811207
0.0829877
0.0849543
0.0869862
0.0889787
0.0908675
0.0926137
0.0941997
0.0956224
0.0968876
0.0980092
0.0990013
0.0998824
0.100667
0.101371
0.102006
0.102584
0.103111
0.103596
0.104036
0.10444
0.10481
0.105138
0.105431
0.105696
0.105935
0.106153
0.106352
0.106535
0.106705
0.106866
0.10702
0.107169
0.107316
0.107463
0.107613
0.107765
0.10792
0.108079
0.108242
0.108405
0.108571
0.108736
0.1089
0.109063
0.109221
0.109375
0.109524
0.109667
0.109802
0.109928
0.110043
0.11015
0.110252
0.110339
0.08318
0.0836152
0.0838924
0.0840998
0.0842806
0.0846719
0.0852544
0.0859927
0.0869412
0.088066
0.089345
0.0907399
0.0922389
0.0937282
0.0952317
0.0967143
0.0981213
0.0994142
0.100577
0.101607
0.102506
0.103291
0.103969
0.104561
0.105073
0.105525
0.105919
0.106271
0.106579
0.106855
0.107092
0.107301
0.107476
0.107622
0.107733
0.107823
0.107888
0.10794
0.107973
0.108
0.108017
0.108034
0.108048
0.108068
0.108091
0.108124
0.108165
0.108215
0.108277
0.108348
0.108429
0.108516
0.108611
0.108709
0.108813
0.108919
0.109027
0.109137
0.109246
0.109357
0.109466
0.109573
0.109673
0.109767
0.109852
0.109928
0.109974
0.0885227
0.0896151
0.0905301
0.0912147
0.018394
0.018381
0.018368
0.018355
0.0183419
0.0183288
0.0183158
0.0183028
0.0182899
0.018277
0.0182642
0.0182514
0.0182388
0.0182262
0.0182137
0.0182013
0.018189
0.0181768
0.0181647
0.0181526
0.0181406
0.0181286
0.0181167
0.0181048
0.018093
0.0180811
0.0180693
0.0180575
0.0180456
0.0180338
0.0180219
0.0180101
0.0179982
0.0179863
0.0179744
0.0179625
0.0179505
0.0179386
0.0179267
0.0179148
0.0179029
0.017891
0.0178792
0.0178674
0.0178556
0.017844
0.0178323
0.0178208
0.0178093
0.0177978
0.0177865
0.0177752
0.017764
0.0177529
0.0177419
0.0177309
0.0177201
0.0177092
0.0176985
0.0176878
0.0176772
0.0176666
0.0176561
0.0176456
0.0176352
0.0176248
0.0176145
0.0176041
0.0175938
0.0175835
0.0175733
0.017563
0.0175528
0.0175425
0.0175323
0.0175221
0.0175125
0.0184026
0.0183898
0.018377
0.0183641
0.0183512
0.0183383
0.0183253
0.0183125
0.0182996
0.0182869
0.0182741
0.0182615
0.0182489
0.0182365
0.0182241
0.0182118
0.0181996
0.0181874
0.0181754
0.0181634
0.0181515
0.0181396
0.0181278
0.018116
0.0181043
0.0180926
0.0180809
0.0180691
0.0180574
0.0180457
0.018034
0.0180222
0.0180105
0.0179987
0.0179869
0.0179751
0.0179633
0.0179514
0.0179396
0.0179278
0.017916
0.0179042
0.0178925
0.0178808
0.0178691
0.0178575
0.017846
0.0178345
0.0178231
0.0178117
0.0178004
0.0177892
0.0177781
0.0177671
0.0177561
0.0177452
0.0177344
0.0177236
0.017713
0.0177023
0.0176918
0.0176813
0.0176708
0.0176604
0.01765
0.0176397
0.0176294
0.0176191
0.0176088
0.0175986
0.0175884
0.0175781
0.0175679
0.0175577
0.0175476
0.0175374
0.0175278
0.0184261