/*--------------------------------*- C++ -*----------------------------------*\
  =========                 |
  \\      /  F ield         | OpenFOAM: The Open Source CFD Toolbox
   \\    /   O peration     | Website:  https://openfoam.org
    \\  /    A nd           | Version:  13
     \\/     M anipulation  |
\*---------------------------------------------------------------------------*/
FoamFile
{
    format      ascii;
    class       volScalarField;
    location    "500";
    object      omega;
}
// * * * * * * * * * * * * * * * * * * * * * * * * * * * * * * * * * * * * * //

dimensions      [0 0 -1 0 0 0 0];

internalField   nonuniform List<scalar> 
172836
(
11.8803
11.8436
11.8071
11.7708
11.7346
11.6986
11.6628
11.6271
11.8786
11.8419
11.8053
11.769
11.7328
11.6968
11.661
11.6254
11.9099
11.873
11.8363
11.7997
11.7633
11.7272
11.6912
11.6553
11.6197
11.8977
11.8608
11.8241
11.7876
11.7513
11.7151
11.6791
11.6433
11.6077
11.8743
11.8376
11.8011
11.7647
11.7285
11.6925
11.6567
11.621
11.5855
11.8365
11.8001
11.7638
11.7278
11.6919
11.6561
11.6206
11.5852
11.5499
11.7823
11.7463
11.7104
11.6748
11.6393
11.604
11.5688
11.5337
11.4988
11.7117
11.6762
11.6408
11.6056
11.5706
11.5356
11.5009
11.4662
11.4318
11.5978
11.5627
11.5277
11.4929
11.4583
11.4238
11.3894
11.3552
11.9865
11.9492
11.9121
11.8752
11.8385
11.802
11.7656
11.7295
11.6935
11.6577
11.6221
11.5867
11.5518
11.9846
11.9473
11.9102
11.8733
11.8366
11.8001
11.7638
11.7276
11.6917
11.6559
11.6203
11.5849
11.5501
11.979
11.9417
11.9046
11.8676
11.8309
11.7944
11.758
11.7219
11.6859
11.6501
11.6145
11.5791
11.5442
11.9665
11.9292
11.8921
11.8553
11.8186
11.7821
11.7458
11.7097
11.6738
11.638
11.6024
11.567
11.5322
11.9425
11.9054
11.8685
11.8318
11.7952
11.7589
11.7228
11.6868
11.651
11.6154
11.58
11.5447
11.51
11.9035
11.8667
11.8301
11.7936
11.7574
11.7214
11.6855
11.6498
11.6143
11.579
11.5438
11.5087
11.4743
11.8475
11.8111
11.7749
11.7389
11.7031
11.6675
11.632
11.5967
11.5616
11.5266
11.4918
11.4572
11.4231
11.7748
11.7389
11.7032
11.6676
11.6323
11.5971
11.5621
11.5273
11.4925
11.458
11.4236
11.3893
11.3556
11.6943
11.6587
11.6232
11.588
11.5529
11.518
11.4833
11.4487
11.4143
11.38
11.3459
11.3119
11.2785
11.2066
14.9184
14.8628
14.8075
14.7525
14.6979
14.6436
14.5896
14.5361
14.4828
14.43
14.3776
14.3255
14.2738
14.2225
14.1716
14.121
14.0708
14.0209
13.9714
13.9222
13.8734
13.8249
13.7766
13.7287
13.681
13.6337
13.5865
13.5397
13.4931
13.4467
13.4006
13.3547
13.309
13.2636
13.2184
13.1734
13.1287
13.0842
13.0399
12.9959
12.9521
12.9086
12.8654
12.8224
12.7797
12.7372
12.695
12.6531
12.6115
12.5701
12.529
12.4882
12.4477
12.4074
12.3674
12.3277
12.2883
12.2491
12.2101
12.1714
12.133
12.0947
12.0568
12.019
11.9815
11.9442
11.9071
11.8702
11.8335
11.797
11.7607
11.7246
11.6886
11.6529
11.6173
11.5819
11.5471
14.9181
14.8625
14.8072
14.7522
14.6975
14.6432
14.5893
14.5356
14.4824
14.4296
14.3771
14.325
14.2732
14.2219
14.1709
14.1203
14.0701
14.0202
13.9706
13.9214
13.8726
13.824
13.7757
13.7278
13.6801
13.6327
13.5856
13.5387
13.4921
13.4457
13.3996
13.3537
13.308
13.2626
13.2174
13.1724
13.1277
13.0831
13.0389
12.9948
12.951
12.9075
12.8642
12.8212
12.7784
12.7359
12.6937
12.6517
12.6101
12.5687
12.5275
12.4867
12.4461
12.4058
12.3658
12.326
12.2865
12.2473
12.2083
12.1696
12.1311
12.0929
12.0549
12.0171
11.9796
11.9423
11.9052
11.8683
11.8316
11.7951
11.7588
11.7227
11.6868
11.651
11.6154
11.5801
11.5453
14.9138
14.8581
14.8028
14.7477
14.6931
14.6387
14.5847
14.5311
14.4778
14.4249
14.3724
14.3203
14.2686
14.2172
14.1662
14.1156
14.0653
14.0154
13.9658
13.9166
13.8677
13.8191
13.7708
13.7229
13.6752
13.6278
13.5806
13.5338
13.4871
13.4407
13.3946
13.3487
13.303
13.2576
13.2124
13.1674
13.1226
13.0781
13.0338
12.9897
12.9459
12.9023
12.859
12.816
12.7732
12.7306
12.6884
12.6464
12.6047
12.5632
12.5221
12.4812
12.4406
12.4003
12.3602
12.3204
12.2809
12.2417
12.2027
12.1639
12.1254
12.0872
12.0492
12.0114
11.9738
11.9365
11.8994
11.8625
11.8258
11.7893
11.753
11.7169
11.6809
11.6452
11.6096
11.5742
11.5394
14.8986
14.8429
14.7876
14.7326
14.6779
14.6236
14.5696
14.516
14.4628
14.41
14.3575
14.3055
14.2538
14.2025
14.1515
14.1009
14.0507
14.0009
13.9514
13.9022
13.8533
13.8048
13.7566
13.7086
13.661
13.6136
13.5665
13.5197
13.4731
13.4267
13.3806
13.3348
13.2891
13.2437
13.1985
13.1535
13.1088
13.0643
13.02
12.976
12.9322
12.8887
12.8454
12.8024
12.7596
12.7171
12.6749
12.6329
12.5913
12.5499
12.5088
12.4679
12.4274
12.3871
12.3471
12.3073
12.2679
12.2287
12.1897
12.151
12.1126
12.0744
12.0364
11.9987
11.9612
11.9239
11.8868
11.85
11.8133
11.7769
11.7406
11.7045
11.6686
11.6329
11.5973
11.562
11.5272
14.8629
14.8074
14.7522
14.6974
14.6429
14.5887
14.535
14.4816
14.4286
14.376
14.3238
14.272
14.2205
14.1694
14.1187
14.0684
14.0184
13.9688
13.9195
13.8706
13.8219
13.7736
13.7256
13.6779
13.6304
13.5832
13.5363
13.4896
13.4432
13.397
13.3511
13.3054
13.2599
13.2146
13.1696
13.1248
13.0802
13.0358
12.9917
12.9478
12.9041
12.8607
12.8176
12.7747
12.7321
12.6897
12.6477
12.6059
12.5643
12.5231
12.4821
12.4414
12.401
12.3609
12.3211
12.2815
12.2422
12.2032
12.1644
12.1259
12.0876
12.0496
12.0118
11.9742
11.9369
11.8998
11.8629
11.8262
11.7897
11.7534
11.7173
11.6813
11.6456
11.61
11.5746
11.5394
11.5047
14.7986
14.7435
14.6887
14.6344
14.5803
14.5267
14.4734
14.4205
14.368
14.3159
14.2642
14.2129
14.162
14.1115
14.0613
14.0115
13.962
13.9129
13.8641
13.8156
13.7674
13.7196
13.672
13.6247
13.5777
13.531
13.4844
13.4382
13.3921
13.3463
13.3008
13.2554
13.2103
13.1653
13.1206
13.0761
13.0319
12.9878
12.944
12.9004
12.8571
12.814
12.7711
12.7285
12.6862
12.6442
12.6024
12.5609
12.5196
12.4787
12.438
12.3977
12.3576
12.3178
12.2783
12.239
12.2001
12.1613
12.1229
12.0847
12.0467
12.009
11.9716
11.9343
11.8973
11.8605
11.8239
11.7875
11.7513
11.7153
11.6795
11.6438
11.6083
11.573
11.5379
11.5029
11.4685
14.7057
14.6513
14.5973
14.5436
14.4903
14.4374
14.3849
14.3327
14.281
14.2296
14.1787
14.1281
14.0779
14.0281
13.9786
13.9296
13.8808
13.8324
13.7843
13.7365
13.689
13.6419
13.595
13.5483
13.5019
13.4558
13.4099
13.3642
13.3188
13.2735
13.2285
13.1836
13.139
13.0946
13.0504
13.0064
12.9626
12.919
12.8756
12.8324
12.7895
12.7469
12.7045
12.6623
12.6204
12.5788
12.5374
12.4963
12.4555
12.415
12.3748
12.3349
12.2952
12.2559
12.2168
12.178
12.1395
12.1012
12.0632
12.0255
11.988
11.9507
11.9137
11.8769
11.8403
11.804
11.7678
11.7319
11.6961
11.6605
11.6251
11.5899
11.5548
11.5199
11.4851
11.4505
11.4164
14.5982
14.5445
14.4911
14.4381
14.3855
14.3332
14.2813
14.2298
14.1786
14.1279
14.0775
14.0275
13.9779
13.9287
13.8798
13.8313
13.7832
13.7354
13.6879
13.6407
13.5938
13.5472
13.5009
13.4548
13.409
13.3634
13.318
13.2729
13.228
13.1833
13.1387
13.0944
13.0503
13.0064
12.9626
12.9191
12.8757
12.8326
12.7897
12.747
12.7046
12.6623
12.6204
12.5787
12.5372
12.496
12.4551
12.4145
12.3741
12.3341
12.2943
12.2548
12.2156
12.1768
12.1382
12.0998
12.0618
12.024
11.9865
11.9492
11.9122
11.8754
11.8389
11.8026
11.7665
11.7306
11.6949
11.6594
11.6241
11.589
11.554
11.5192
11.4846
11.4501
11.4158
11.3816
11.3479
14.5018
14.4485
14.3955
14.3429
14.2905
14.2386
14.1869
14.1356
14.0847
14.0342
13.984
13.9341
13.8846
13.8356
13.7868
13.7385
13.6905
13.6428
13.5954
13.5484
13.5017
13.4552
13.4091
13.3631
13.3175
13.2721
13.2269
13.1819
13.1372
13.0927
13.0483
13.0042
12.9603
12.9165
12.873
12.8297
12.7865
12.7436
12.7009
12.6585
12.6162
12.5742
12.5325
12.491
12.4498
12.4089
12.3682
12.3279
12.2878
12.248
12.2085
12.1693
12.1304
12.0918
12.0535
12.0155
11.9777
11.9402
11.903
11.866
11.8293
11.7929
11.7567
11.7206
11.6848
11.6493
11.6139
11.5787
11.5437
11.5088
11.4741
11.4396
11.4052
11.371
11.337
11.303
11.2697
14.4328
14.3797
14.3268
14.2743
14.222
14.1701
14.1184
14.0671
14.0161
13.9655
13.9151
13.8651
13.8155
13.7662
13.7172
13.6686
13.6204
13.5725
13.5249
13.4776
13.4306
13.3839
13.3375
13.2913
13.2454
13.1998
13.1544
13.1093
13.0643
13.0196
12.9751
12.9309
12.8868
12.8429
12.7993
12.7559
12.7127
12.6697
12.627
12.5845
12.5423
12.5003
12.4586
12.4172
12.376
12.3351
12.2945
12.2542
12.2141
12.1744
12.135
12.0959
12.057
12.0185
11.9803
11.9423
11.9046
11.8672
11.83
11.7931
11.7565
11.72
11.6838
11.6479
11.6121
11.5765
11.5411
11.5058
11.4708
11.436
11.4013
11.3667
11.3323
11.2981
11.264
11.2301
11.1968
14.3921
14.3392
14.2865
14.234
14.1818
14.1298
14.0781
14.0267
13.9755
13.9247
13.8741
13.8238
13.7738
13.7242
13.6749
13.6259
13.5773
13.5289
13.4809
13.4332
13.3857
13.3386
13.2917
13.2451
13.1988
13.1527
13.1069
13.0614
13.016
12.971
12.9261
12.8815
12.8371
12.793
12.7491
12.7055
12.662
12.6189
12.576
12.5333
12.4909
12.4488
12.407
12.3654
12.3242
12.2832
12.2425
12.2021
12.1621
12.1223
12.0828
12.0436
12.0047
11.9661
11.9277
11.8897
11.8519
11.8144
11.7771
11.7401
11.7033
11.6667
11.6303
11.5941
11.5582
11.5224
11.4869
11.4514
11.4161
11.381
11.3461
11.3113
11.2767
11.2423
11.2079
11.1738
11.1404
14.3755
14.3228
14.2703
14.2179
14.1658
14.1138
14.0621
14.0106
13.9593
13.9082
13.8574
13.8069
13.7566
13.7066
13.6569
13.6075
13.5583
13.5095
13.461
13.4128
13.3648
13.3171
13.2697
13.2226
13.1757
13.1291
13.0828
13.0368
12.991
12.9455
12.9002
12.8552
12.8105
12.766
12.7217
12.6778
12.6341
12.5907
12.5476
12.5047
12.4622
12.4199
12.3779
12.3363
12.2949
12.2538
12.213
12.1725
12.1324
12.0925
12.0529
12.0136
11.9746
11.9359
11.8974
11.8592
11.8213
11.7836
11.7461
11.7089
11.6718
11.635
11.5983
11.5619
11.5256
11.4895
11.4536
11.4178
11.3822
11.3467
11.3114
11.2763
11.2413
11.2064
11.1718
11.1372
11.1035
14.3782
14.3259
14.2736
14.2215
14.1695
14.1177
14.066
14.0145
13.9631
13.912
13.861
13.8101
13.7596
13.7092
13.6591
13.6093
13.5598
13.5105
13.4614
13.4127
13.3642
13.3159
13.268
13.2203
13.1729
13.1258
13.0789
13.0324
12.9861
12.9401
12.8944
12.8489
12.8038
12.7589
12.7144
12.6701
12.6261
12.5825
12.5391
12.4961
12.4533
12.4109
12.3688
12.327
12.2856
12.2444
12.2035
12.163
12.1227
12.0827
12.0431
12.0037
11.9645
11.9257
11.8871
11.8488
11.8106
11.7727
11.7351
11.6976
11.6603
11.6231
11.5862
11.5493
11.5127
11.4762
11.4399
11.4037
11.3676
11.3317
11.296
11.2604
11.2249
11.1896
11.1545
11.1195
11.0854
14.3974
14.3456
14.2938
14.2421
14.1904
14.1388
14.0872
14.0358
13.9844
13.9331
13.882
13.831
13.7801
13.7295
13.679
13.6287
13.5787
13.5289
13.4794
13.43
13.381
13.3321
13.2836
13.2353
13.1873
13.1396
13.0922
13.0451
12.9983
12.9518
12.9056
12.8598
12.8142
12.769
12.7241
12.6796
12.6354
12.5915
12.5479
12.5047
12.4619
12.4194
12.3772
12.3353
12.2938
12.2526
12.2117
12.1711
12.1309
12.0909
12.0512
12.0117
11.9725
11.9336
11.8949
11.8565
11.8182
11.7801
11.7422
11.7044
11.6668
11.6294
11.592
11.5549
11.5178
11.4808
11.4439
11.4073
11.3707
11.3343
11.298
11.2619
11.2259
11.1901
11.1544
11.1189
11.0844
14.4321
14.381
14.3298
14.2786
14.2274
14.1761
14.1248
14.0735
14.0222
13.971
13.9197
13.8685
13.8174
13.7664
13.7155
13.6649
13.6143
13.564
13.5139
13.464
13.4143
13.3648
13.3156
13.2667
13.2181
13.1697
13.1217
13.074
13.0267
12.9796
12.933
12.8867
12.8407
12.7951
12.7499
12.7051
12.6606
12.6165
12.5728
12.5295
12.4866
12.444
12.4018
12.3599
12.3184
12.2773
12.2364
12.1959
12.1556
12.1157
12.076
12.0366
11.9974
11.9584
11.9197
11.8811
11.8427
11.8044
11.7663
11.7282
11.6903
11.6525
11.6147
11.577
11.5395
11.502
11.4647
11.4274
11.3902
11.3532
11.3163
11.2795
11.2429
11.2065
11.1702
11.1342
11.0991
14.4835
14.4334
14.3831
14.3327
14.282
14.2313
14.1804
14.1293
14.0782
14.0269
13.9755
13.9241
13.8727
13.8213
13.77
13.7188
13.6677
13.6167
13.5659
13.5152
13.4648
13.4146
13.3646
13.3149
13.2655
13.2164
13.1677
13.1194
13.0714
13.0237
12.9765
12.9297
12.8833
12.8374
12.7919
12.7468
12.7021
12.6579
12.6141
12.5707
12.5278
12.4853
12.4431
12.4014
12.36
12.319
12.2783
12.2379
12.1978
12.158
12.1185
12.0791
12.04
12.0011
11.9624
11.9237
11.8852
11.8467
11.8083
11.7699
11.7316
11.6933
11.655
11.6169
11.5786
11.5405
11.5024
11.4644
11.4265
11.3888
11.3511
11.3136
11.2763
11.2391
11.2021
11.1653
11.1296
14.5551
14.5063
14.4572
14.4077
14.3579
14.3078
14.2573
14.2067
14.1557
14.1045
14.053
14.0013
13.9495
13.8976
13.8457
13.7938
13.742
13.6902
13.6385
13.5869
13.5355
13.4844
13.4335
13.3828
13.3325
13.2825
13.233
13.1838
13.135
13.0867
13.0389
12.9916
12.9447
12.8984
12.8525
12.8072
12.7624
12.7181
12.6743
12.631
12.5881
12.5458
12.5039
12.4624
12.4213
12.3805
12.3401
12.3
12.2602
12.2207
12.1814
12.1423
12.1033
12.0645
12.0257
11.987
11.9484
11.9097
11.8709
11.8321
11.7933
11.7544
11.7155
11.6765
11.6375
11.5985
11.5596
11.5206
11.4817
11.443
11.4043
11.3659
11.3276
11.2895
11.2515
11.2139
11.1774
14.6528
14.6057
14.5581
14.5099
14.4612
14.412
14.3622
14.312
14.2612
14.21
14.1583
14.1062
14.0538
14.0012
13.9485
13.8956
13.8427
13.7898
13.737
13.6842
13.6316
13.5791
13.527
13.4751
13.4236
13.3725
13.3219
13.2717
13.2221
13.173
13.1244
13.0765
13.0292
12.9825
12.9364
12.891
12.8461
12.8019
12.7583
12.7153
12.6728
12.6309
12.5895
12.5485
12.5079
12.4678
12.428
12.3884
12.3492
12.3101
12.2713
12.2325
12.1939
12.1552
12.1166
12.0778
12.0389
11.9999
11.9607
11.9213
11.8817
11.8419
11.8019
11.7619
11.7217
11.6815
11.6411
11.6009
11.5607
11.5206
11.4806
11.4408
11.4012
11.3619
11.3228
11.2841
11.2466
14.7848
14.7402
14.6947
14.6484
14.6013
14.5534
14.5046
14.455
14.4045
14.3533
14.3012
14.2485
14.1952
14.1416
14.0877
14.0335
13.9792
13.9248
13.8703
13.8159
13.7616
13.7075
13.6537
13.6003
13.5473
13.4948
13.4429
13.3915
13.3409
13.2909
13.2417
13.1932
13.1455
13.0986
13.0525
13.0072
12.9627
12.9189
12.8759
12.8335
12.7919
12.7508
12.7104
12.6704
12.6309
12.5918
12.553
12.5145
12.4762
12.438
12.3999
12.3618
12.3237
12.2854
12.2468
12.208
12.1688
12.1291
12.0891
12.0487
12.0079
11.9667
11.9252
11.8833
11.8414
11.7992
11.757
11.7147
11.6724
11.6303
11.5884
11.5467
11.5054
11.4643
11.4237
11.3836
11.3449
14.9668
14.9262
14.8843
14.8412
14.7967
14.7508
14.7036
14.655
14.6049
14.5535
14.5007
14.4468
14.3921
14.3368
14.2809
14.2247
14.1681
14.1113
14.0545
13.9977
13.941
13.8846
13.8285
13.773
13.718
13.6638
13.6103
13.5577
13.5059
13.4551
13.4054
13.3566
13.309
13.2624
13.2168
13.1723
13.1289
13.0864
13.0448
13.0042
12.9643
12.9252
12.8868
12.8489
12.8115
12.7745
12.7377
12.7011
12.6646
12.628
12.5914
12.5545
12.5173
12.4796
12.4412
12.4021
12.3622
12.3215
12.28
12.2377
12.1947
12.1509
12.1066
12.0618
12.0166
11.9712
11.9255
11.8799
11.8344
11.7892
11.7442
11.6997
11.6557
11.6122
11.5695
11.5274
11.4872
15.2312
15.1979
15.1626
15.125
15.0852
15.0429
14.9982
14.9509
14.9012
14.849
14.7945
14.7382
14.6805
14.6218
14.5625
14.5025
14.4421
14.3814
14.3207
14.26
14.1996
14.1397
14.0803
14.0218
13.9642
13.9077
13.8523
13.7983
13.7455
13.6943
13.6445
13.5962
13.5495
13.5043
13.4606
13.4184
13.3777
13.3383
13.3001
13.2632
13.2273
13.1923
13.1581
13.1245
13.0914
13.0585
13.0259
12.9931
12.9603
12.927
12.8934
12.8591
12.8238
12.7873
12.7494
12.7099
12.6688
12.6261
12.5817
12.5358
12.4885
12.4399
12.3903
12.3397
12.2887
12.2371
12.1856
12.1339
12.0826
12.0318
11.9817
11.9325
11.8843
11.8372
11.7914
11.747
11.7051
15.6306
15.6076
15.5807
15.5494
15.5135
15.4728
15.4271
15.3766
15.3215
15.2622
15.1997
15.135
15.0689
15.0019
14.9341
14.8659
14.7975
14.7292
14.6614
14.5943
14.5281
14.4632
14.3997
14.338
14.2781
14.2202
14.1646
14.1112
14.0602
14.0116
13.9654
13.9217
13.8805
13.8417
13.8051
13.7708
13.7385
13.7082
13.6795
13.6524
13.6267
13.602
13.578
13.5547
13.5316
13.5084
13.485
13.4611
13.4361
13.4104
13.3831
13.3536
13.3214
13.2861
13.2474
13.2053
13.1595
13.1103
13.0579
13.0025
12.9445
12.8842
12.8225
12.7594
12.6958
12.632
12.5686
12.5061
12.4449
12.3853
12.3277
12.2724
12.2196
12.1696
12.1225
12.0798
16.3936
16.3959
16.3891
16.3732
16.3473
16.3112
16.2647
16.2082
16.1426
16.0692
15.9899
15.9071
15.8229
15.7375
15.6516
15.5657
15.4803
15.396
15.3131
15.2321
15.1535
15.0777
15.005
14.9357
14.87
14.8083
14.7506
14.6971
14.648
14.6032
14.5628
14.5269
14.4953
14.468
14.4449
14.4257
14.4103
14.3985
14.3899
14.3842
14.3812
14.3804
14.3814
14.3837
14.387
14.3905
14.3942
14.397
14.3989
14.3993
14.3964
14.3886
14.3748
14.3539
14.325
14.2878
14.2419
14.1878
14.1257
14.0564
13.9809
13.9003
13.8156
13.7284
13.6398
13.5513
13.4637
13.3785
13.2966
13.2188
13.1462
13.0793
13.0188
12.9652
12.9191
12.8823
17.9215
17.9532
17.961
17.9471
17.9104
17.8512
17.7708
17.6716
17.5572
17.4322
17.3024
17.1715
17.0405
16.9105
16.7825
16.6574
16.536
16.4192
16.3077
16.202
16.1029
16.0107
15.9259
15.849
15.7801
15.7195
15.6676
15.6244
15.5902
15.565
15.549
15.5422
15.5447
15.5563
15.577
15.6068
15.6453
15.6924
15.7477
15.8109
15.8813
15.9582
16.0411
16.1288
16.2205
16.315
16.4099
16.5064
16.6001
16.6862
16.7601
16.818
16.8569
16.8746
16.87
16.8428
16.7936
16.7238
16.6356
16.5316
16.4146
16.2884
16.1557
16.0203
15.885
15.7535
15.6282
15.5117
15.4064
15.3144
15.2376
15.1776
15.1361
15.1142
15.1151
21.1305
21.1777
21.1648
21.1025
20.9913
20.8348
20.6397
20.4148
20.1713
19.9222
19.6754
19.4329
19.1968
18.969
18.7511
18.5446
18.3507
18.1706
18.0053
17.8555
17.722
17.6055
17.5065
17.4258
17.3639
17.3215
17.2993
17.2983
17.3191
17.3627
17.43
17.5221
17.6397
17.7837
17.9547
18.1531
18.3789
18.6318
18.911
19.2148
19.5411
19.8871
20.2485
20.6225
21.0027
21.3812
21.7602
22.122
22.4539
22.7455
22.989
23.1792
23.3135
23.3919
23.4164
23.3907
23.3201
23.2109
23.0701
22.9051
22.7231
22.5321
22.3387
22.1502
21.9722
21.8106
21.6706
21.5564
21.4721
21.421
21.4058
21.4288
21.4922
21.5998
27.7518
27.7101
27.5609
27.3057
26.9535
26.5197
26.0254
25.4962
24.9615
24.4394
23.9346
23.4515
22.9937
22.5642
22.1653
21.7993
21.4681
21.1734
20.9168
20.6997
20.5238
20.391
20.3035
20.2639
20.2752
20.3407
20.4642
20.6496
20.9007
21.221
21.6136
22.0803
22.6218
23.2373
23.9239
24.6767
25.4888
26.3512
27.2526
28.181
29.1219
30.0603
30.983
31.871
32.7168
33.4996
34.2002
34.8053
35.3072
35.7032
35.995
36.1874
36.288
36.3064
36.2531
36.1396
35.9776
35.7785
35.5533
35.3131
35.0666
34.8232
34.5899
34.3744
34.1816
34.016
33.8813
33.7798
33.713
33.6815
33.6857
33.7257
33.8073
40.898
40.7938
40.4659
39.9163
39.1611
38.2318
37.1698
36.0301
34.8735
33.7461
32.6597
31.6254
30.653
29.7507
28.9254
28.1828
27.5281
26.9659
26.5012
26.1393
25.8861
25.7485
25.7339
25.8501
26.1044
26.503
27.0503
27.7475
28.5923
29.5784
30.6952
31.9283
33.2598
34.6692
36.1338
37.6298
39.1332
40.6201
42.0679
43.4555
44.7627
45.9757
47.0762
48.0517
48.9027
49.6098
50.1743
50.6012
50.8985
51.0762
51.1459
51.1194
51.0093
50.8277
50.5863
50.2964
49.9682
49.6114
49.2348
48.8449
48.4494
48.053
47.6609
47.2763
46.9019
46.5403
46.1927
45.8592
45.5442
45.2472
44.9653
44.7019
44.4768
65.0954
65.0367
64.4749
63.5235
62.1936
60.5222
58.5669
56.4159
54.1673
51.9301
49.7404
47.6334
45.6417
43.7941
42.1164
40.6306
39.3564
38.3105
37.5076
36.9592
36.6737
36.6546
36.8999
37.4006
38.1412
39.0991
40.2465
41.551
42.9779
44.4917
46.0578
47.6436
49.2193
50.7587
52.2388
53.6406
54.9483
56.1489
57.2332
58.1928
59.0232
59.7222
60.2863
60.7221
61.025
61.199
61.2566
61.2094
61.0687
60.8449
60.5481
60.1878
59.773
59.3121
58.8133
58.2836
57.7301
57.1588
56.5747
55.9836
55.3883
54.7941
54.2027
53.617
53.0387
52.4693
51.9102
51.3624
50.8269
50.3042
49.7964
49.3101
48.88
102.483
101.863
100.68
99.0237
96.905
94.3673
91.4489
88.222
84.7699
81.1883
77.5794
74.0442
70.6774
67.5625
64.7675
62.3434
60.3216
58.715
57.5185
56.7115
56.2614
56.1268
56.2619
56.6197
57.1543
57.8228
58.5863
59.4103
60.2646
61.1234
61.9645
62.7694
63.5226
64.2115
64.8262
65.3584
65.8028
66.1547
66.4116
66.5736
66.6379
66.6074
66.4876
66.2756
65.9818
65.6155
65.1852
64.6987
64.1636
63.5868
62.9752
62.335
61.6721
60.9924
60.3007
59.6016
58.8994
58.1976
57.499
56.8068
56.1227
55.4485
54.7852
54.1342
53.4963
52.8714
52.2597
51.6614
51.0769
50.5075
49.9615
49.4831
140.566
139.095
137.498
135.684
133.593
131.056
127.927
124.09
119.71
114.953
109.986
104.973
100.065
95.392
91.0585
87.1371
83.6694
80.6713
78.1372
76.0455
74.362
73.0448
72.0472
71.3209
70.818
70.4927
70.3029
70.2105
70.1823
70.1898
70.2086
70.2189
70.2047
70.153
70.0544
69.9012
69.6888
69.4146
69.0767
68.6762
68.2151
67.695
67.1231
66.5064
65.8515
65.1647
64.4519
63.7186
62.9702
62.2115
61.4471
60.6812
59.9176
59.1593
58.4093
57.6696
56.9421
56.2283
55.5294
54.8458
54.1774
53.5247
52.8869
52.2637
51.6548
51.0592
50.4759
49.9047
49.3478
48.8141
48.353
148.918
146.425
144.061
141.598
138.918
135.964
132.733
129.208
125.381
121.265
116.905
112.377
107.79
103.268
98.9384
94.9088
91.2603
88.0336
85.2409
82.8703
80.8897
79.2551
77.9228
76.8368
75.948
75.2114
74.5864
74.0378
73.5362
73.0573
72.5819
72.0948
71.5851
71.0443
70.4674
69.8517
69.1958
68.5017
67.7697
67.0048
66.2145
65.4044
64.5798
63.7458
62.9072
62.0686
61.2337
60.4063
59.5896
58.7862
57.9986
57.2284
56.4772
55.7457
55.0344
54.3433
53.6721
53.0206
52.3876
51.7721
51.1729
50.5893
50.0198
49.4625
48.9167
48.3815
47.8557
47.3399
46.845
46.4238
130.173
127.845
125.675
123.732
121.857
119.942
117.909
115.693
113.257
110.584
107.683
104.596
101.396
98.1672
95.0128
92.0356
89.2861
86.8209
84.6546
82.7683
81.136
79.7236
78.4921
77.4038
76.4231
75.5189
74.6642
73.8376
73.0215
72.2032
71.3736
70.5264
69.6588
68.7705
67.8604
66.9332
65.9902
65.0353
64.0791
63.1262
62.1807
61.2467
60.3278
59.4273
58.5479
57.6918
56.8607
56.056
55.2785
54.5286
53.8062
53.1109
52.4417
51.7974
51.1766
50.578
49.9994
49.4392
48.8957
48.3674
47.8518
47.3477
46.854
46.3692
45.8901
45.4182
44.956
44.5122
44.1367
112.129
110.597
109.308
108.167
107.112
106.077
104.997
103.814
102.491
101
99.3326
97.4907
95.5053
93.4102
91.2776
89.1766
87.1533
85.25
83.4909
81.875
80.3949
79.0325
77.7663
76.5735
75.4333
74.3273
73.2404
72.1615
71.0821
69.9979
68.9061
67.8069
66.7025
65.594
64.4878
63.3882
62.2944
61.2217
60.1729
59.1513
58.1594
57.1999
56.2742
55.3842
54.5304
53.7132
52.9323
52.1874
51.4772
50.8006
50.1559
49.541
48.9536
48.3916
47.8525
47.3336
46.833
46.3484
45.8775
45.4181
44.9694
44.5297
44.096
43.6683
43.2477
42.8319
42.4219
42.0271
41.694
95.9209
95.3152
94.9423
94.6675
94.4287
94.1646
93.7967
93.2895
92.6346
91.8048
90.8082
89.6477
88.3461
86.9316
85.4734
83.9847
82.493
81.0251
79.5956
78.2064
76.8535
75.5296
74.2256
72.9345
71.6492
70.3668
69.0836
67.8015
66.5209
65.2462
63.9807
62.7296
61.4977
60.2926
59.1115
57.9706
56.8706
55.8145
54.8027
53.8369
52.9169
52.0433
51.2147
50.431
49.69
48.9903
48.3296
47.7057
47.1159
46.5573
46.0273
45.5226
45.0406
44.578
44.1329
43.7023
43.2838
42.8761
42.4777
42.0873
41.7018
41.3234
40.9501
40.5807
40.214
39.8516
39.5022
39.2074
84.7399
84.9263
85.2554
85.6479
86.1288
86.2501
86.2654
86.1008
85.7743
85.2458
84.5575
83.6825
82.6677
81.5472
80.3383
79.0476
77.709
76.3379
74.9458
73.5397
72.1209
70.6953
69.2618
67.828
66.3936
64.9686
63.5538
62.1601
60.7891
59.4517
58.148
56.8901
55.673
54.5107
53.4023
52.3518
51.3551
50.415
49.5274
48.6937
47.9094
47.1746
46.4851
45.8394
45.2336
44.6653
44.1309
43.6272
43.1512
42.6994
42.2692
41.8565
41.4605
41.0768
40.7043
40.3422
39.9888
39.6413
39.2987
38.9636
38.6322
38.3051
37.9798
37.6573
37.3379
37.0304
36.7702
77.4058
77.8572
78.4959
79.335
14.9116
14.856
14.8007
14.7458
14.6912
14.6369
14.583
14.5294
14.4763
14.4235
14.371
14.319
14.2673
14.216
14.1651
14.1145
14.0643
14.0145
13.965
13.9158
13.867
13.8185
13.7702
13.7223
13.6747
13.6273
13.5802
13.5334
13.4868
13.4404
13.3944
13.3485
13.3029
13.2575
13.2123
13.1674
13.1227
13.0782
13.034
12.9901
12.9464
12.9029
12.8597
12.8168
12.7741
12.7317
12.6896
12.6477
12.6061
12.5648
12.5238
12.483
12.4425
12.4023
12.3623
12.3227
12.2832
12.2441
12.2052
12.1665
12.1281
12.0899
12.0519
12.0142
11.9767
11.9394
11.9023
11.8654
11.8287
11.7923
11.756
11.7199
11.684
11.6482
11.6127
11.5773
11.5425
14.9112
14.8557
14.8004
14.7454
14.6908
14.6365
14.5826
14.529
14.4758
14.423
14.3705
14.3184
14.2667
14.2154
14.1644
14.1138
14.0636
14.0137
13.9642
13.915
13.8661
13.8175
13.7693
13.7213
13.6737
13.6263
13.5792
13.5324
13.4858
13.4394
13.3933
13.3474
13.3018
13.2564
13.2112
13.1663
13.1216
13.0771
13.0329
12.9889
12.9452
12.9017
12.8585
12.8155
12.7728
12.7304
12.6882
12.6463
12.6047
12.5633
12.5222
12.4814
12.4409
12.4007
12.3607
12.321
12.2815
12.2423
12.2034
12.1647
12.1262
12.088
12.05
12.0123
11.9748
11.9375
11.9004
11.8635
11.8268
11.7904
11.7541
11.718
11.6821
11.6464
11.6108
11.5755
11.5407
14.9069
14.8513
14.796
14.741
14.6863
14.632
14.5781
14.5244
14.4712
14.4183
14.3659
14.3137
14.262
14.2106
14.1596
14.109
14.0588
14.0088
13.9593
13.9101
13.8612
13.8126
13.7643
13.7164
13.6687
13.6213
13.5742
13.5273
13.4807
13.4343
13.3882
13.3423
13.2967
13.2513
13.2061
13.1612
13.1165
13.072
13.0277
12.9837
12.94
12.8965
12.8532
12.8102
12.7675
12.725
12.6828
12.6409
12.5992
12.5578
12.5167
12.4759
12.4353
12.3951
12.355
12.3153
12.2758
12.2366
12.1976
12.1589
12.1205
12.0822
12.0443
12.0065
11.969
11.9317
11.8946
11.8577
11.821
11.7845
11.7482
11.7121
11.6762
11.6405
11.6049
11.5695
11.5347
14.8918
14.8362
14.7809
14.7259
14.6713
14.617
14.5631
14.5095
14.4563
14.4035
14.351
14.299
14.2473
14.196
14.145
14.0944
14.0442
13.9944
13.9448
13.8957
13.8468
13.7983
13.75
13.7021
13.6545
13.6071
13.56
13.5132
13.4666
13.4203
13.3742
13.3283
13.2827
13.2373
13.1922
13.1473
13.1026
13.0581
13.0139
12.9699
12.9262
12.8827
12.8395
12.7965
12.7538
12.7114
12.6692
12.6273
12.5857
12.5444
12.5033
12.4625
12.422
12.3817
12.3418
12.3021
12.2626
12.2235
12.1845
12.1459
12.1075
12.0693
12.0314
11.9936
11.9562
11.9189
11.8819
11.845
11.8084
11.7719
11.7357
11.6996
11.6638
11.6281
11.5925
11.5572
11.5224
14.8564
14.8009
14.7457
14.6909
14.6364
14.5823
14.5286
14.4752
14.4222
14.3696
14.3174
14.2656
14.2141
14.1631
14.1123
14.062
14.012
13.9624
13.9131
13.8641
13.8154
13.7671
13.7191
13.6713
13.6239
13.5767
13.5297
13.4831
13.4367
13.3905
13.3446
13.2989
13.2534
13.2082
13.1631
13.1184
13.0738
13.0295
12.9854
12.9416
12.898
12.8546
12.8115
12.7687
12.7261
12.6838
12.6418
12.6001
12.5586
12.5174
12.4765
12.4358
12.3955
12.3554
12.3156
12.2761
12.2368
12.1978
12.159
12.1205
12.0823
12.0443
12.0065
11.969
11.9316
11.8945
11.8577
11.821
11.7845
11.7482
11.7121
11.6762
11.6405
11.6049
11.5695
11.5343
11.4997
14.7923
14.7372
14.6825
14.6281
14.574
14.5204
14.4671
14.4142
14.3617
14.3096
14.2579
14.2066
14.1556
14.1051
14.0549
14.005
13.9555
13.9064
13.8575
13.809
13.7608
13.713
13.6654
13.618
13.571
13.5242
13.4777
13.4314
13.3854
13.3396
13.294
13.2487
13.2035
13.1586
13.1139
13.0695
13.0252
12.9812
12.9374
12.8939
12.8506
12.8075
12.7647
12.7222
12.6799
12.6379
12.5961
12.5547
12.5135
12.4726
12.432
12.3916
12.3516
12.3118
12.2723
12.2331
12.1941
12.1554
12.117
12.0788
12.0409
12.0032
11.9657
11.9285
11.8915
11.8547
11.8182
11.7818
11.7456
11.7096
11.6738
11.6382
11.6027
11.5674
11.5323
11.4974
11.463
14.6992
14.6448
14.5908
14.5371
14.4838
14.4308
14.3783
14.3261
14.2743
14.2229
14.172
14.1214
14.0711
14.0213
13.9718
13.9227
13.8739
13.8254
13.7773
13.7295
13.6819
13.6347
13.5878
13.5411
13.4947
13.4485
13.4026
13.3569
13.3114
13.2661
13.2211
13.1763
13.1317
13.0872
13.043
12.999
12.9552
12.9117
12.8683
12.8252
12.7824
12.7397
12.6974
12.6552
12.6134
12.5718
12.5305
12.4894
12.4487
12.4082
12.368
12.3281
12.2885
12.2491
12.2101
12.1713
12.1328
12.0945
12.0565
12.0188
11.9813
11.9441
11.9071
11.8703
11.8337
11.7974
11.7613
11.7253
11.6896
11.654
11.6186
11.5834
11.5484
11.5135
11.4787
11.4442
11.4101
14.5908
14.5371
14.4837
14.4307
14.378
14.3257
14.2738
14.2223
14.1711
14.1203
14.0699
14.0199
13.9703
13.921
13.8721
13.8235
13.7753
13.7275
13.6799
13.6327
13.5858
13.5391
13.4927
13.4466
13.4008
13.3552
13.3098
13.2646
13.2197
13.1749
13.1304
13.0861
13.042
12.998
12.9543
12.9108
12.8675
12.8243
12.7815
12.7388
12.6964
12.6542
12.6122
12.5705
12.5291
12.488
12.4471
12.4065
12.3662
12.3261
12.2864
12.2469
12.2078
12.1689
12.1303
12.092
12.0539
12.0161
11.9786
11.9414
11.9044
11.8676
11.8311
11.7948
11.7588
11.7229
11.6872
11.6518
11.6165
11.5814
11.5465
11.5117
11.4771
11.4426
11.4083
11.3742
11.3406
14.4933
14.4399
14.3869
14.3342
14.2818
14.2298
14.1782
14.1269
14.0759
14.0253
13.9751
13.9252
13.8757
13.8266
13.7778
13.7294
13.6813
13.6336
13.5862
13.5391
13.4924
13.4459
13.3997
13.3537
13.308
13.2626
13.2174
13.1724
13.1277
13.0831
13.0388
12.9947
12.9507
12.907
12.8635
12.8202
12.7771
12.7342
12.6915
12.6491
12.6069
12.5649
12.5232
12.4818
12.4406
12.3997
12.3591
12.3187
12.2787
12.2389
12.1994
12.1602
12.1214
12.0828
12.0445
12.0064
11.9687
11.9312
11.8941
11.8571
11.8204
11.784
11.7478
11.7118
11.676
11.6405
11.6051
11.57
11.535
11.5002
11.4655
11.431
11.3967
11.3625
11.3285
11.2946
11.2613
14.4226
14.3694
14.3166
14.264
14.2117
14.1597
14.1081
14.0567
14.0057
13.955
13.9047
13.8546
13.805
13.7556
13.7066
13.658
13.6097
13.5618
13.5142
13.4668
13.4198
13.3731
13.3267
13.2805
13.2346
13.1889
13.1435
13.0984
13.0535
13.0088
12.9643
12.92
12.876
12.8321
12.7885
12.7451
12.702
12.6591
12.6164
12.5739
12.5317
12.4898
12.4481
12.4067
12.3656
12.3247
12.2841
12.2438
12.2038
12.1641
12.1247
12.0856
12.0468
12.0083
11.9701
11.9321
11.8945
11.8571
11.82
11.7831
11.7465
11.7101
11.6739
11.638
11.6022
11.5667
11.5313
11.4962
11.4612
11.4264
11.3917
11.3572
11.3229
11.2887
11.2547
11.2208
11.1876
14.3801
14.3271
14.2743
14.2218
14.1695
14.1175
14.0658
14.0143
13.9632
13.9123
13.8617
13.8114
13.7614
13.7118
13.6624
13.6134
13.5648
13.5164
13.4683
13.4206
13.3732
13.326
13.2791
13.2325
13.1862
13.1402
13.0944
13.0488
13.0035
12.9585
12.9137
12.8691
12.8248
12.7807
12.7368
12.6932
12.6499
12.6067
12.5639
12.5213
12.479
12.4369
12.3952
12.3537
12.3125
12.2715
12.2309
12.1906
12.1505
12.1108
12.0714
12.0322
11.9933
11.9548
11.9165
11.8785
11.8407
11.8033
11.766
11.7291
11.6923
11.6558
11.6195
11.5833
11.5474
11.5117
11.4761
11.4408
11.4056
11.3705
11.3356
11.3009
11.2664
11.232
11.1977
11.1636
11.1302
14.3611
14.3083
14.2557
14.2033
14.1511
14.0991
14.0474
13.9958
13.9445
13.8935
13.8427
13.7921
13.7418
13.6918
13.6421
13.5927
13.5436
13.4948
13.4462
13.398
13.3501
13.3024
13.255
13.2079
13.1611
13.1146
13.0683
13.0223
12.9766
12.9311
12.8859
12.8409
12.7963
12.7518
12.7077
12.6638
12.6202
12.5769
12.5338
12.491
12.4486
12.4064
12.3645
12.3229