/*--------------------------------*- C++ -*----------------------------------*\
  =========                 |
  \\      /  F ield         | OpenFOAM: The Open Source CFD Toolbox
   \\    /   O peration     | Website:  https://openfoam.org
    \\  /    A nd           | Version:  13
     \\/     M anipulation  |
\*---------------------------------------------------------------------------*/
FoamFile
{
    format      ascii;
    class       volScalarField;
    location    "200";
    object      k;
}
// * * * * * * * * * * * * * * * * * * * * * * * * * * * * * * * * * * * * * //

dimensions      [0 2 -2 0 0 0 0];

internalField   nonuniform List<scalar> 
172836
(
0.209262
0.20847
0.207685
0.206907
0.206134
0.205369
0.204609
0.203856
0.209432
0.20864
0.207855
0.207077
0.206304
0.205539
0.204779
0.204026
0.21058
0.209782
0.208991
0.208205
0.207427
0.206654
0.205888
0.205127
0.204373
0.211163
0.210365
0.209574
0.208789
0.20801
0.207237
0.20647
0.20571
0.204955
0.212023
0.211225
0.210433
0.209647
0.208867
0.208094
0.207326
0.206565
0.20581
0.213171
0.212372
0.211579
0.210792
0.210011
0.209237
0.208468
0.207706
0.20695
0.214582
0.213781
0.212987
0.212199
0.211416
0.210641
0.209871
0.209107
0.20835
0.216185
0.215383
0.214587
0.213798
0.213015
0.212239
0.211468
0.210704
0.209946
0.217086
0.216291
0.215502
0.214719
0.213942
0.213172
0.212407
0.211649
0.21151
0.210702
0.2099
0.209103
0.208313
0.207529
0.206751
0.205979
0.205213
0.204454
0.203701
0.202956
0.202229
0.211677
0.210869
0.210067
0.20927
0.20848
0.207695
0.206917
0.206145
0.205379
0.20462
0.203866
0.20312
0.202391
0.212016
0.211209
0.210407
0.209611
0.20882
0.208036
0.207258
0.206486
0.205719
0.204959
0.204205
0.203458
0.202728
0.212585
0.211778
0.210977
0.21018
0.20939
0.208606
0.207828
0.207055
0.206289
0.205528
0.204774
0.204027
0.203296
0.213428
0.212621
0.211819
0.211022
0.210232
0.209447
0.208668
0.207895
0.207128
0.206367
0.205612
0.204864
0.204133
0.214558
0.21375
0.212946
0.212149
0.211357
0.210572
0.209792
0.209018
0.20825
0.207488
0.206732
0.205983
0.205251
0.215946
0.215136
0.214331
0.213533
0.21274
0.211953
0.211172
0.210397
0.209628
0.208865
0.208108
0.207358
0.206625
0.217518
0.216708
0.215902
0.215102
0.214309
0.213521
0.21274
0.211964
0.211195
0.210432
0.209674
0.208923
0.20819
0.21918
0.218369
0.217565
0.216766
0.215972
0.215185
0.214403
0.213628
0.212859
0.212096
0.211338
0.210588
0.209855
0.211546
0.274555
0.273352
0.272154
0.270963
0.269779
0.268601
0.267431
0.266268
0.265112
0.263963
0.262821
0.261686
0.260559
0.259439
0.258326
0.257221
0.256123
0.255032
0.253948
0.252873
0.251805
0.250744
0.249692
0.248647
0.247611
0.246582
0.245561
0.244548
0.243543
0.242546
0.241557
0.240575
0.239601
0.238635
0.237676
0.236724
0.23578
0.234841
0.23391
0.232984
0.232064
0.23115
0.230241
0.229337
0.228439
0.227545
0.226655
0.22577
0.224889
0.224011
0.223138
0.222269
0.221403
0.220542
0.219684
0.21883
0.21798
0.217135
0.216293
0.215456
0.214624
0.213797
0.212975
0.212158
0.211347
0.21054
0.209739
0.208943
0.208154
0.20737
0.206593
0.205822
0.205057
0.204298
0.203546
0.2028
0.202073
0.274664
0.273463
0.272268
0.271079
0.269896
0.268721
0.267553
0.266392
0.265237
0.26409
0.26295
0.261817
0.260691
0.259573
0.258462
0.257358
0.256261
0.255171
0.254089
0.253014
0.251947
0.250887
0.249835
0.248791
0.247755
0.246726
0.245706
0.244693
0.243688
0.242691
0.241702
0.24072
0.239746
0.23878
0.237821
0.236869
0.235925
0.234987
0.234055
0.233129
0.23221
0.231296
0.230387
0.229484
0.228585
0.227692
0.226803
0.225918
0.225037
0.224161
0.223288
0.22242
0.221555
0.220694
0.219837
0.218984
0.218135
0.217291
0.21645
0.215614
0.214783
0.213956
0.213135
0.212319
0.211508
0.210702
0.209901
0.209105
0.208316
0.207532
0.206755
0.205984
0.205218
0.204459
0.203706
0.20296
0.202231
0.274942
0.273745
0.272553
0.271368
0.27019
0.269018
0.267852
0.266694
0.265542
0.264398
0.26326
0.262129
0.261006
0.259889
0.25878
0.257677
0.256582
0.255493
0.254412
0.253338
0.252271
0.251212
0.250161
0.249117
0.248081
0.247052
0.246032
0.245019
0.244013
0.243016
0.242026
0.241044
0.24007
0.239103
0.238143
0.237191
0.236246
0.235307
0.234375
0.233449
0.232529
0.231614
0.230706
0.229802
0.228904
0.22801
0.227121
0.226237
0.225356
0.22448
0.223608
0.22274
0.221876
0.221016
0.220159
0.219307
0.218459
0.217615
0.216775
0.21594
0.21511
0.214284
0.213464
0.212648
0.211838
0.211032
0.210232
0.209436
0.208647
0.207864
0.207086
0.206315
0.205549
0.204789
0.204036
0.203289
0.202559
0.275457
0.274265
0.27308
0.2719
0.270726
0.269559
0.268398
0.267243
0.266095
0.264954
0.263819
0.262692
0.261571
0.260456
0.259349
0.258248
0.257155
0.256068
0.254988
0.253915
0.252849
0.251791
0.25074
0.249696
0.24866
0.247632
0.246611
0.245597
0.244592
0.243594
0.242603
0.24162
0.240645
0.239677
0.238716
0.237762
0.236816
0.235876
0.234943
0.234015
0.233094
0.232178
0.231268
0.230363
0.229464
0.228569
0.227679
0.226794
0.225913
0.225036
0.224163
0.223295
0.22243
0.22157
0.220713
0.219861
0.219012
0.218169
0.217329
0.216494
0.215664
0.214838
0.214018
0.213203
0.212392
0.211587
0.210787
0.209992
0.209203
0.20842
0.207642
0.206871
0.206105
0.205346
0.204592
0.203845
0.203115
0.276291
0.275107
0.273928
0.272754
0.271586
0.270424
0.269267
0.268117
0.266973
0.265835
0.264703
0.263578
0.26246
0.261348
0.260242
0.259143
0.258051
0.256965
0.255886
0.254813
0.253748
0.25269
0.251639
0.250595
0.249558
0.248529
0.247507
0.246492
0.245485
0.244485
0.243492
0.242507
0.24153
0.240559
0.239596
0.23864
0.237691
0.236748
0.235812
0.234882
0.233958
0.23304
0.232127
0.23122
0.230317
0.22942
0.228528
0.22764
0.226757
0.225878
0.225003
0.224133
0.223267
0.222404
0.221547
0.220693
0.219843
0.218998
0.218158
0.217322
0.216491
0.215665
0.214844
0.214028
0.213218
0.212412
0.211611
0.210816
0.210027
0.209243
0.208466
0.207694
0.206928
0.206168
0.205414
0.204667
0.203936
0.277468
0.276291
0.275119
0.273952
0.272789
0.271632
0.27048
0.269334
0.268193
0.267059
0.26593
0.264808
0.263692
0.262582
0.261478
0.26038
0.259289
0.258204
0.257125
0.256053
0.254988
0.253929
0.252877
0.251832
0.250794
0.249763
0.248738
0.247721
0.246711
0.245709
0.244713
0.243725
0.242743
0.241769
0.240802
0.239841
0.238888
0.237941
0.237
0.236066
0.235137
0.234214
0.233296
0.232384
0.231478
0.230576
0.22968
0.228788
0.227901
0.227018
0.22614
0.225266
0.224397
0.223531
0.222671
0.221814
0.220962
0.220115
0.219273
0.218435
0.217602
0.216775
0.215953
0.215136
0.214324
0.213517
0.212716
0.211921
0.211131
0.210346
0.209568
0.208796
0.208029
0.207269
0.206514
0.205766
0.205035
0.278914
0.277746
0.276581
0.275421
0.274265
0.273113
0.271966
0.270825
0.269689
0.268558
0.267433
0.266313
0.2652
0.264093
0.262991
0.261895
0.260805
0.259721
0.258643
0.257571
0.256506
0.255447
0.254394
0.253348
0.252309
0.251276
0.250249
0.24923
0.248217
0.247211
0.246212
0.24522
0.244234
0.243255
0.242284
0.241318
0.24036
0.239408
0.238462
0.237522
0.236587
0.235659
0.234736
0.233819
0.232907
0.232
0.231098
0.230202
0.22931
0.228422
0.22754
0.226662
0.225788
0.224919
0.224055
0.223195
0.22234
0.22149
0.220645
0.219805
0.21897
0.218141
0.217317
0.216499
0.215685
0.214877
0.214074
0.213278
0.212487
0.211701
0.210922
0.210149
0.209382
0.208621
0.207865
0.207116
0.206384
0.280477
0.279319
0.278164
0.277012
0.275864
0.27472
0.273581
0.272446
0.271315
0.27019
0.26907
0.267956
0.266847
0.265744
0.264646
0.263554
0.262468
0.261387
0.260311
0.259242
0.258179
0.257121
0.25607
0.255024
0.253985
0.252952
0.251925
0.250904
0.24989
0.248882
0.247881
0.246885
0.245897
0.244914
0.243938
0.242969
0.242005
0.241048
0.240097
0.239152
0.238213
0.237279
0.23635
0.235427
0.23451
0.233598
0.232691
0.231789
0.230893
0.230001
0.229113
0.228231
0.227353
0.226481
0.225613
0.22475
0.223892
0.223039
0.222192
0.22135
0.220513
0.219683
0.218858
0.218037
0.217223
0.216415
0.215612
0.214815
0.214023
0.213238
0.212458
0.211685
0.210918
0.210156
0.2094
0.208651
0.207919
0.282022
0.280877
0.279734
0.278593
0.277454
0.27632
0.275189
0.274062
0.272939
0.271822
0.270709
0.269602
0.268499
0.267402
0.266311
0.265224
0.264143
0.263067
0.261997
0.260931
0.259872
0.258818
0.25777
0.256727
0.25569
0.254659
0.253634
0.252614
0.2516
0.250592
0.249589
0.248593
0.247603
0.246618
0.24564
0.244668
0.243702
0.242741
0.241786
0.240837
0.239894
0.238956
0.238024
0.237096
0.236175
0.235259
0.234348
0.233442
0.232542
0.231646
0.230755
0.22987
0.228989
0.228113
0.227243
0.226378
0.225518
0.224663
0.223814
0.222971
0.222134
0.221303
0.220476
0.219658
0.218843
0.218035
0.217232
0.216435
0.215645
0.21486
0.214081
0.213308
0.212542
0.21178
0.211025
0.210276
0.209545
0.283511
0.28238
0.28125
0.280121
0.278994
0.27787
0.27675
0.275632
0.274519
0.27341
0.272305
0.271206
0.270111
0.269022
0.267937
0.266858
0.265783
0.264714
0.263649
0.26259
0.261536
0.260487
0.259444
0.258405
0.257372
0.256344
0.255321
0.254303
0.25329
0.252282
0.25128
0.250283
0.249292
0.248306
0.247326
0.246351
0.245382
0.244418
0.24346
0.242507
0.24156
0.240618
0.239681
0.23875
0.237824
0.236904
0.235989
0.235079
0.234175
0.233276
0.232382
0.231494
0.23061
0.229733
0.22886
0.227993
0.227132
0.226277
0.225427
0.224584
0.223746
0.222915
0.222091
0.22127
0.220458
0.219651
0.218852
0.218057
0.217268
0.216486
0.215709
0.214938
0.214173
0.213414
0.21266
0.211913
0.211184
0.284993
0.283878
0.282763
0.281647
0.280533
0.27942
0.278309
0.277202
0.276097
0.274997
0.273901
0.27281
0.271723
0.270641
0.269564
0.268492
0.267424
0.266361
0.265303
0.26425
0.263201
0.262158
0.261119
0.260084
0.259054
0.258029
0.257008
0.255991
0.254979
0.253972
0.252969
0.251971
0.250978
0.24999
0.249007
0.248029
0.247056
0.246088
0.245125
0.244168
0.243216
0.242269
0.241327
0.240391
0.23946
0.238535
0.237616
0.236702
0.235793
0.234891
0.233993
0.233101
0.232215
0.231335
0.230461
0.229592
0.22873
0.227873
0.227023
0.22618
0.225343
0.224512
0.223687
0.222871
0.222058
0.221253
0.220453
0.219661
0.218875
0.218095
0.217321
0.216553
0.21579
0.215033
0.214281
0.213536
0.212809
0.286551
0.285454
0.284355
0.283254
0.282153
0.281052
0.279953
0.278855
0.27776
0.276668
0.275581
0.274498
0.273419
0.272345
0.271276
0.270211
0.26915
0.268094
0.267043
0.265996
0.264953
0.263915
0.26288
0.26185
0.260823
0.259799
0.25878
0.257763
0.256751
0.255742
0.254737
0.253736
0.252738
0.251745
0.250756
0.249772
0.248792
0.247817
0.246847
0.245882
0.244921
0.243966
0.243016
0.242072
0.241134
0.240201
0.239275
0.238354
0.237439
0.23653
0.235628
0.234731
0.233841
0.232957
0.232079
0.231208
0.230344
0.229486
0.228636
0.227792
0.226955
0.226126
0.225304
0.224486
0.223677
0.222874
0.222079
0.221289
0.220505
0.219727
0.218956
0.21819
0.21743
0.216676
0.215927
0.215184
0.214461
0.288289
0.287212
0.28613
0.285045
0.283958
0.28287
0.281781
0.280694
0.279608
0.278525
0.277446
0.276371
0.2753
0.274233
0.273171
0.272114
0.27106
0.270011
0.268966
0.267925
0.266888
0.265854
0.264823
0.263795
0.262771
0.261748
0.260728
0.25971
0.258695
0.257683
0.256673
0.255666
0.254661
0.25366
0.252662
0.251669
0.250679
0.249693
0.248711
0.247735
0.246763
0.245796
0.244835
0.243879
0.242929
0.241986
0.24105
0.240119
0.239196
0.238279
0.237369
0.236465
0.235569
0.23468
0.233798
0.232923
0.232056
0.231197
0.230345
0.229501
0.228664
0.227835
0.227013
0.2262
0.225392
0.224592
0.223797
0.22301
0.22223
0.221456
0.220688
0.219926
0.219169
0.218418
0.217672
0.216932
0.216211
0.290306
0.289252
0.288191
0.287124
0.286052
0.284977
0.2839
0.282823
0.281747
0.280673
0.279602
0.278536
0.277473
0.276415
0.275361
0.274312
0.273266
0.272225
0.271188
0.270153
0.269122
0.268094
0.267068
0.266043
0.265019
0.263997
0.262975
0.261954
0.260934
0.259915
0.258896
0.257879
0.256864
0.25585
0.254838
0.253829
0.252823
0.251821
0.250822
0.249828
0.248838
0.247854
0.246875
0.245903
0.244937
0.243978
0.243026
0.242082
0.241146
0.240217
0.239295
0.238382
0.237478
0.236581
0.235693
0.234813
0.233942
0.23308
0.232227
0.231382
0.230545
0.229717
0.228899
0.228085
0.227282
0.226485
0.225698
0.224914
0.224138
0.223368
0.222603
0.221845
0.221093
0.220346
0.219603
0.218867
0.218149
0.292725
0.291699
0.290661
0.289614
0.288559
0.287498
0.286433
0.285366
0.284299
0.283234
0.282171
0.281113
0.280059
0.279009
0.277964
0.276923
0.275886
0.274853
0.273824
0.272798
0.271773
0.27075
0.269728
0.268705
0.267682
0.266658
0.265633
0.264606
0.263578
0.262548
0.261518
0.260486
0.259454
0.258422
0.257391
0.256361
0.255333
0.254308
0.253286
0.252268
0.251255
0.250247
0.249245
0.248249
0.247261
0.246282
0.24531
0.244347
0.243393
0.242449
0.241513
0.240587
0.239671
0.238765
0.237869
0.236983
0.236107
0.235241
0.234385
0.233539
0.232703
0.231877
0.231058
0.230252
0.229451
0.22866
0.227874
0.227097
0.226327
0.225562
0.224804
0.224051
0.223303
0.222561
0.221823
0.22109
0.220375
0.295676
0.294682
0.29367
0.292644
0.291607
0.29056
0.289507
0.288451
0.287392
0.286336
0.285281
0.284232
0.283186
0.282146
0.281111
0.280081
0.279056
0.278034
0.277015
0.275999
0.274983
0.273967
0.27295
0.27193
0.270908
0.269881
0.26885
0.267814
0.266774
0.265729
0.264681
0.263628
0.262572
0.261514
0.260455
0.259395
0.258335
0.257278
0.256223
0.255171
0.254124
0.253082
0.252048
0.251021
0.250002
0.248993
0.247995
0.247006
0.246029
0.245063
0.244108
0.243165
0.242234
0.241315
0.240409
0.239514
0.238632
0.237762
0.236904
0.236057
0.235222
0.234398
0.233587
0.232781
0.231989
0.231203
0.230429
0.229658
0.228895
0.228138
0.227386
0.226641
0.2259
0.225164
0.224431
0.223703
0.222992
0.299323
0.298363
0.29738
0.296376
0.295356
0.294323
0.293279
0.29223
0.291178
0.290127
0.289079
0.288036
0.286999
0.285968
0.284943
0.283924
0.28291
0.2819
0.280894
0.279888
0.278883
0.277875
0.276863
0.275845
0.274822
0.27379
0.27275
0.271701
0.270644
0.269578
0.268504
0.267423
0.266335
0.265241
0.264144
0.263044
0.261942
0.260841
0.259742
0.258646
0.257555
0.25647
0.255393
0.254324
0.253266
0.25222
0.251186
0.250165
0.249157
0.248164
0.247185
0.24622
0.24527
0.244336
0.243416
0.242512
0.241622
0.240747
0.239886
0.23904
0.238207
0.237386
0.236577
0.235784
0.234996
0.234221
0.233451
0.232692
0.23194
0.231193
0.230451
0.229715
0.228983
0.228254
0.227529
0.226805
0.226097
0.30383
0.302903
0.301944
0.300959
0.299951
0.298925
0.297886
0.296839
0.295787
0.294737
0.293691
0.292652
0.29162
0.290598
0.289583
0.288576
0.287576
0.286581
0.285589
0.284598
0.283606
0.282609
0.281605
0.280592
0.279567
0.278529
0.277476
0.276409
0.275327
0.274231
0.273122
0.272
0.270867
0.269725
0.268575
0.26742
0.266261
0.265102
0.263943
0.262787
0.261637
0.260493
0.259359
0.258236
0.257127
0.256031
0.254951
0.253887
0.252841
0.251812
0.250801
0.249809
0.248836
0.247882
0.246946
0.246029
0.24513
0.24425
0.243386
0.24254
0.241709
0.240894
0.240096
0.239306
0.238533
0.237768
0.237016
0.236268
0.235528
0.234794
0.234064
0.233339
0.232618
0.2319
0.231182
0.230466
0.229761
0.309335
0.308436
0.307496
0.306519
0.305513
0.304483
0.303435
0.302378
0.301316
0.300256
0.299202
0.298158
0.297127
0.296106
0.295097
0.294099
0.29311
0.292129
0.291151
0.290175
0.289197
0.288213
0.287217
0.286207
0.28518
0.284133
0.283064
0.281974
0.280861
0.279726
0.27857
0.277394
0.276203
0.274997
0.273781
0.272555
0.271325
0.270091
0.268858
0.267628
0.266404
0.265188
0.263984
0.262794
0.26162
0.260464
0.259328
0.258212
0.257118
0.256046
0.254998
0.253972
0.25297
0.251992
0.251037
0.250105
0.249195
0.248308
0.247441
0.246595
0.245768
0.244959
0.244165
0.243393
0.242628
0.241879
0.241136
0.240406
0.239683
0.238965
0.238251
0.237541
0.236834
0.236127
0.235421
0.234713
0.234014
0.315864
0.314977
0.314036
0.31305
0.312026
0.310973
0.3099
0.308814
0.307725
0.30664
0.305566
0.304509
0.303466
0.30244
0.301431
0.300438
0.299458
0.298489
0.297528
0.296569
0.295606
0.294632
0.293644
0.292636
0.291604
0.290544
0.289455
0.288335
0.287184
0.286001
0.28479
0.283551
0.282288
0.281003
0.279702
0.27839
0.27707
0.275746
0.274422
0.273101
0.271788
0.270485
0.269197
0.267927
0.266676
0.265448
0.264245
0.263068
0.261918
0.260796
0.259702
0.258637
0.257601
0.256594
0.255616
0.254666
0.253743
0.252847
0.251976
0.25113
0.250306
0.249505
0.248726
0.24796
0.247215
0.246482
0.245766
0.245054
0.244352
0.243656
0.242965
0.242278
0.241594
0.240911
0.240225
0.239538
0.238856
0.323276
0.322387
0.321425
0.320409
0.319349
0.318252
0.31713
0.315995
0.314857
0.313728
0.312616
0.311522
0.31045
0.309402
0.308377
0.307374
0.306391
0.305424
0.304468
0.303514
0.302556
0.301586
0.300596
0.299582
0.298537
0.297457
0.29634
0.295182
0.293985
0.292748
0.291473
0.290162
0.288821
0.287453
0.286061
0.284653
0.283236
0.281814
0.280392
0.278975
0.277566
0.276172
0.274795
0.273439
0.272109
0.270806
0.269533
0.268291
0.267083
0.265907
0.264767
0.26366
0.262589
0.261553
0.260551
0.259583
0.258647
0.257744
0.256871
0.256028
0.255213
0.254425
0.253659
0.252924
0.252202
0.251504
0.250817
0.25015
0.249495
0.24885
0.248215
0.247587
0.246966
0.246348
0.245735
0.24512
0.244508
0.330442
0.329439
0.328361
0.327225
0.326048
0.324842
0.323621
0.322402
0.321197
0.32001
0.318849
0.317717
0.316618
0.31555
0.314513
0.313503
0.312515
0.31154
0.31057
0.309596
0.308608
0.307599
0.30656
0.305485
0.30437
0.303209
0.302002
0.300748
0.299448
0.298103
0.296717
0.295294
0.29384
0.292362
0.290864
0.289353
0.287839
0.286326
0.284819
0.283325
0.281847
0.280391
0.278962
0.277562
0.276195
0.274862
0.273567
0.27231
0.271093
0.269916
0.26878
0.267685
0.266632
0.26562
0.264649
0.263719
0.262829
0.261979
0.261167
0.260394
0.259659
0.258964
0.258297
0.257672
0.257077
0.25652
0.255988
0.255487
0.255015
0.254572
0.254157
0.253769
0.253406
0.253062
0.252741
0.252421
0.338967
0.337841
0.33663
0.335351
0.334031
0.332679
0.331318
0.329961
0.328619
0.327304
0.326024
0.324784
0.323585
0.32243
0.321313
0.320234
0.319183
0.31815
0.317127
0.316101
0.315063
0.314002
0.31291
0.311778
0.310602
0.309378
0.308103
0.306779
0.305404
0.303984
0.302523
0.301026
0.299499
0.29795
0.296386
0.294813
0.293239
0.291671
0.290115
0.288576
0.28706
0.285571
0.284113
0.28269
0.281306
0.279962
0.278661
0.277406
0.276197
0.275037
0.273928
0.272871
0.271867
0.27092
0.270029
0.269198
0.268429
0.267723
0.267083
0.266512
0.266013
0.265586
0.265245
0.264976
0.264796
0.264696
0.264695
0.264785
0.264972
0.265258
0.265645
0.266134
0.266722
0.26741
0.268181
0.268971
0.346169
0.344698
0.343184
0.341621
0.34005
0.33848
0.336925
0.335406
0.333934
0.332519
0.331165
0.329874
0.328645
0.327477
0.326365
0.325299
0.324267
0.323254
0.322246
0.321226
0.320178
0.319087
0.317943
0.316735
0.315458
0.31411
0.312693
0.311212
0.309675
0.308092
0.306475
0.304835
0.303183
0.301536
0.299898
0.298277
0.296683
0.295122
0.293598
0.292114
0.290674
0.28928
0.287937
0.286646
0.285414
0.284243
0.283137
0.282103
0.281144
0.280269
0.279483
0.278794
0.278211
0.277743
0.277401
0.277197
0.277141
0.277249
0.277533
0.278011
0.278702
0.279609
0.280767
0.282182
0.283884
0.285872
0.288174
0.290802
0.293767
0.297078
0.300738
0.304744
0.309073
0.313708
0.318376
0.351712
0.349875
0.348085
0.346313
0.34459
0.34294
0.341385
0.339942
0.338624
0.337442
0.336402
0.335511
0.334774
0.334197
0.333765
0.333454
0.333227
0.33304
0.33284
0.332567
0.332167
0.33159
0.330797
0.329767
0.328491
0.32698
0.325259
0.323362
0.321332
0.319214
0.317056
0.314898
0.312775
0.310724
0.308769
0.306916
0.305206
0.303636
0.302199
0.300891
0.29971
0.298658
0.297742
0.296968
0.296348
0.295896
0.295628
0.295564
0.295728
0.296144
0.296841
0.297853
0.299213
0.300962
0.30314
0.305792
0.308967
0.312716
0.31709
0.32214
0.327932
0.334497
0.3419
0.350169
0.359361
0.36949
0.380569
0.392599
0.405561
0.419417
0.434094
0.44951
0.4655
0.48119
0.355434
0.35369
0.352131
0.350799
0.34974
0.349004
0.348642
0.348709
0.349277
0.350409
0.352159
0.354635
0.357897
0.361904
0.366548
0.371646
0.376951
0.382167
0.386979
0.391086
0.394234
0.396244
0.397019
0.396551
0.394912
0.392238
0.388712
0.384542
0.379945
0.375126
0.370279
0.365571
0.361129
0.357094
0.353543
0.350483
0.348147
0.346455
0.345364
0.344848
0.344895
0.345507
0.346701
0.348506
0.35096
0.354113
0.358024
0.36276
0.368396
0.375014
0.382704
0.391556
0.401668
0.413135
0.426053
0.44051
0.456591
0.474369
0.493902
0.515204
0.538322
0.563223
0.589892
0.618224
0.648134
0.679482
0.712099
0.745782
0.780294
0.81537
0.850689
0.88584
0.91849
0.364318
0.363957
0.364267
0.36542
0.367623
0.371126
0.376227
0.383258
0.392676
0.404914
0.420298
0.439443
0.462495
0.488983
0.518036
0.548431
0.578719
0.607394
0.63306
0.654581
0.671175
0.682444
0.688368
0.689244
0.685613
0.678197
0.667805
0.655274
0.641427
0.627007
0.612681
0.599072
0.586655
0.57582
0.567033
0.560461
0.556198
0.554964
0.556396
0.560252
0.566351
0.574553
0.584758
0.596905
0.610961
0.626921
0.644791
0.664585
0.686328
0.710052
0.735802
0.763608
0.793499
0.82549
0.859584
0.895764
0.933993
0.9742
1.01627
1.06012
1.10552
1.15232
1.20026
1.24914
1.29862
1.34843
1.39824
1.44773
1.49656
1.5444
1.5909
1.63539
1.67398
0.396088
0.401216
0.409227
0.420699
0.43672
0.458718
0.488339
0.527291
0.577249
0.639728
0.715072
0.803524
0.903637
1.01085
1.11972
1.22472
1.32085
1.40418
1.47212
1.52338
1.55794
1.57674
1.58146
1.5742
1.55725
1.53301
1.5038
1.47176
1.43882
1.40665
1.37667
1.35025
1.32816
1.31164
1.30095
1.29619
1.298
1.30595
1.31878
1.33554
1.3553
1.37727
1.40073
1.42536
1.45107
1.47783
1.50547
1.53373
1.56261
1.59232
1.62307
1.65505
1.68845
1.72342
1.76007
1.79847
1.83863
1.88051
1.92399
1.96882
2.01489
2.06185
2.10947
2.15732
2.2051
2.25244
2.29899
2.34439
2.38833
2.43052
2.47055
2.50774
2.53728
0.542215
0.581943
0.638537
0.715516
0.817761
0.949527
1.11328
1.30807
1.53051
1.77315
2.02594
2.27979
2.51979
2.73425
2.91544
3.05961
3.16632
3.23763
3.27721
3.28972
3.28019
3.25363
3.21471
3.16769
3.1163
3.06401
3.01333
2.96639
2.9247
2.88964
2.86156
2.84067
2.8268
2.81795
2.81636
2.81815
2.82062
2.82241
2.82321
2.82272
2.82075
2.81723
2.81243
2.80678
2.80085
2.79531
2.79087
2.78816
2.78798
2.79029
2.79525
2.80305
2.81385
2.82775
2.84475
2.86481
2.88772
2.91323
2.94106
2.97074
3.00213
3.03451
3.06747
3.10042
3.13289
3.16446
3.19477
3.22351
3.25037
3.27511
3.29692
3.31143
1.23353
1.44803
1.72288
2.05056
2.42395
2.82972
3.24969
3.66421
4.05394
4.40627
4.70592
4.94589
5.12556
5.24881
5.32209
5.35311
5.34981
5.31984
5.27027
5.2074
5.13648
5.06185
4.98699
4.9146
4.84657
4.78416
4.72773
4.67719
4.63217
4.5913
4.55268
4.51692
4.48161
4.4421
4.40042
4.35702
4.3122
4.26622
4.21921
4.17248
4.12548
4.07768
4.03026
3.98472
3.94206
3.90299
3.868
3.83745
3.81156
3.79042
3.77399
3.76212
3.75465
3.7513
3.75163
3.75536
3.76271
3.77228
3.78347
3.79591
3.80968
3.82395
3.8382
3.85191
3.8647
3.87624
3.88629
3.89468
3.90121
3.90534
3.90403
3.3609
3.85298
4.38043
4.90304
5.40046
5.85412
6.24733
6.57353
6.82488
6.99975
7.10668
7.15543
7.15628
7.11914
7.05323
6.96684
6.86705
6.7598
6.64989
6.54095
6.43558
6.33538
6.24122
6.15316
6.07075
5.99288
5.91846
5.8462
5.77574
5.70584
5.63425
5.56166
5.48909
5.41611
5.3415
5.2666
5.19234
5.11939
5.04834
4.97962
4.91357
4.85063
4.79119
4.73569
4.68442
4.63758
4.59534
4.55762
4.52449
4.49572
4.47104
4.45022
4.43298
4.41886
4.40723
4.39785
4.39035
4.38407
4.37839
4.37341
4.36871
4.36371
4.35809
4.35156
4.34394
4.33513
4.3251
4.31377
4.30088
4.28573
6.08821
6.65202
7.15404
7.58395
7.93031
8.19144
8.36357
8.45173
8.46974
8.43116
8.34853
8.23353
8.09639
7.94598
7.78959
7.63286
7.48011
7.33418
7.19685
7.06895
6.9503
6.84041
6.73826
6.64224
6.55123
6.46428
6.38048
6.29905
6.21867
6.13931
6.06135
5.9847
5.90929
5.83493
5.7617
5.68977
5.6195
5.551
5.48461
5.42055
5.35927
5.30065
5.24483
5.1923
5.14305
5.09707
5.05429
5.01463
4.97795
4.94397
4.91247
4.88321
4.85587
4.83
4.80539
4.78169
4.75865
4.73576
4.71317
4.69042
4.66736
4.64375
4.61951
4.59457
4.56897
4.54276
4.51603
4.48894
4.46309
7.7831
8.32455
8.73971
9.02623
9.20171
9.27239
9.25533
9.16936
9.03177
8.85814
8.66144
8.45321
8.24231
8.03608
7.8394
7.65577
7.48694
7.33356
7.19516
7.07091
6.95919
6.85836
6.76631
6.68114
6.60226
6.52767
6.45724
6.39009
6.32551
6.26268
6.20126
6.14073
6.08096
6.02165
5.96286
5.90454
5.84684
5.7898
5.73358
5.67824
5.62399
5.57086
5.51899
5.46843
5.41928
5.37151
5.32516
5.28017
5.23649
5.19396
5.15248
5.11194
5.07221
5.03307
4.99438
4.95611
4.91799
4.87996
4.84191
4.80382
4.76558
4.72714
4.68854
4.64981
4.61107
4.57244
4.53411
4.49651
4.46344
9.40808
9.59558
9.6433
9.5859
9.44859
9.25121
9.01641
8.7616
8.49836
8.23828
7.9886
7.75594
7.54324
7.35274
7.18409
7.03678
6.90868
6.79788
6.70194
6.61808
6.54452
6.47857
6.42004
6.36719
6.31895
6.27372
6.23108
6.18971
6.14944
6.10928
6.06929
6.02874
5.98784
5.94606
5.90371
5.86043
5.8165
5.77162
5.72608
5.67968
5.63269
5.58497
5.53678
5.48803
5.43896
5.38952
5.33989
5.29006
5.2401
5.19001
5.13987
5.08976
5.03963
4.98957
4.93952
4.88971
4.83995
4.79031
4.74082
4.69154
4.64264
4.59403
4.54598
4.49848
4.45181
4.40604
4.36205
4.3251
9.51556
9.33969
9.10208
8.81965
8.49088
8.19041
7.89644
7.62115
7.36649
7.13927
6.93831
6.76534
6.61729
6.49251
6.38781
6.30035
6.22762
6.16619
6.11563
6.07264
6.03729
6.00642
5.98024
5.95598
5.93448
5.91327
5.89334
5.87251
5.85186
5.82954
5.80667
5.78165
5.75557
5.72708
5.69719
5.66471
5.6305
5.59363
5.5549
5.51358
5.47036
5.42476
5.37742
5.32804
5.27711
5.22456
5.17081
5.11583
5.05991
5.00324
4.94609
4.88857
4.83075
4.77311
4.71556
4.65831
4.60134
4.54484
4.48919
4.43407
4.38007
4.32676
4.27484
4.22399
4.17476
4.12772
4.08963
8.60874
8.32432
8.01642
7.67489
0.274331
0.273128
0.271932
0.270742
0.269559
0.268383
0.267214
0.266052
0.264898
0.26375
0.262609
0.261476
0.26035
0.259232
0.25812
0.257016
0.255918
0.254829
0.253746
0.252671
0.251604
0.250544
0.249492
0.248448
0.247411
0.246383
0.245362
0.244349
0.243344
0.242347
0.241358
0.240376
0.239402
0.238436
0.237477
0.236525
0.23558
0.234642
0.23371
0.232785
0.231865
0.230951
0.230043
0.22914
0.228242
0.227349
0.22646
0.225576
0.224696
0.22382
0.222948
0.22208
0.221216
0.220356
0.2195
0.218648
0.2178
0.216956
0.216116
0.215281
0.214451
0.213625
0.212804
0.211989
0.211179
0.210374
0.209574
0.20878
0.207992
0.20721
0.206434
0.205664
0.2049
0.204142
0.20339
0.202646
0.201919
0.274433
0.273233
0.272039
0.270851
0.26967
0.268496
0.267329
0.266169
0.265017
0.263871
0.262732
0.261601
0.260476
0.259359
0.25825
0.257147
0.256051
0.254962
0.253881
0.252807
0.25174
0.250682
0.24963
0.248587
0.247551
0.246522
0.245502
0.244489
0.243484
0.242487
0.241498
0.240516
0.239542
0.238576
0.237617
0.236665
0.23572
0.234782
0.23385
0.232925
0.232005
0.231091
0.230183
0.229281
0.228383
0.22749
0.226602
0.225718
0.224839
0.223964
0.223092
0.222225
0.221362
0.220503
0.219648
0.218796
0.217949
0.217106
0.216267
0.215433
0.214603
0.213778
0.212959
0.212144
0.211335
0.21053
0.209731
0.208937
0.208149
0.207367
0.20659
0.20582
0.205056
0.204298
0.203546
0.202801
0.202073
0.274698
0.273502
0.272312
0.271128
0.26995
0.26878
0.267616
0.266459
0.265309
0.264166
0.263029
0.2619
0.260778
0.259663
0.258555
0.257454
0.25636
0.255272
0.254192
0.253119
0.252053
0.250995
0.249944
0.248901
0.247865
0.246837
0.245817
0.244804
0.243799
0.242801
0.241811
0.240829
0.239855
0.238888
0.237928
0.236976
0.23603
0.235091
0.234159
0.233233
0.232313
0.231399
0.230491
0.229588
0.22869
0.227797
0.226909
0.226026
0.225147
0.224272
0.223401
0.222534
0.221672
0.220813
0.219959
0.219108
0.218262
0.21742
0.216582
0.215748
0.21492
0.214096
0.213277
0.212463
0.211654
0.21085
0.210051
0.209258
0.20847
0.207688
0.206912
0.206142
0.205377
0.204619
0.203867
0.203121
0.202392
0.275194
0.274003
0.272818
0.271639
0.270467
0.2693
0.268141
0.266988
0.265841
0.264702
0.263569
0.262442
0.261323
0.260211
0.259105
0.258006
0.256913
0.255828
0.254749
0.253677
0.252612
0.251555
0.250505
0.249462
0.248426
0.247398
0.246378
0.245365
0.244359
0.243361
0.242371
0.241388
0.240412
0.239444
0.238483
0.23753
0.236583
0.235643
0.23471
0.233783
0.232862
0.231946
0.231037
0.230133
0.229234
0.22834
0.227451
0.226567
0.225687
0.224812
0.223941
0.223074
0.222211
0.221352
0.220497
0.219647
0.2188
0.217958
0.217121
0.216287
0.215459
0.214635
0.213817
0.213003
0.212194
0.211391
0.210593
0.2098
0.209012
0.208231
0.207455
0.206685
0.20592
0.205162
0.20441
0.203664
0.202935
0.276
0.274817
0.273638
0.272465
0.271298
0.270137
0.268982
0.267833
0.26669
0.265554
0.264424
0.263301
0.262184
0.261074
0.259971
0.258873
0.257783
0.256698
0.255621
0.25455
0.253486
0.252429
0.251379
0.250335
0.2493
0.248271
0.247249
0.246235
0.245228
0.244228
0.243236
0.242251
0.241274
0.240304
0.239341
0.238384
0.237435
0.236493
0.235557
0.234627
0.233703
0.232785
0.231873
0.230966
0.230065
0.229169
0.228278
0.227391
0.226509
0.225632
0.224759
0.22389
0.223026
0.222165
0.221309
0.220458
0.21961
0.218767
0.217929
0.217095
0.216266
0.215442
0.214623
0.213809
0.213
0.212197
0.211398
0.210605
0.209818
0.209036
0.20826
0.20749
0.206726
0.205968
0.205215
0.20447
0.20374
0.277142
0.275966
0.274794
0.273627
0.272466
0.27131
0.270159
0.269015
0.267876
0.266743
0.265617
0.264496
0.263382
0.262274
0.261172
0.260077
0.258987
0.257904
0.256827
0.255757
0.254693
0.253635
0.252585
0.251541
0.250504
0.249473
0.24845
0.247433
0.246424
0.245422
0.244427
0.243439
0.242458
0.241484
0.240517
0.239557
0.238603
0.237656
0.236716
0.235782
0.234854
0.233932
0.233015
0.232104
0.231199
0.230298
0.229403
0.228513
0.227627
0.226747
0.22587
0.224998
0.224131
0.223268
0.222409
0.221555
0.220706
0.219861
0.219021
0.218185
0.217355
0.21653
0.215709
0.214895
0.214085
0.21328
0.212481
0.211688
0.2109
0.210118
0.209342
0.208571
0.207807
0.207048
0.206295
0.205549
0.20482
0.278548
0.27738
0.276215
0.275055
0.2739
0.27275
0.271604
0.270464
0.26933
0.268201
0.267078
0.265961
0.26485
0.263745
0.262645
0.261552
0.260464
0.259382
0.258307
0.257237
0.256173
0.255116
0.254065
0.25302
0.251982
0.25095
0.249925
0.248907
0.247895
0.246889
0.245891
0.244899
0.243914
0.242936
0.241964
0.241
0.240041
0.239089
0.238144
0.237205
0.236271
0.235344
0.234422
0.233506
0.232595
0.231689
0.230789
0.229894
0.229004
0.228119
0.227238
0.226362
0.225491
0.224624
0.223762
0.222905
0.222053
0.221205
0.220363
0.219526
0.218693
0.217866
0.217045
0.216229
0.215418
0.214612
0.213812
0.213018
0.21223
0.211447
0.21067
0.2099
0.209135
0.208375
0.207622
0.206876
0.206146
0.280066
0.278907
0.277752
0.2766