/*--------------------------------*- C++ -*----------------------------------*\
  =========                 |
  \\      /  F ield         | OpenFOAM: The Open Source CFD Toolbox
   \\    /   O peration     | Website:  https://openfoam.org
    \\  /    A nd           | Version:  13
     \\/     M anipulation  |
\*---------------------------------------------------------------------------*/
FoamFile
{
    format      ascii;
    class       volScalarField;
    location    "200";
    object      nut;
}
// * * * * * * * * * * * * * * * * * * * * * * * * * * * * * * * * * * * * * //

dimensions      [0 2 -1 0 0 0 0];

internalField   nonuniform List<scalar> 
172836
(
0.017621
0.01761
0.017599
0.0175882
0.0175774
0.0175667
0.0175561
0.0175456
0.0176372
0.0176262
0.0176153
0.0176046
0.0175939
0.0175833
0.0175728
0.0175623
0.0176852
0.0176743
0.0176635
0.0176528
0.0176421
0.0176316
0.0176211
0.0176107
0.0176003
0.0177525
0.0177418
0.0177311
0.0177205
0.01771
0.0176996
0.0176892
0.017679
0.0176688
0.0178602
0.0178496
0.017839
0.0178286
0.0178181
0.0178078
0.0177975
0.0177873
0.0177772
0.018015
0.0180044
0.0179939
0.0179834
0.0179731
0.0179628
0.0179525
0.0179424
0.0179323
0.0182182
0.0182077
0.0181972
0.0181868
0.0181764
0.0181661
0.0181559
0.0181457
0.0181356
0.0184657
0.0184552
0.0184448
0.0184345
0.0184242
0.018414
0.0184039
0.0183938
0.0183837
0.0187282
0.0187182
0.0187082
0.0186983
0.0186885
0.0186787
0.0186689
0.0186593
0.0176481
0.0176369
0.0176257
0.0176146
0.0176035
0.0175926
0.0175817
0.0175709
0.0175602
0.0175496
0.0175391
0.0175287
0.0175189
0.0176637
0.0176525
0.0176414
0.0176304
0.0176194
0.0176086
0.0175978
0.0175871
0.0175765
0.0175659
0.0175555
0.0175452
0.0175354
0.0176997
0.0176887
0.0176778
0.0176669
0.0176561
0.0176454
0.0176347
0.0176241
0.0176136
0.0176032
0.0175929
0.0175826
0.017573
0.0177658
0.017755
0.0177442
0.0177335
0.0177228
0.0177123
0.0177018
0.0176913
0.017681
0.0176707
0.0176604
0.0176503
0.0176408
0.0178721
0.0178615
0.0178508
0.0178402
0.0178297
0.0178193
0.0178089
0.0177985
0.0177883
0.0177781
0.017768
0.017758
0.0177485
0.0180257
0.0180151
0.0180045
0.017994
0.0179835
0.0179731
0.0179628
0.0179526
0.0179424
0.0179322
0.0179222
0.0179122
0.0179027
0.0182279
0.0182173
0.0182067
0.0181963
0.0181858
0.0181755
0.0181652
0.018155
0.0181448
0.0181347
0.0181247
0.0181147
0.0181053
0.0184739
0.0184634
0.018453
0.0184426
0.0184324
0.0184221
0.018412
0.0184019
0.0183918
0.0183818
0.0183719
0.018362
0.0183527
0.018744
0.0187339
0.0187239
0.0187139
0.018704
0.0186942
0.0186844
0.0186747
0.018665
0.0186554
0.0186458
0.0186363
0.0186272
0.0188983
0.0184027
0.0183901
0.0183774
0.0183647
0.0183519
0.0183391
0.0183263
0.0183135
0.0183007
0.0182879
0.018275
0.0182622
0.0182494
0.0182366
0.0182238
0.018211
0.0181983
0.0181856
0.0181729
0.0181603
0.0181477
0.0181352
0.0181227
0.0181103
0.018098
0.0180858
0.0180736
0.0180615
0.0180496
0.0180376
0.0180258
0.0180141
0.0180024
0.0179909
0.0179794
0.017968
0.0179566
0.0179453
0.0179341
0.0179229
0.0179117
0.0179006
0.0178895
0.0178784
0.0178672
0.0178561
0.017845
0.0178339
0.0178227
0.0178115
0.0178003
0.017789
0.0177777
0.0177664
0.0177551
0.0177437
0.0177323
0.017721
0.0177096
0.0176982
0.0176868
0.0176755
0.0176641
0.0176529
0.0176416
0.0176304
0.0176192
0.0176081
0.0175971
0.0175861
0.0175752
0.0175644
0.0175537
0.0175431
0.0175326
0.0175221
0.0175124
0.0184112
0.0183988
0.0183863
0.0183738
0.0183612
0.0183486
0.018336
0.0183233
0.0183107
0.018298
0.0182853
0.0182726
0.0182599
0.0182473
0.0182346
0.018222
0.0182093
0.0181968
0.0181842
0.0181717
0.0181592
0.0181468
0.0181344
0.0181221
0.0181099
0.0180977
0.0180856
0.0180736
0.0180617
0.0180499
0.0180381
0.0180265
0.0180149
0.0180034
0.017992
0.0179806
0.0179694
0.0179581
0.017947
0.0179358
0.0179247
0.0179137
0.0179026
0.0178916
0.0178805
0.0178695
0.0178585
0.0178474
0.0178363
0.0178252
0.0178141
0.0178029
0.0177917
0.0177805
0.0177693
0.017758
0.0177467
0.0177354
0.0177241
0.0177129
0.0177016
0.0176903
0.0176791
0.017668
0.0176568
0.0176457
0.0176346
0.0176236
0.0176127
0.0176018
0.017591
0.0175803
0.0175696
0.0175591
0.0175486
0.0175383
0.0175285
0.0184354
0.0184234
0.0184113
0.0183991
0.0183869
0.0183746
0.0183623
0.01835
0.0183376
0.0183252
0.0183128
0.0183004
0.018288
0.0182756
0.0182631
0.0182507
0.0182383
0.0182259
0.0182136
0.0182012
0.0181889
0.0181767
0.0181645
0.0181523
0.0181402
0.0181282
0.0181162
0.0181044
0.0180926
0.0180808
0.0180692
0.0180576
0.0180461
0.0180347
0.0180234
0.0180122
0.018001
0.0179898
0.0179788
0.0179677
0.0179567
0.0179458
0.0179348
0.0179239
0.017913
0.017902
0.0178911
0.0178802
0.0178692
0.0178582
0.0178472
0.0178362
0.0178252
0.0178141
0.017803
0.0177919
0.0177808
0.0177697
0.0177585
0.0177474
0.0177363
0.0177252
0.0177142
0.0177032
0.0176922
0.0176812
0.0176703
0.0176594
0.0176486
0.0176379
0.0176273
0.0176167
0.0176062
0.0175957
0.0175854
0.0175751
0.0175655
0.0184889
0.0184775
0.018466
0.0184544
0.0184427
0.0184309
0.0184191
0.0184072
0.0183952
0.0183832
0.0183712
0.0183591
0.018347
0.0183349
0.0183228
0.0183106
0.0182985
0.0182863
0.0182742
0.018262
0.0182499
0.0182378
0.0182258
0.0182138
0.0182018
0.0181899
0.018178
0.0181662
0.0181545
0.0181428
0.0181313
0.0181197
0.0181083
0.0180969
0.0180856
0.0180744
0.0180632
0.0180521
0.0180411
0.0180301
0.0180191
0.0180082
0.0179972
0.0179864
0.0179755
0.0179646
0.0179537
0.0179429
0.017932
0.0179211
0.0179102
0.0178993
0.0178883
0.0178774
0.0178664
0.0178555
0.0178445
0.0178335
0.0178226
0.0178116
0.0178007
0.0177898
0.0177789
0.0177681
0.0177572
0.0177465
0.0177357
0.017725
0.0177144
0.0177039
0.0176934
0.0176829
0.0176726
0.0176623
0.0176521
0.017642
0.0176324
0.0185897
0.018579
0.0185681
0.0185571
0.018546
0.0185347
0.0185234
0.0185119
0.0185003
0.0184887
0.018477
0.0184652
0.0184534
0.0184415
0.0184296
0.0184176
0.0184056
0.0183936
0.0183816
0.0183695
0.0183575
0.0183454
0.0183334
0.0183214
0.0183094
0.0182974
0.0182855
0.0182736
0.0182618
0.01825
0.0182383
0.0182266
0.018215
0.0182035
0.018192
0.0181806
0.0181693
0.018158
0.0181468
0.0181356
0.0181244
0.0181133
0.0181023
0.0180912
0.0180802
0.0180692
0.0180582
0.0180473
0.0180363
0.0180254
0.0180144
0.0180035
0.0179925
0.0179816
0.0179706
0.0179597
0.0179488
0.0179379
0.017927
0.0179161
0.0179053
0.0178945
0.0178838
0.0178731
0.0178624
0.0178517
0.0178412
0.0178306
0.0178201
0.0178097
0.0177994
0.0177891
0.0177789
0.0177687
0.0177586
0.0177486
0.0177392
0.0187502
0.0187401
0.0187298
0.0187193
0.0187086
0.0186978
0.0186867
0.0186756
0.0186642
0.0186528
0.0186413
0.0186296
0.0186179
0.0186061
0.0185942
0.0185822
0.0185702
0.0185581
0.018546
0.0185338
0.0185217
0.0185094
0.0184972
0.018485
0.0184727
0.0184605
0.0184482
0.018436
0.0184238
0.0184117
0.0183996
0.0183875
0.0183754
0.0183635
0.0183515
0.0183397
0.0183279
0.0183161
0.0183044
0.0182928
0.0182812
0.0182696
0.0182581
0.0182467
0.0182353
0.0182239
0.0182126
0.0182013
0.01819
0.0181788
0.0181676
0.0181564
0.0181453
0.0181341
0.0181231
0.018112
0.018101
0.01809
0.0180791
0.0180682
0.0180574
0.0180466
0.0180359
0.0180253
0.0180147
0.0180041
0.0179936
0.0179832
0.0179728
0.0179625
0.0179522
0.017942
0.0179319
0.0179218
0.0179118
0.0179019
0.0178926
0.0189673
0.0189578
0.0189479
0.0189377
0.0189273
0.0189167
0.0189059
0.0188949
0.0188837
0.0188724
0.0188609
0.0188493
0.0188376
0.0188257
0.0188138
0.0188018
0.0187896
0.0187774
0.0187651
0.0187528
0.0187403
0.0187279
0.0187153
0.0187028
0.0186901
0.0186775
0.0186648
0.0186522
0.0186395
0.0186268
0.0186142
0.0186015
0.0185889
0.0185763
0.0185638
0.0185513
0.0185388
0.0185264
0.0185141
0.0185018
0.0184895
0.0184774
0.0184652
0.0184532
0.0184412
0.0184293
0.0184174
0.0184056
0.0183939
0.0183822
0.0183706
0.0183591
0.0183476
0.0183362
0.0183249
0.0183136
0.0183024
0.0182913
0.0182802
0.0182693
0.0182584
0.0182476
0.0182369
0.0182262
0.0182156
0.0182051
0.0181947
0.0181843
0.018174
0.0181637
0.0181536
0.0181435
0.0181334
0.0181234
0.0181135
0.0181036
0.0180943
0.0192148
0.0192059
0.0191967
0.0191871
0.0191773
0.0191672
0.0191569
0.0191464
0.0191357
0.0191247
0.0191137
0.0191024
0.0190911
0.0190796
0.0190679
0.0190562
0.0190443
0.0190323
0.0190202
0.0190079
0.0189956
0.0189832
0.0189707
0.0189582
0.0189455
0.0189328
0.01892
0.0189072
0.0188943
0.0188814
0.0188685
0.0188555
0.0188425
0.0188296
0.0188166
0.0188037
0.0187908
0.0187779
0.0187651
0.0187523
0.0187396
0.0187269
0.0187143
0.0187018
0.0186893
0.0186769
0.0186647
0.0186525
0.0186404
0.0186283
0.0186164
0.0186046
0.0185929
0.0185812
0.0185697
0.0185583
0.018547
0.0185357
0.0185246
0.0185137
0.0185028
0.018492
0.0184814
0.0184708
0.0184603
0.0184499
0.0184396
0.0184294
0.0184193
0.0184092
0.0183992
0.0183892
0.0183793
0.0183695
0.0183597
0.0183499
0.0183407
0.0194497
0.019442
0.0194339
0.0194255
0.0194168
0.0194079
0.0193986
0.0193891
0.0193794
0.0193695
0.0193595
0.0193492
0.0193388
0.0193283
0.0193176
0.0193068
0.0192958
0.0192847
0.0192734
0.019262
0.0192505
0.0192388
0.0192271
0.0192152
0.0192032
0.0191911
0.0191789
0.0191666
0.0191542
0.0191418
0.0191292
0.0191166
0.019104
0.0190913
0.0190786
0.0190659
0.0190532
0.0190406
0.0190279
0.0190152
0.0190026
0.0189901
0.0189776
0.0189651
0.0189528
0.0189405
0.0189283
0.0189162
0.0189042
0.0188923
0.0188806
0.0188689
0.0188573
0.0188459
0.0188346
0.0188234
0.0188123
0.0188014
0.0187906
0.0187799
0.0187694
0.018759
0.0187487
0.0187386
0.0187285
0.0187185
0.0187086
0.0186988
0.0186891
0.0186794
0.0186699
0.0186603
0.0186508
0.0186414
0.018632
0.0186226
0.0186137
0.0196468
0.0196406
0.019634
0.0196271
0.0196198
0.0196122
0.0196044
0.0195963
0.0195879
0.0195794
0.0195707
0.0195618
0.0195528
0.0195436
0.0195342
0.0195247
0.019515
0.0195052
0.0194953
0.0194851
0.0194749
0.0194645
0.0194539
0.0194433
0.0194324
0.0194215
0.0194104
0.0193991
0.0193878
0.0193763
0.0193648
0.0193531
0.0193414
0.0193296
0.0193177
0.0193058
0.0192939
0.019282
0.01927
0.0192581
0.0192462
0.0192343
0.0192224
0.0192106
0.0191989
0.0191873
0.0191757
0.0191643
0.0191529
0.0191417
0.0191305
0.0191195
0.0191086
0.0190978
0.0190871
0.0190766
0.0190662
0.019056
0.0190459
0.0190359
0.0190261
0.0190164
0.0190068
0.0189973
0.018988
0.0189788
0.0189697
0.0189607
0.0189517
0.0189428
0.0189339
0.0189251
0.0189163
0.0189075
0.0188988
0.0188901
0.0188817
0.0198063
0.0198017
0.0197966
0.0197911
0.0197853
0.0197791
0.0197727
0.019766
0.0197591
0.0197519
0.0197446
0.0197372
0.0197295
0.0197217
0.0197138
0.0197057
0.0196974
0.019689
0.0196804
0.0196716
0.0196628
0.0196537
0.0196445
0.0196351
0.0196256
0.0196159
0.019606
0.019596
0.0195859
0.0195756
0.0195651
0.0195546
0.0195439
0.0195332
0.0195224
0.0195115
0.0195006
0.0194896
0.0194786
0.0194676
0.0194566
0.0194456
0.0194347
0.0194238
0.0194129
0.0194022
0.0193915
0.0193809
0.0193704
0.01936
0.0193498
0.0193396
0.0193296
0.0193197
0.0193099
0.0193002
0.0192907
0.0192813
0.0192721
0.019263
0.0192541
0.0192453
0.0192366
0.0192281
0.0192196
0.0192113
0.019203
0.0191948
0.0191868
0.0191787
0.0191707
0.0191628
0.0191548
0.0191469
0.019139
0.0191311
0.0191235
0.019939
0.0199358
0.0199322
0.0199282
0.0199237
0.019919
0.0199139
0.0199085
0.0199029
0.0198971
0.0198911
0.019885
0.0198786
0.0198722
0.0198656
0.0198588
0.0198518
0.0198447
0.0198375
0.01983
0.0198225
0.0198147
0.0198068
0.0197986
0.0197903
0.0197818
0.0197731
0.0197642
0.0197551
0.0197459
0.0197365
0.019727
0.0197173
0.0197075
0.0196976
0.0196876
0.0196775
0.0196674
0.0196573
0.0196471
0.0196369
0.0196267
0.0196166
0.0196065
0.0195965
0.0195865
0.0195767
0.0195669
0.0195572
0.0195477
0.0195382
0.0195289
0.0195197
0.0195107
0.0195018
0.019493
0.0194844
0.0194759
0.0194676
0.0194595
0.0194515
0.0194436
0.0194359
0.0194282
0.0194207
0.0194133
0.019406
0.0193988
0.0193916
0.0193845
0.0193774
0.0193703
0.0193632
0.0193562
0.0193491
0.0193421
0.0193353
0.0200574
0.0200557
0.0200536
0.0200509
0.0200478
0.0200444
0.0200405
0.0200364
0.020032
0.0200274
0.0200226
0.0200177
0.0200126
0.0200073
0.0200019
0.0199963
0.0199906
0.0199847
0.0199786
0.0199724
0.019966
0.0199594
0.0199526
0.0199455
0.0199383
0.0199308
0.0199231
0.0199151
0.0199069
0.0198986
0.01989
0.0198812
0.0198723
0.0198632
0.0198539
0.0198446
0.0198352
0.0198257
0.0198161
0.0198065
0.0197969
0.0197873
0.0197777
0.0197682
0.0197588
0.0197494
0.0197402
0.0197311
0.0197221
0.0197132
0.0197044
0.0196958
0.0196874
0.0196791
0.019671
0.019663
0.0196552
0.0196476
0.0196401
0.0196328
0.0196257
0.0196187
0.0196119
0.0196052
0.0195986
0.0195921
0.0195856
0.0195793
0.0195731
0.0195669
0.0195607
0.0195545
0.0195483
0.0195421
0.0195359
0.0195297
0.0195237
0.0201724
0.0201723
0.0201716
0.0201704
0.0201686
0.0201664
0.0201637
0.0201608
0.0201575
0.0201541
0.0201504
0.0201466
0.0201426
0.0201385
0.0201343
0.0201299
0.0201253
0.0201206
0.0201157
0.0201106
0.0201053
0.0200998
0.020094
0.020088
0.0200816
0.020075
0.0200681
0.0200609
0.0200534
0.0200456
0.0200376
0.0200293
0.0200208
0.0200121
0.0200032
0.0199942
0.019985
0.0199757
0.0199664
0.019957
0.0199476
0.0199383
0.0199289
0.0199196
0.0199105
0.0199014
0.0198925
0.0198837
0.0198751
0.0198667
0.0198584
0.0198503
0.0198424
0.0198347
0.0198272
0.01982
0.0198129
0.019806
0.0197993
0.0197928
0.0197865
0.0197804
0.0197745
0.0197686
0.019763
0.0197574
0.019752
0.0197466
0.0197412
0.0197359
0.0197306
0.0197253
0.01972
0.0197146
0.0197092
0.0197039
0.0196986
0.0202932
0.0202949
0.0202957
0.0202958
0.0202954
0.0202944
0.0202929
0.0202911
0.0202889
0.0202865
0.020284
0.0202812
0.0202784
0.0202754
0.0202723
0.020269
0.0202656
0.020262
0.0202582
0.0202543
0.02025
0.0202455
0.0202407
0.0202356
0.0202301
0.0202242
0.0202179
0.0202113
0.0202043
0.0201969
0.0201892
0.0201812
0.0201728
0.0201642
0.0201553
0.0201462
0.020137
0.0201276
0.0201182
0.0201086
0.0200991
0.0200896
0.0200801
0.0200708
0.0200615
0.0200525
0.0200436
0.0200349
0.0200264
0.0200182
0.0200102
0.0200024
0.0199949
0.0199876
0.0199807
0.0199739
0.0199675
0.0199613
0.0199553
0.0199496
0.0199441
0.0199388
0.0199337
0.0199289
0.0199241
0.0199195
0.0199149
0.0199105
0.019906
0.0199016
0.0198972
0.0198928
0.0198884
0.0198839
0.0198794
0.0198747
0.0198702
0.020427
0.0204303
0.0204328
0.0204344
0.0204352
0.0204354
0.0204351
0.0204343
0.0204332
0.0204319
0.0204303
0.0204287
0.0204269
0.0204251
0.0204231
0.020421
0.0204188
0.0204165
0.0204139
0.0204111
0.020408
0.0204046
0.0204008
0.0203965
0.0203918
0.0203866
0.0203809
0.0203747
0.020368
0.0203608
0.0203532
0.020345
0.0203365
0.0203276
0.0203184
0.0203089
0.0202991
0.0202892
0.0202792
0.0202691
0.020259
0.0202489
0.0202389
0.0202291
0.0202194
0.0202099
0.0202007
0.0201918
0.0201832
0.0201749
0.0201669
0.0201592
0.0201519
0.0201449
0.0201383
0.020132
0.0201261
0.0201205
0.0201152
0.0201102
0.0201055
0.0201011
0.020097
0.020093
0.0200893
0.0200856
0.0200822
0.0200787
0.0200752
0.0200717
0.0200683
0.0200648
0.0200612
0.0200576
0.0200538
0.02005
0.0200461
0.0205791
0.0205843
0.0205883
0.0205913
0.0205934
0.0205947
0.0205953
0.0205955
0.0205952
0.0205948
0.0205942
0.0205935
0.0205927
0.0205919
0.020591
0.0205901
0.0205891
0.0205879
0.0205866
0.020585
0.020583
0.0205807
0.0205779
0.0205745
0.0205706
0.020566
0.0205608
0.0205549
0.0205483
0.0205411
0.0205333
0.0205248
0.0205159
0.0205064
0.0204964
0.0204862
0.0204756
0.0204648
0.0204538
0.0204427
0.0204317
0.0204206
0.0204097
0.020399
0.0203886
0.0203784
0.0203686
0.0203591
0.02035
0.0203414
0.0203332
0.0203254
0.0203181
0.0203112
0.0203048
0.0202989
0.0202934
0.0202883
0.0202836
0.0202793
0.0202754
0.0202718
0.0202684
0.0202655
0.0202626
0.02026
0.0202573
0.0202549
0.0202524
0.0202499
0.0202474
0.0202447
0.020242
0.0202392
0.0202362
0.020233
0.0202296
0.020752
0.0207586
0.0207639
0.0207679
0.0207708
0.0207728
0.020774
0.0207746
0.0207749
0.0207749
0.0207749
0.0207748
0.0207747
0.0207747
0.0207747
0.0207748
0.0207748
0.0207747
0.0207745
0.020774
0.0207733
0.020772
0.0207702
0.0207678
0.0207646
0.0207607
0.0207559
0.0207502
0.0207436
0.0207363
0.0207281
0.0207191
0.0207094
0.0206991
0.0206881
0.0206767
0.0206649
0.0206528
0.0206405
0.0206281
0.0206157
0.0206033
0.0205911
0.0205791
0.0205675
0.0205562
0.0205454
0.020535
0.0205252
0.0205159
0.0205072
0.020499
0.0204914
0.0204844
0.020478
0.0204721
0.0204668
0.020462
0.0204577
0.0204539
0.0204505
0.0204476
0.0204451
0.0204426
0.0204407
0.0204388
0.0204371
0.0204354
0.0204337
0.0204319
0.0204301
0.0204281
0.0204261
0.0204238
0.0204213
0.0204186
0.0204156
0.0209418
0.0209491
0.0209546
0.0209586
0.0209613
0.0209629
0.0209636
0.0209637
0.0209634
0.0209628
0.0209623
0.0209618
0.0209615
0.0209614
0.0209614
0.0209615
0.0209618
0.0209622
0.0209625
0.0209627
0.0209626
0.0209621
0.0209611
0.0209594
0.0209569
0.0209535
0.0209492
0.0209438
0.0209375
0.0209301
0.0209217
0.0209123
0.020902
0.0208908
0.020879
0.0208666
0.0208536
0.0208403
0.0208266
0.0208128
0.020799
0.0207852
0.0207715
0.0207582
0.0207452
0.0207326
0.0207206
0.0207091
0.0206982
0.020688
0.0206783
0.0206694
0.0206611
0.0206535
0.0206466
0.0206403
0.0206347
0.0206297
0.0206252
0.0206213
0.0206179
0.0206149
0.0206123
0.0206102
0.0206082
0.0206065
0.0206047
0.0206032
0.0206016
0.0206
0.0205982
0.0205964
0.0205943
0.0205921
0.0205896
0.0205868
0.0205837
0.0211279
0.0211334
0.0211368
0.0211385
0.0211389
0.021138
0.0211361
0.0211335
0.0211306
0.0211275
0.0211244
0.0211215
0.0211188
0.0211165
0.0211145
0.0211128
0.0211116
0.0211107
0.02111
0.0211094
0.0211088
0.0211081
0.0211071
0.0211056
0.0211036
0.0211009
0.0210973
0.0210929
0.0210874
0.0210809
0.0210734
0.0210647
0.021055
0.0210443
0.0210327
0.0210203
0.0210072
0.0209935
0.0209794
0.020965
0.0209505
0.0209358
0.0209213
0.0209069
0.0208929
0.0208792
0.0208659
0.0208532
0.0208411
0.0208295
0.0208186
0.0208083
0.0207986
0.0207897
0.0207813
0.0207736
0.0207666
0.0207601
0.0207541
0.0207487
0.0207437
0.0207392
0.0207353
0.0207313
0.0207279
0.0207246
0.0207216
0.0207184
0.0207153
0.0207121
0.0207089
0.0207057
0.0207023
0.0206989
0.0206952
0.0206915
0.0206874
0.021258
0.0212578
0.0212552
0.0212509
0.0212452
0.0212382
0.0212301
0.0212212
0.0212117
0.021202
0.0211921
0.0211823
0.0211728
0.0211637
0.0211551
0.0211473
0.0211402
0.0211338
0.0211282
0.0211233
0.0211192
0.0211157
0.0211129
0.0211106
0.0211086
0.0211068
0.0211051
0.0211032
0.021101
0.0210983
0.0210948
0.0210905
0.0210852
0.021079
0.0210716
0.0210632
0.0210538
0.0210434
0.0210323
0.0210204
0.021008
0.0209951
0.0209819
0.0209685
0.020955
0.0209415
0.0209281
0.0209148
0.0209017
0.0208887
0.0208761
0.0208637
0.0208517
0.0208399
0.0208285
0.0208175
0.0208067
0.0207962
0.0207861
0.0207762
0.0207666
0.0207573
0.0207482
0.0207395
0.0207308
0.0207223
0.0207138
0.0207057
0.0206976
0.0206896
0.0206818
0.0206741
0.0206666
0.0206594
0.0206525
0.0206458
0.0206393
0.0212205
0.0212052
0.0211881
0.0211696
0.0211499
0.0211288
0.0211066
0.0210833
0.021059
0.0210341
0.021009
0.0209839
0.0209592
0.0209351
0.0209122
0.0208905
0.0208702
0.0208517
0.0208355
0.0208218
0.0208108
0.0208028
0.0207977
0.0207956
0.0207961
0.0207991
0.0208042
0.020811
0.0208188
0.0208274
0.020836
0.0208444
0.020852
0.0208584
0.0208637
0.0208673
0.0208692
0.0208693
0.0208677
0.0208645
0.0208598
0.0208537
0.0208463
0.0208376
0.0208279
0.0208171
0.0208053
0.0207925
0.0207789
0.0207644
0.0207491
0.0207331
0.0207164
0.0206991
0.0206811
0.0206626
0.0206435
0.020624
0.0206041
0.0205838
0.0205633
0.0205427
0.0205217
0.0205008
0.0204799
0.0204594
0.0204387
0.0204185
0.0203987
0.0203795
0.0203612
0.0203439
0.0203278
0.0203129
0.0202998
0.0202878
0.0208443
0.0208039
0.0207622
0.0207199
0.0206767
0.020632
0.0205847
0.0205347
0.0204829
0.0204295
0.020375
0.0203199
0.0202646
0.02021
0.0201569
0.0201055
0.0200568
0.0200122
0.0199727
0.0199394
0.0199133
0.0198949
0.0198848
0.019883
0.0198894
0.0199035
0.0199248
0.0199522
0.0199846
0.0200209
0.0200598
0.0201001
0.0201408
0.0201806
0.0202187
0.0202544
0.0202871
0.0203159
0.0203408
0.0203618
0.0203789
0.0203921
0.0204015
0.0204071
0.020409
0.0204072
0.0204019
0.0203929
0.0203805
0.0203647
0.0203456
0.0203234
0.0202981
0.0202698
0.0202387
0.020205
0.0201689
0.0201304
0.0200898
0.0200474
0.0200035
0.0199581
0.0199122
0.0198654
0.0198185
0.0197715
0.0197254
0.0196804
0.0196369
0.0195954
0.0195567
0.0195213
0.0194898
0.0194629
0.0194408
0.019423
0.019747
0.0196693
0.0195919
0.0195143
0.0194326
0.019347
0.0192579
0.0191655
0.0190697
0.018971
0.0188701
0.018768
0.0186662
0.0185663
0.0184681
0.0183748
0.018289
0.0182133
0.01815
0.018101
0.0180679
0.0180517
0.0180529
0.0180715
0.0181068
0.0181578
0.0182229
0.0183
0.0183871
0.0184817
0.0185815
0.0186839
0.0187869
0.0188883
0.0189861
0.0190791
0.0191656
0.019244
0.0193143
0.0193762
0.0194296
0.0194742
0.01951
0.0195369
0.019555
0.0195643
0.0195648
0.0195567
0.0195401
0.0195151
0.0194821
0.0194414
0.0193933
0.0193381
0.0192764
0.0192087
0.0191356
0.0190579
0.0189764
0.018892
0.0188061
0.0187191
0.0186331
0.018549
0.0184688
0.0183933
0.0183247
0.0182646
0.0182147
0.0181766
0.0181518
0.0181415
0.0181465
0.0181676
0.0182003
0.0175666
0.0174607
0.0173473
0.0172307
0.0171095
0.0169828
0.0168502
0.0167123
0.016569
0.0164213
0.0162711
0.0161206
0.0159713
0.0158257
0.0156884
0.0155642
0.0154569
0.0153702
0.0153068
0.0152686
0.0152567
0.0152716
0.0153128
0.0153796
0.0154703
0.0155833
0.0157161
0.0158662
0.0160307
0.0162063
0.0163898
0.0165775
0.0167666
0.0169532
0.0171341
0.0173075
0.0174694
0.0176179
0.017752
0.0178707
0.0179734
0.0180593
0.0181283
0.0181799
0.0182142
0.0182312
0.0182314
0.0182153
0.0181837
0.0181376
0.0180782
0.0180071
0.0179262
0.0178376
0.0177439
0.0176477
0.017552
0.0174602
0.0173756
0.0173016
0.0172423
0.0172006
0.0171803
0.0171841
0.0172154
0.0172763
0.0173686
0.0174937
0.0176523
0.0178443
0.018069
0.0183251
0.0186092
0.0189024
0.0143093
0.0141923
0.0140727
0.0139486
0.0138186
0.0136824
0.0135403
0.0133938
0.0132445
0.0130957
0.0129519
0.0128164
0.0126955
0.012596
0.0125224
0.0124776
0.0124623
0.0124751
0.0125138
0.0125754
0.0126567
0.0127551
0.0128688
0.0129964
0.0131374
0.0132916
0.0134591
0.0136398
0.0138333
0.014039
0.0142552
0.0144797
0.0147102
0.0149431
0.0151746
0.0154022
0.0156212
0.0158278
0.0160192
0.016193
0.0163474
0.0164817
0.0165956
0.0166899
0.016766
0.0168262
0.0168735
0.0169114
0.0169441
0.0169764
0.0170131
0.0170595
0.0171208
0.0172019
0.0173078
0.0174428
0.0176108
0.0178154
0.0180593
0.0183442
0.0186721
0.0190435
0.0194589
0.0199171
0.0204175
0.0209581
0.0215366
0.0221502
0.0227954
0.0234678
0.0241625
0.0248724
0.0255507
0.0108018
0.010742
0.0106846
0.0106289
0.0105752
0.0105259
0.0104852
0.0104595
0.0104567
0.0104861
0.0105559
0.0106773
0.0108568
0.0110914
0.0113714
0.0116823
0.0120074
0.0123301
0.0126362
0.0129148
0.0131591
0.0133666
0.0135379
0.0136766
0.0137882
0.0138797
0.0139584
0.0140316
0.0141064
0.0141889
0.0142841
0.0143968
0.01453
0.0146863
0.0148689
0.0150773
0.0153138
0.0155847
0.0158824
0.0162015
0.016538
0.0168889
0.0172525
0.0176281
0.0180159
0.0184168
0.0188323
0.0192638
0.0197135
0.0201835
0.0206762
0.021194
0.0217391
0.0223136
0.0229194
0.0235579
0.0242306
0.0249381
0.0256807
0.0264586
0.0272705
0.0281158
0.0289921
0.0298982
0.0308304
0.0317857
0.0327603
0.0337502
0.0347505
0.0357564
0.0367623
0.0377562
0.0386605
0.00805132
0.00811707
0.00821166
0.00834022
0.00851484
0.00875228
0.00907179
0.00949211
0.0100304
0.0106987
0.0114929
0.0124105
0.0134294
0.0144963
0.0155559
0.0165584
0.0174643
0.0182464
0.0188899
0.0193913
0.0197565
0.0199981
0.0201333
0.0201819
0.0201641
0.0201009
0.0200123
0.0199169
0.0198319
0.019773
0.0197542
0.0197905
0.0198919
0.0200726
0.0203413
0.0207015
0.0211648
0.0217326
0.022386
0.0231088
0.0238857
0.0247021
0.0255449
0.0264049
0.0272757
0.0281525
0.0290299
0.0299024
0.0307685
0.03163
0.0324893
0.0333497
0.0342149
0.0350889
0.0359755
0.0368786
0.0378014
0.0387464
0.0397151
0.0407074
0.0417241
0.0427635
0.0438243
0.0449025
0.0459954
0.0470987
0.0482081
0.0493185
0.0504252
0.0515233
0.0526058
0.0536583
0.0545769
0.0073279
0.00779077
0.00842453
0.00925859
0.0103344
0.0116822
0.0133096
0.0151908
0.017282
0.0195073
0.0217811
0.0240321
0.026138
0.02801
0.0295948
0.030871
0.0318427
0.0325324
0.032974
0.0332079
0.0332772
0.0332245
0.0330895
0.032909
0.0327164
0.0325429
0.032414
0.0323523
0.0323759
0.0325033
0.0327443
0.0331084
0.0336006
0.0342077
0.0349586
0.0358111
0.0367322
0.0376992
0.0386953
0.0397032
0.0407078
0.0416961
0.0426593
0.0435926
0.0444951
0.0453689
0.0462196
0.0470533
0.0478806
0.0487016
0.0495204
0.050343
0.0511756
0.052024
0.0528934
0.053788
0.0547101
0.0556606
0.0566396
0.0576447
0.058677
0.0597297
0.0607986
0.0618772
0.0629597
0.0640403
0.0651135
0.0661744
0.0672175
0.068237
0.0692161
0.0700405
0.0114542
0.013397
0.0158595
0.0187726
0.0220759
0.0256593
0.0293729
0.0330595
0.0365624
0.0397811
0.0425944
0.0449347
0.0467901
0.0481875
0.0491778
0.0498233
0.0501897
0.0503414
0.0503385
0.0502359
0.050081
0.0499146
0.0497711
0.049679
0.049661
0.0497342
0.0499099
0.0501938
0.0505881
0.0510887
0.0516789
0.0523755
0.0531429
0.0539203
0.0547192
0.0555325
0.0563515
0.0571663
0.0579647
0.0587559
0.059517
0.0602294
0.0608999
0.0615424
0.062167
0.0627824
0.0633965
0.0640171
0.0646508
0.0653036
0.0659806
0.0666856
0.067422
0.0681913
0.068993
0.0698277
0.0707013
0.0716018
0.072522
0.07346
0.0744197
0.0753908
0.0763661
0.0773383
0.0783013
0.0792501
0.0801797
0.0810862
0.0819651
0.0828
0.0834792
0.0257208
0.0301065
0.0348888
0.0397435
0.0444843
0.0489412
0.052961
0.0564748
0.0594088
0.0617318
0.0634993
0.0647834
0.0656642
0.0662215
0.0665319
0.0666649
0.0666816
0.0666347
0.0665683
0.0665178
0.0665102
0.066565
0.0666948
0.0669061
0.067199
0.0675684
0.068007
0.0685004
0.0690549
0.0696414
0.0702138
0.0707773
0.0713476
0.0719136
0.0724421
0.072948
0.0734377
0.073914
0.0743788
0.0748324
0.0752758
0.0757121
0.0761462
0.0765842
0.0770318
0.0774947
0.0779784
0.0784868
0.0790248
0.0795941
0.0801959
0.0808317
0.0815021
0.0822041
0.0829324
0.0836875
0.0844665
0.0852617
0.0860631
0.0868766
0.0876953
0.0885102
0.0893154
0.0901056
0.0908764
0.091625
0.0923493
0.0930457
0.0936991
0.0942183
0.0467347
0.0523764
0.0576492
0.0624387
0.0666258
0.0701837
0.0730624
0.075275
0.0769195
0.0780944
0.0788934
0.0794046
0.0797073
0.079871
0.0799545
0.0800044
0.0800584
0.0801429
0.0802757
0.0804676
0.0807194
0.0810302
0.0813929
0.0817934
0.0822192
0.0826738
0.0831303
0.0835673
0.0839652
0.084338
0.0846975
0.0850485
0.0853915
0.0857233
0.0860436
0.0863537
0.086656
0.0869517
0.0872441
0.0875362
0.0878338
0.0881381
0.0884531
0.0887863
0.0891406
0.0895187
0.0899234
0.0903566
0.0908191
0.0913098
0.0918288
0.0923749
0.0929453
0.0935338
0.0941404
0.0947606
0.0953899
0.0960181
0.0966509
0.0972796
0.0978994
0.098505
0.099093
0.0996604
0.100207
0.10073
0.101228
0.101693
0.102057
0.0616191
0.0675524
0.0726787
0.0769173
0.0803849
0.0830814
0.0851059
0.0865828
0.0876262
0.0883397
0.0888123
0.0891239
0.089338
0.0895083
0.0896726
0.0898589
0.090084
0.090355
0.0906723
0.0910342
0.091427
0.0918484
0.0922699
0.0926874
0.0931091
0.0934684
0.0938018
0.0941204
0.0944263
0.0947176
0.0949962
0.0952619
0.0955154
0.0957561
0.0959855
0.0962047
0.0964167
0.0966236
0.0968288
0.0970352
0.0972468
0.0974662
0.097697
0.0979421
0.0982043
0.0984849
0.0987858
0.0991077
0.0994506
0.0998128
0.100194
0.100592
0.101006
0.101429
0.101861
0.1023
0.10274
0.103176
0.103608
0.104033
0.104446
0.104844
0.105225
0.105587
0.105931
0.106256
0.106563
0.106846
0.107067
0.0800617
0.0841535
0.087302
0.0896492
0.0913826
0.0926359
0.0935299
0.0941672
0.094622
0.0949689
0.0952569
0.0955314
0.0958162
0.0961303
0.0964772
0.0968613
0.0972708
0.0977035
0.0981433
0.0985795
0.0990111
0.0994073
0.0997797
0.10013
0.100466
0.100787
0.101098
0.101394
0.101677
0.101942
0.102194
0.102428
0.102648
0.102853
0.103047
0.103229
0.103405
0.103573
0.10374
0.103904
0.10407
0.104239
0.104415
0.104596
0.104787
0.104986
0.105195
0.105414
0.105642
0.105878
0.106121
0.10637
0.106621
0.106875
0.107128
0.107378
0.107621
0.107857
0.108083
0.108298
0.1085
0.108686
0.108859
0.109017
0.109163
0.109296
0.109416
0.109516
0.0909751
0.0930236
0.0944721
0.0955148
0.096254
0.0968653
0.0973341
0.0977447
0.098109
0.0984765
0.0988439
0.0992357
0.0996412
0.100063
0.100497
0.100928
0.101361
0.101774
0.102174
0.102564
0.10295
0.103322
0.103696
0.104056
0.104416
0.104757
0.105093
0.105408
0.105713
0.105995
0.106266
0.106513
0.10675
0.106965
0.10717
0.107357
0.107535
0.107698
0.107854
0.107997
0.108136
0.108265
0.108391
0.10851
0.108627
0.10874
0.108851
0.108958
0.109062
0.109164
0.109261
0.109354
0.109441
0.109524
0.109599
0.109665
0.109722
0.109768
0.109807
0.109833
0.10985
0.109854
0.109852
0.109839
0.109822
0.109801
0.1098
0.0933653
0.0947844
0.0957712
0.0964743
0.0183959
0.0183833
0.0183707
0.018358
0.0183452
0.0183325
0.0183197
0.0183069
0.0182941
0.0182813
0.0182685
0.0182556
0.0182428
0.01823
0.0182173
0.0182045
0.0181918
0.018179
0.0181664
0.0181537
0.0181411
0.0181286
0.0181161
0.0181037
0.0180914
0.0180791
0.0180669
0.0180548
0.0180428
0.0180308
0.018019
0.0180072
0.0179955
0.0179839
0.0179724
0.017961
0.0179496
0.0179383
0.017927
0.0179158
0.0179046
0.0178934
0.0178823
0.0178712
0.0178601
0.017849
0.0178379
0.0178267
0.0178156
0.0178044
0.0177932
0.017782
0.0177707
0.0177594
0.0177481
0.0177368
0.0177255
0.0177141
0.0177028
0.0176914
0.0176801
0.0176687
0.0176575
0.0176462
0.017635
0.0176238
0.0176126
0.0176016
0.0175905
0.0175796
0.0175687
0.0175579
0.0175472
0.0175366
0.0175261
0.0175157
0.0175059
0.0184041
0.0183917
0.0183793
0.0183667
0.0183542
0.0183416
0.018329
0.0183164
0.0183037
0.018291
0.0182784
0.0182657
0.018253
0.0182404
0.0182277
0.0182151
0.0182025
0.0181899
0.0181773
0.0181648
0.0181523
0.0181399
0.0181275
0.0181152
0.0181029
0.0180907
0.0180786
0.0180666
0.0180546
0.0180428
0.018031
0.0180193
0.0180076
0.0179961
0.0179847
0.0179733
0.017962
0.0179507
0.0179395
0.0179283
0.0179172
0.0179061
0.0178951
0.017884
0.017873
0.017862
0.0178509
0.0178399
0.0178288
0.0178177
0.0178066
0.0177955
0.0177843
0.0177731
0.0177619
0.0177507
0.0177395
0.0177282
0.017717
0.0177057
0.0176945
0.0176833
0.0176721
0.0176609
0.0176498
0.0176387
0.0176277
0.0176167
0.0176058
0.0175949
0.0175841
0.0175734
0.0175628
0.0175522
0.0175418