/*--------------------------------*- C++ -*----------------------------------*\
  =========                 |
  \\      /  F ield         | OpenFOAM: The Open Source CFD Toolbox
   \\    /   O peration     | Website:  https://openfoam.org
    \\  /    A nd           | Version:  13
     \\/     M anipulation  |
\*---------------------------------------------------------------------------*/
FoamFile
{
    format      ascii;
    class       volScalarField;
    location    "200";
    object      omega;
}
// * * * * * * * * * * * * * * * * * * * * * * * * * * * * * * * * * * * * * //

dimensions      [0 0 -1 0 0 0 0];

internalField   nonuniform List<scalar> 
172836
(
11.8757
11.8382
11.8009
11.764
11.7273
11.6908
11.6546
11.6187
11.8745
11.8369
11.7997
11.7627
11.7259
11.6894
11.6532
11.6172
11.9071
11.8693
11.8318
11.7945
11.7575
11.7207
11.6842
11.6479
11.6119
11.8948
11.857
11.8195
11.7823
11.7453
11.7086
11.6721
11.6358
11.5999
11.8712
11.8336
11.7962
11.759
11.7222
11.6855
11.6492
11.613
11.5772
11.833
11.7956
11.7584
11.7215
11.6848
11.6484
11.6122
11.5763
11.5406
11.7784
11.7413
11.7044
11.6678
11.6314
11.5953
11.5594
11.5238
11.4884
11.7074
11.6706
11.634
11.5978
11.5617
11.5259
11.4904
11.4552
11.4202
11.5914
11.5551
11.5191
11.4833
11.4478
11.4126
11.3776
11.3429
11.9849
11.9467
11.9087
11.871
11.8336
11.7964
11.7594
11.7227
11.6863
11.6501
11.6141
11.5785
11.5434
11.9838
11.9455
11.9076
11.8698
11.8324
11.7951
11.7581
11.7214
11.6849
11.6487
11.6127
11.577
11.5418
11.9785
11.9403
11.9023
11.8646
11.8271
11.7898
11.7528
11.7161
11.6795
11.6433
11.6073
11.5715
11.5363
11.966
11.9278
11.8899
11.8522
11.8147
11.7775
11.7405
11.7038
11.6673
11.6311
11.5951
11.5594
11.5242
11.942
11.9039
11.8661
11.8285
11.7911
11.754
11.7171
11.6805
11.6441
11.608
11.5721
11.5365
11.5014
11.9029
11.865
11.8274
11.79
11.7528
11.7159
11.6792
11.6428
11.6066
11.5707
11.535
11.4996
11.4648
11.847
11.8094
11.7721
11.735
11.6981
11.6615
11.6251
11.5889
11.553
11.5174
11.482
11.4469
11.4124
11.7743
11.7371
11.7001
11.6633
11.6268
11.5905
11.5544
11.5186
11.4831
11.4478
11.4128
11.378
11.3438
11.6933
11.6564
11.6197
11.5831
11.5468
11.5108
11.475
11.4394
11.4042
11.3691
11.3344
11.2999
11.266
11.1939
14.9193
14.8641
14.8092
14.7546
14.7003
14.6463
14.5927
14.5394
14.4864
14.4338
14.3814
14.3294
14.2777
14.2263
14.1752
14.1245
14.074
14.0239
13.974
13.9245
13.8753
13.8264
13.7778
13.7296
13.6816
13.634
13.5867
13.5397
13.493
13.4467
13.4006
13.3548
13.3094
13.2642
13.2194
13.1748
13.1305
13.0865
13.0427
12.9992
12.956
12.913
12.8702
12.8277
12.7853
12.7432
12.7013
12.6596
12.6181
12.5768
12.5357
12.4947
12.454
12.4134
12.373
12.3328
12.2928
12.253
12.2134
12.1739
12.1347
12.0957
12.0569
12.0184
11.98
11.9419
11.904
11.8663
11.8289
11.7917
11.7548
11.7181
11.6817
11.6455
11.6096
11.5739
11.5389
14.9183
14.8631
14.8081
14.7535
14.6993
14.6453
14.5917
14.5384
14.4854
14.4327
14.3804
14.3284
14.2767
14.2253
14.1742
14.1235
14.073
14.0229
13.9731
13.9235
13.8743
13.8254
13.7769
13.7286
13.6806
13.633
13.5857
13.5387
13.492
13.4456
13.3995
13.3537
13.3082
13.263
13.2182
13.1736
13.1293
13.0852
13.0415
12.998
12.9547
12.9117
12.8689
12.8264
12.784
12.7419
12.7
12.6583
12.6168
12.5755
12.5344
12.4935
12.4527
12.4122
12.3718
12.3316
12.2916
12.2518
12.2122
12.1727
12.1335
12.0945
12.0558
12.0172
11.9788
11.9407
11.9028
11.8651
11.8276
11.7904
11.7535
11.7167
11.6803
11.6441
11.6081
11.5724
11.5373
14.9138
14.8586
14.8036
14.749
14.6947
14.6407
14.5871
14.5337
14.4807
14.4281
14.3757
14.3237
14.272
14.2206
14.1695
14.1187
14.0683
14.0181
13.9683
13.9187
13.8695
13.8206
13.772
13.7237
13.6757
13.6281
13.5807
13.5337
13.4869
13.4405
13.3944
13.3486
13.3031
13.2579
13.213
13.1684
13.124
13.08
13.0362
12.9927
12.9494
12.9064
12.8636
12.821
12.7787
12.7365
12.6946
12.6529
12.6114
12.5701
12.529
12.4881
12.4473
12.4068
12.3664
12.3262
12.2862
12.2464
12.2068
12.1674
12.1282
12.0892
12.0504
12.0119
11.9735
11.9354
11.8974
11.8597
11.8223
11.7851
11.7481
11.7113
11.6748
11.6386
11.6026
11.5669
11.5317
14.8985
14.8432
14.7883
14.7336
14.6793
14.6254
14.5717
14.5184
14.4655
14.4128
14.3605
14.3085
14.2568
14.2055
14.1545
14.1038
14.0533
14.0032
13.9535
13.904
13.8548
13.806
13.7574
13.7092
13.6613
13.6137
13.5664
13.5194
13.4728
13.4264
13.3804
13.3346
13.2892
13.2441
13.1992
13.1547
13.1104
13.0664
13.0226
12.9792
12.9359
12.8929
12.8502
12.8077
12.7654
12.7233
12.6814
12.6398
12.5983
12.557
12.516
12.4751
12.4344
12.3938
12.3535
12.3133
12.2734
12.2336
12.194
12.1547
12.1155
12.0765
12.0378
11.9992
11.9609
11.9228
11.8849
11.8472
11.8098
11.7726
11.7356
11.6989
11.6624
11.6262
11.5902
11.5546
11.5194
14.8626
14.8075
14.7526
14.6981
14.6439
14.5901
14.5366
14.4835
14.4307
14.3782
14.3261
14.2743
14.2228
14.1717
14.1209
14.0704
14.0202
13.9703
13.9208
13.8715
13.8226
13.774
13.7257
13.6777
13.6301
13.5827
13.5357
13.4889
13.4425
13.3964
13.3506
13.3051
13.2599
13.215
13.1704
13.1261
13.082
13.0382
12.9947
12.9515
12.9084
12.8656
12.8231
12.7808
12.7386
12.6967
12.655
12.6136
12.5722
12.5311
12.4902
12.4494
12.4089
12.3685
12.3282
12.2882
12.2484
12.2087
12.1692
12.13
12.0909
12.052
12.0134
11.9749
11.9367
11.8987
11.8609
11.8233
11.7859
11.7488
11.712
11.6754
11.639
11.6029
11.567
11.5314
11.4963
14.7981
14.7433
14.6888
14.6347
14.5809
14.5275
14.4744
14.4217
14.3694
14.3174
14.2657
14.2143
14.1633
14.1127
14.0624
14.0123
13.9626
13.9132
13.8642
13.8154
13.767
13.7189
13.6711
13.6236
13.5764
13.5296
13.483
13.4368
13.3909
13.3453
13.2999
13.2549
13.2102
13.1658
13.1216
13.0777
13.0341
12.9908
12.9477
12.9048
12.8622
12.8198
12.7777
12.7357
12.694
12.6524
12.6111
12.5699
12.5289
12.4881
12.4475
12.407
12.3667
12.3266
12.2866
12.2468
12.2072
12.1678
12.1285
12.0895
12.0506
12.0119
11.9735
11.9352
11.8972
11.8594
11.8218
11.7844
11.7472
11.7103
11.6737
11.6372
11.6011
11.5651
11.5295
11.4941
11.4592
14.705
14.6508
14.597
14.5435
14.4904
14.4377
14.3853
14.3332
14.2815
14.2302
14.1792
14.1286
14.0782
14.0283
13.9786
13.9293
13.8803
13.8316
13.7832
13.7351
13.6874
13.6399
13.5928
13.546
13.4996
13.4534
13.4075
13.362
13.3167
13.2718
13.2271
13.1828
13.1387
13.0949
13.0514
13.0082
12.9652
12.9225
12.88
12.8378
12.7957
12.7539
12.7123
12.6709
12.6297
12.5887
12.5478
12.5071
12.4666
12.4263
12.3861
12.346
12.3061
12.2664
12.2268
12.1874
12.1481
12.1091
12.0701
12.0314
11.9929
11.9545
11.9164
11.8784
11.8407
11.8031
11.7658
11.7287
11.6918
11.6552
11.6188
11.5826
11.5467
11.5111
11.4757
11.4406
11.406
14.5969
14.5434
14.4902
14.4374
14.3849
14.3328
14.281
14.2296
14.1785
14.1278
14.0774
14.0273
13.9776
13.9282
13.8791
13.8304
13.782
13.7339
13.6861
13.6386
13.5915
13.5446
13.4981
13.452
13.4061
13.3605
13.3153
13.2703
13.2257
13.1813
13.1373
13.0936
13.0501
13.0069
12.964
12.9213
12.879
12.8368
12.7949
12.7532
12.7117
12.6705
12.6294
12.5885
12.5478
12.5073
12.4669
12.4267
12.3867
12.3468
12.3071
12.2675
12.228
12.1887
12.1495
12.1105
12.0716
12.0329
11.9944
11.956
11.9178
11.8799
11.8421
11.8044
11.767
11.7298
11.6929
11.6561
11.6195
11.5832
11.5472
11.5114
11.4758
11.4405
11.4054
11.3707
11.3365
14.5001
14.4469
14.3941
14.3416
14.2894
14.2375
14.186
14.1348
14.084
14.0335
13.9833
13.9335
13.8839
13.8348
13.7859
13.7374
13.6892
13.6413
13.5937
13.5464
13.4995
13.4529
13.4066
13.3606
13.315
13.2696
13.2246
13.1799
13.1355
13.0914
13.0475
13.004
12.9608
12.9178
12.8751
12.8327
12.7905
12.7486
12.707
12.6655
12.6242
12.5832
12.5424
12.5017
12.4612
12.4209
12.3808
12.3408
12.301
12.2614
12.2218
12.1825
12.1432
12.1041
12.0652
12.0264
11.9878
11.9493
11.911
11.8728
11.8349
11.7971
11.7595
11.7222
11.685
11.6481
11.6113
11.5748
11.5385
11.5025
11.4667
11.4311
11.3958
11.3608
11.326
11.2915
11.2576
14.4304
14.3773
14.3246
14.2722
14.22
14.1682
14.1167
14.0656
14.0147
13.9641
13.9139
13.864
13.8145
13.7652
13.7163
13.6677
13.6194
13.5714
13.5238
13.4764
13.4294
13.3827
13.3363
13.2902
13.2445
13.199
13.1538
13.109
13.0644
13.0201
12.9762
12.9325
12.8891
12.8459
12.8031
12.7605
12.7181
12.676
12.6341
12.5925
12.5511
12.5098
12.4688
12.428
12.3874
12.3469
12.3066
12.2665
12.2266
12.1868
12.1472
12.1077
12.0684
12.0293
11.9903
11.9515
11.9128
11.8743
11.836
11.7979
11.76
11.7223
11.6848
11.6474
11.6104
11.5735
11.5369
11.5005
11.4643
11.4284
11.3927
11.3573
11.3222
11.2872
11.2526
11.2182
11.1846
14.389
14.3361
14.2834
14.231
14.1789
14.127
14.0754
14.0242
13.9732
13.9225
13.8722
13.8221
13.7724
13.723
13.6739
13.6251
13.5766
13.5284
13.4806
13.433
13.3858
13.3388
13.2922
13.2459
13.1998
13.1541
13.1086
13.0634
13.0185
12.9739
12.9296
12.8855
12.8417
12.7982
12.7549
12.7119
12.6692
12.6266
12.5843
12.5423
12.5004
12.4588
12.4173
12.3761
12.3351
12.2942
12.2536
12.2131
12.1729
12.1327
12.0928
12.0531
12.0135
11.9741
11.9349
11.8958
11.857
11.8183
11.7799
11.7416
11.7036
11.6658
11.6282
11.5909
11.5537
11.5168
11.4802
11.4438
11.4076
11.3717
11.3361
11.3007
11.2656
11.2307
11.1961
11.1617
11.1282
14.3714
14.3187
14.2661
14.2138
14.1616
14.1098
14.0582
14.0068
13.9557
13.905
13.8545
13.8043
13.7544
13.7049
13.6556
13.6066
13.558
13.5096
13.4615
13.4138
13.3663
13.3191
13.2723
13.2256
13.1793
13.1333
13.0875
13.0419
12.9967
12.9516
12.9069
12.8624
12.8181
12.7741
12.7303
12.6868
12.6435
12.6004
12.5575
12.5149
12.4725
12.4303
12.3883
12.3465
12.305
12.2636
12.2224
12.1815
12.1407
12.1002
12.0598
12.0197
11.9797
11.94
11.9004
11.8611
11.822
11.7831
11.7444
11.706
11.6678
11.6298
11.5921
11.5546
11.5174
11.4805
11.4438
11.4073
11.3712
11.3352
11.2996
11.2642
11.229
11.1941
11.1595
11.1252
11.0917
14.3732
14.3207
14.2683
14.2161
14.164
14.1122
14.0606
14.0092
13.9581
13.9072
13.8566
13.8063
13.7564
13.7067
13.6573
13.6082
13.5594
13.5109
13.4627
13.4147
13.3671
13.3197
13.2726
13.2258
13.1792
13.1329
13.0868
13.0409
12.9952
12.9498
12.9046
12.8597
12.8149
12.7704
12.7261
12.682
12.6381
12.5944
12.551
12.5077
12.4647
12.4219
12.3793
12.3369
12.2948
12.2528
12.2111
12.1696
12.1283
12.0873
12.0465
12.0058
11.9655
11.9253
11.8854
11.8458
11.8064
11.7672
11.7283
11.6896
11.6513
11.6131
11.5753
11.5377
11.5004
11.4634
11.4266
11.3901
11.3539
11.3179
11.2822
11.2468
11.2117
11.1768
11.1422
11.1078
11.0743
14.3912
14.3391
14.2869
14.2349
14.183
14.1313
14.0797
14.0284
13.9772
13.9264
13.8758
13.8254
13.7754
13.7257
13.6762
13.6271
13.5782
13.5297
13.4814
13.4334
13.3856
13.3382
13.2909
13.2439
13.1971
13.1505
13.1041
13.058
13.012
12.9662
12.9205
12.8751
12.8298
12.7847
12.7399
12.6951
12.6506
12.6063
12.5622
12.5183
12.4746
12.4311
12.3878
12.3447
12.3019
12.2593
12.217
12.1749
12.133
12.0914
12.0501
12.009
11.9682
11.9276
11.8873
11.8473
11.8076
11.7682
11.729
11.6902
11.6516
11.6134
11.5754
11.5377
11.5004
11.4633
11.4265
11.39
11.3538
11.3178
11.2822
11.2467
11.2116
11.1767
11.1421
11.1078
11.0743
14.4248
14.3731
14.3213
14.2696
14.218
14.1664
14.1149
14.0636
14.0125
13.9617
13.9111
13.8607
13.8107
13.761
13.7115
13.6624
13.6135
13.565
13.5167
13.4686
13.4209
13.3733
13.326
13.2789
13.2319
13.1851
13.1385
13.092
13.0456
12.9994
12.9533
12.9074
12.8616
12.8159
12.7704
12.725
12.6798
12.6348
12.5899
12.5453
12.5008
12.4565
12.4125
12.3687
12.3252
12.2819
12.2388
12.1961
12.1536
12.1114
12.0695
12.0279
11.9866
11.9456
11.905
11.8646
11.8246
11.7849
11.7455
11.7065
11.6678
11.6294
11.5913
11.5537
11.5163
11.4792
11.4424
11.4059
11.3697
11.3338
11.2982
11.2629
11.2278
11.193
11.1585
11.1242
11.0907
14.4748
14.4237
14.3725
14.3212
14.2698
14.2185
14.1672
14.116
14.065
14.0142
13.9636
13.9133
13.8634
13.8137
13.7644
13.7153
13.6666
13.6181
13.5699
13.522
13.4743
13.4267
13.3794
13.3322
13.2851
13.2381
13.1912
13.1444
13.0977
13.051
13.0044
12.9578
12.9114
12.865
12.8187
12.7725
12.7264
12.6805
12.6347
12.5892
12.5438
12.4986
12.4536
12.4089
12.3645
12.3203
12.2765
12.233
12.1898
12.1469
12.1044
12.0622
12.0204
11.979
11.9379
11.8972
11.8569
11.8169
11.7774
11.7382
11.6994
11.661
11.6229
11.5852
11.5479
11.5109
11.4743
11.4379
11.4019
11.3661
11.3307
11.2955
11.2605
11.2259
11.1915
11.1573
11.124
14.545
14.4947
14.4441
14.3933
14.3423
14.2912
14.2401
14.1891
14.1381
14.0874
14.0369
13.9868
13.9369
13.8874
13.8382
13.7893
13.7408
13.6925
13.6445
13.5967
13.5492
13.5017
13.4544
13.4072
13.3599
13.3128
13.2656
13.2183
13.1711
13.1238
13.0765
13.0292
12.9819
12.9346
12.8873
12.8401
12.7929
12.7459
12.699
12.6522
12.6057
12.5593
12.5133
12.4675
12.422
12.3768
12.332
12.2876
12.2436
12.1999
12.1567
12.1139
12.0715
12.0296
11.9881
11.9471
11.9065
11.8663
11.8266
11.7874
11.7486
11.7102
11.6722
11.6347
11.5975
11.5608
11.5243
11.4882
11.4524
11.417
11.3818
11.3469
11.3122
11.2778
11.2437
11.2097
11.1765
14.641
14.5916
14.5418
14.4916
14.441
14.3903
14.3394
14.2885
14.2377
14.1872
14.1369
14.0869
14.0373
13.9881
13.9392
13.8907
13.8426
13.7947
13.7471
13.6997
13.6525
13.6053
13.5581
13.5109
13.4636
13.4162
13.3686
13.3208
13.2728
13.2247
13.1764
13.128
13.0794
13.0308
12.9821
12.9334
12.8847
12.8361
12.7876
12.7393
12.6912
12.6433
12.5957
12.5485
12.5016
12.4552
12.4092
12.3636
12.3186
12.274
12.2299
12.1864
12.1434
12.101
12.0591
12.0178
11.977
11.9367
11.897
11.8579
11.8192
11.7811
11.7435
11.7062
11.6695
11.6332
11.5973
11.5617
11.5265
11.4915
11.4568
11.4225
11.3883
11.3544
11.3206
11.2871
11.2542
14.7711
14.7231
14.6744
14.625
14.5751
14.5249
14.4744
14.4239
14.3735
14.3232
14.2734
14.2239
14.1749
14.1263
14.0781
14.0304
13.983
13.936
13.8892
13.8425
13.7959
13.7492
13.7024
13.6553
13.6079
13.5602
13.512
13.4633
13.4142
13.3648
13.3149
13.2647
13.2142
13.1635
13.1127
13.0618
13.0109
12.9601
12.9093
12.8588
12.8085
12.7585
12.7089
12.6598
12.6111
12.563
12.5155
12.4685
12.4222
12.3766
12.3316
12.2874
12.2438
12.2009
12.1587
12.1173
12.0765
12.0364
11.997
11.9582
11.9201
11.8826
11.8456
11.8093
11.7734
11.738
11.703
11.6684
11.6342
11.6002
11.5666
11.5332
11.4999
11.4669
11.434
11.4011
11.3689
14.95
14.9043
14.8573
14.8095
14.7608
14.7116
14.6621
14.6125
14.563
14.5138
14.4651
14.417
14.3695
14.3225
14.2761
14.2301
14.1845
14.1393
14.0942
14.0491
14.0039
13.9582
13.9121
13.8653
13.8177
13.7693
13.72
13.6698
13.6187
13.5668
13.5142
13.461
13.4072
13.3529
13.2985
13.2439
13.1893
13.1348
13.0805
13.0265
12.9729
12.9197
12.8671
12.8152
12.764
12.7136
12.664
12.6152
12.5674
12.5205
12.4745
12.4295
12.3855
12.3424
12.3003
12.2591
12.2188
12.1795
12.141
12.1034
12.0666
12.0306
11.9953
11.9606
11.9267
11.8932
11.8604
11.8279
11.7957
11.7639
11.7324
11.7011
11.6699
11.6388
11.6077
11.5767
11.546
15.2072
15.1656
15.1222
15.0774
15.0316
14.9849
14.9378
14.8905
14.8435
14.7971
14.7515
14.7067
14.6627
14.6194
14.5769
14.5349
14.4933
14.4519
14.4105
14.3687
14.3261
14.2825
14.2376
14.1911
14.1429
14.0929
14.0411
13.9875
13.9323
13.8754
13.8173
13.758
13.6978
13.6369
13.5756
13.5142
13.453
13.392
13.3315
13.2716
13.2124
13.1541
13.0967
13.0405
12.9854
12.9315
12.879
12.8278
12.7781
12.7297
12.6828
12.6373
12.5932
12.5506
12.5093
12.4695
12.431
12.3938
12.3578
12.3231
12.2896
12.2571
12.2256
12.1953
12.1656
12.1368
12.1087
12.0812
12.0543
12.0278
12.0016
11.9757
11.95
11.9243
11.8986
11.8726
11.8467
15.5718
15.5358
15.4974
15.4573
15.4161
15.3744
15.3327
15.2918
15.2522
15.2138
15.1768
15.141
15.1064
15.0727
15.0397
15.007
14.9742
14.9407
14.9058
14.8689
14.8292
14.7864
14.7401
14.6899
14.6359
14.578
14.5164
14.4514
14.3835
14.313
14.2406
14.1666
14.0917
14.0165
13.9412
13.8663
13.7925
13.72
13.6488
13.5793
13.5115
13.4457
13.3819
13.3202
13.2608
13.2037
13.1489
13.0965
13.0465
12.999
12.9538
12.911
12.8705
12.8324
12.7966
12.7631
12.7318
12.7026
12.6755
12.6504
12.6273
12.6061
12.5866
12.5688
12.5526
12.538
12.5246
12.5125
12.5015
12.4916
12.4824
12.474
12.466
12.4582
12.4504
12.442
16.2619
16.2393
16.2136
16.185
16.1549
16.1244
16.0954
16.0685
16.0436
16.0211
16.0011
15.9835
15.968
15.9539
15.9406
15.9277
15.9139
15.8978
15.878
15.8531
15.8218
15.783
15.7362
15.6807
15.6165
15.5439
15.4633
15.3757
15.282
15.1833
15.081
14.9763
14.8703
14.7642
14.659
14.5555
14.4545
14.3568
14.2627
14.1725
14.0862
14.004
13.9261
13.8525
13.7834
13.7188
13.6586
13.603
13.552
13.5056
13.4637
13.4264
13.3938
13.3657
13.3422
13.3233
13.3091
13.2994
13.2945
13.2941
13.2984
13.3071
13.3207
13.3386
13.3611
13.3878
13.419
13.4543
13.4936
13.5367
13.5833
13.633
13.6852
13.7394
13.7948
13.848
17.5302
17.5247
17.5166
17.5062
17.499
17.4952
17.4954
17.5005
17.5112
17.5278
17.5498
17.5764
17.6064
17.6383
17.6719
17.7036
17.7302
17.7483
17.7546
17.7463
17.7208
17.6763
17.6117
17.5268
17.422
17.2989
17.1594
17.0061
16.842
16.6701
16.4936
16.3154
16.138
15.9641
15.7957
15.6337
15.48
15.3358
15.201
15.0759
14.9604
14.8546
14.7584
14.672
14.5954
14.5286
14.4718
14.4249
14.3881
14.3616
14.3456
14.3402
14.3458
14.3625
14.3907
14.4308
14.483
14.5477
14.6252
14.7158
14.8198
14.9371
15.0682
15.2128
15.371
15.5422
15.726
15.9216
16.128
16.344
16.568
16.7981
17.0321
17.2674
17.4929
20.0217
20.0379
20.0657
20.0986
20.1402
20.1934
20.26
20.3409
20.4372
20.549
20.6749
20.8125
20.9609
21.1174
21.2746
21.4245
21.5584
21.6679
21.7445
21.7811
21.7718
21.7129
21.6026
21.4419
21.2336
20.9828
20.6959
20.3805
20.0448
19.6969
19.3447
18.9954
18.6546
18.3284
18.0207
17.7331
17.4709
17.2345
17.0234
16.8371
16.6752
16.5376
16.4242
16.335
16.2702
16.2302
16.2153
16.2261
16.2633
16.3277
16.4199
16.5409
16.6914
16.8723
17.0842
17.3276
17.6029
17.9102
18.2492
18.619
19.019
19.4468
19.9007
20.3775
20.8744
21.3871
21.9113
22.4423
22.975
23.5042
24.0242
24.5298
25.0144
25.4566
24.8394
24.9212
25.0222
25.1495
25.3094
25.5076
25.7485
26.0351
26.3715
26.7576
27.1897
27.6705
28.1908
28.7318
29.2713
29.7849
30.2474
30.6343
30.9241
31.0994
31.1484
31.0655
30.8513
30.5123
30.0601
29.5102
28.881
28.1927
27.4659
26.7203
25.9751
25.247
24.5496
23.8969
23.2983
22.7554
22.2869
21.889
21.5593
21.2961
21.0978
20.9631
20.8912
20.8813
20.9328
21.0453
21.2182
21.4506
21.7418
22.0904
22.4946
22.9524
23.4609
24.0168
24.6163
25.2546
25.9267
26.6269
27.3488
28.0854
28.8303
29.5757
30.3148
31.0398
31.7441
32.421
33.0646
33.6692
34.2304
34.7442
35.207
35.6155
35.9477
33.7277
33.8817
34.0926
34.3799
34.7628
35.2584
35.8816
36.6422
37.5525
38.6144
39.8164
41.157
42.5995
44.0866
45.5561
46.9456
48.197
49.261
50.099
50.6847
51.0045
51.0561
50.8477
50.3959
49.7245
48.8624
47.8425
46.6998
45.4705
44.1901
42.8924
41.6113
40.3754
39.2079
38.1356
37.1726
36.32
35.6096
35.0322
34.5803
34.2455
34.0195
33.8941
33.8609
33.9123
34.0407
34.2387
34.4991
34.8151
35.1799
35.5868
36.0294
36.5009
36.9949
37.5047
38.0239
38.546
39.0647
39.5735
40.0671
40.539
40.9849
41.3995
41.7797
42.1216
42.4225
42.6809
42.8955
43.0659
43.1923
43.2754
43.3144
43.2995
49.1954
49.4286
49.8349
50.4422
51.2893
52.4112
53.8305
55.5505
57.5499
59.7947
62.2185
64.7456
67.2877
69.7313
71.9807
73.9635
75.6312
76.9569
77.9315
78.5598
78.8568
78.8445
78.5493
78.0005
77.2285
76.2655
75.1437
73.8952
72.5507
71.1399
69.69
68.2274
66.7687
65.3447
63.956
62.6135
61.3284
60.0916
58.9111
57.7932
56.741
55.7551
54.834
53.981
53.2001
52.4937
51.8594
51.2913
50.7859
50.342
49.9569
49.6271
49.3485
49.116
48.9241
48.7672
48.6392
48.5337
48.4447
48.3652
48.2907
48.2151
48.1348
48.0445
47.9417
47.8238
47.6889
47.5357
47.3638
47.1732
46.9636
46.7354
46.4899
73.9933
74.6965
75.7949
77.2814
79.1298
81.28
83.6449
86.1092
88.5609
90.8969
93.0137
94.8641
96.4033
97.6168
98.512
99.1097
99.4364
99.5202
99.3879
99.0643
98.5715
97.9288
97.1521
96.2562
95.2521
94.1529
92.9638
91.6902
90.3357
88.9029
87.3911
85.7991
84.1293
82.3777
80.5627
78.695
76.7887
74.8665
72.9601
71.0957
69.2926
67.566
65.9278
64.3866
62.9475
61.6129
60.3828
59.2553
58.2278
57.2937
56.4465
55.6791
54.9843
54.3547
53.7827
53.261
52.7821
52.3391
51.9259
51.5354
51.1636
50.8041
50.453
50.106
49.7602
49.4136
49.0646
48.7122
48.3561
47.9961
47.6322
47.2788
107.692
108.086
108.634
109.231
109.801
110.281
110.636
110.837
110.877
110.763
110.482
110.068
109.544
108.925
108.221
107.442
106.592
105.675
104.697
103.659
102.563
101.41
100.199
98.9271
97.5931
96.1946
94.7252
93.1825
91.5663
89.8692
88.0956
86.2412
84.3314
82.3828
80.4182
78.459
76.5232
74.6282
72.7894
71.0139
69.3159
67.7024
66.1784
64.7476
63.4109
62.167
61.0128
59.9441
58.9561
58.043
57.1984
56.4159
55.6888
55.0115
54.377
53.7804
53.2197
52.6842
52.1699
51.6732
51.1919
50.7217
50.2605
49.806
49.3567
48.9115
48.4697
48.0313
47.596
47.1659
46.7665
130.669
127.978
125.554
123.367
121.402
119.615
117.961
116.398
114.88
113.39
111.917
110.452
108.983
107.505
106.013
104.505
102.983
101.446
99.8956
98.3338
96.7607
95.1759
93.5789
91.9671
90.3398
88.6936
87.0272
85.3456
83.6399
81.9317
80.2442
78.5797
76.9344
75.3142
73.7348
72.1967
70.704
69.2614
67.8734
66.5436
65.2743
64.0667
62.921
61.8365
60.8115
59.8438
58.9309
58.0687
57.2541
56.4831
55.7515
55.0553
54.391
53.7547
53.1424
52.5508
51.9775
51.419
50.8742
50.3405
49.8169
49.3018
48.7944
48.294
47.8005
47.3138
46.8341
46.3619
45.901
45.4872
130.272
127.004
124.096
121.462
119.028
116.714
114.472
112.278
110.112
107.961
105.821
103.691
101.576
99.4851
97.4253
95.4055
93.4331
91.5138
89.6516
87.8485
86.1045
84.418
82.7869
81.2076
79.6801
78.1902
76.7527
75.3769
74.0624
72.7941
71.5647
70.3681
69.2023
68.0671
66.9625
65.8891
64.8483
63.84
62.8651
61.9235
61.016
60.1403
59.295
58.4809
57.696
56.9386
56.2066
55.4982
54.8117
54.145
53.496
52.8629
52.2444
51.6391
51.045
50.4607
49.8863
49.3216
48.7649
48.2159
47.675
47.1423
46.6179
46.1022
45.5956
45.0986
44.6125
44.1422
43.7312
126.31
123.231
120.251
117.35
114.471
111.606
108.751
105.903
103.072
100.274
97.5253
94.8479
92.2598
89.7802
87.4224
85.1977
83.1107
81.1638
79.3535
77.6731
76.1174
74.6705
73.3317
72.0825
70.9089
69.8383
68.8392
67.8927
66.9888
66.1195
65.279
64.4616
63.6647
62.8854
62.1226
61.3747
60.6414
59.9212
59.2136
58.5174
57.8322
57.1569
56.4909
55.8333
55.1837
54.5415
53.9061
53.2771
52.6541
52.037
51.4251
50.8184
50.2171
49.6217
49.0313
48.4468
47.8683
47.2975
46.7329
46.176
45.6272
45.0875
44.5575
44.0377
43.5291
43.0324
42.5486
42.0841
41.6882
117.51
114.025
110.459
106.927
103.396
99.8664
96.4014
93.043
89.8137
86.7471
83.8637
81.1873
78.7262
76.4872
74.4641
72.6481
71.0252
69.5767
68.2873
67.1345
66.0989
65.172
64.3421
63.589
62.8962
62.2471
61.6338
61.0462
60.4804
59.9288
59.39
58.8585
58.3336
57.8113
57.2915
56.771
56.2498
55.7249
55.1966
54.6628
54.1239
53.5783
53.0268
52.4688
51.9052
51.3358
50.7617
50.1835
49.6023
49.0187
48.4339
47.8495
47.2666
46.6861
46.1088
45.5373
44.9722
44.4135
43.8626
43.3207
42.7894
42.2687
41.7602
41.264
40.7813
40.313
39.8668
39.4929
104.595
100.401
96.3468
92.338
88.2133
84.5547
81.1272
77.9699
75.0848
72.4972
70.1946
68.1745
66.4112
64.8843
63.5621
62.4241
61.4402
60.5871
59.8549
59.2085
58.6431
58.133
57.6709
57.2382
56.8352
56.4473
56.0772
55.7123
55.356
54.9983
54.6429
54.2811
53.9166
53.5418
53.1601
52.7651
52.3595
51.9381
51.5039
51.0529
50.5879
50.1064
49.6114
49.1018
48.58
48.0463
47.5035
46.9523
46.3947
45.8325
45.2685
44.7041
44.1404
43.5805
43.0257
42.4777
41.9364
41.4039
40.8824
40.3711
39.8732
39.3865
38.9147
38.4563
38.0137
37.5926
37.2462
92.205
87.8238
83.7038
79.5538
14.9126
14.8574
14.8025
14.7479
14.6937
14.6398
14.5862
14.5329
14.48
14.4273
14.375
14.323
14.2714
14.22
14.169
14.1182
14.0678
14.0177
13.9679
13.9184
13.8692
13.8204
13.7718
13.7236
13.6756
13.628
13.5807
13.5337
13.4871
13.4407
13.3946
13.3489
13.3034
13.2583
13.2134
13.1688
13.1245
13.0805
13.0368
12.9933
12.95
12.907
12.8643
12.8218
12.7795
12.7374
12.6955
12.6538
12.6123
12.5711
12.53
12.4891
12.4484
12.4078
12.3675
12.3274
12.2874
12.2476
12.2081
12.1687
12.1295
12.0906
12.0518
12.0133
11.975
11.9369
11.8991
11.8614
11.8241
11.7869
11.7501
11.7134
11.677
11.6409
11.605
11.5694
11.5344
14.9115
14.8563
14.8014
14.7468
14.6926
14.6386
14.5851
14.5318
14.4788
14.4262
14.3739
14.322
14.2703
14.219
14.1679
14.1172
14.0668
14.0167
13.9669
13.9174
13.8682
13.8194
13.7708
13.7226
13.6746
13.627
13.5797
13.5327
13.486
13.4396
13.3935
13.3477
13.3023
13.2571
13.2122
13.1676
13.1233
13.0792
13.0355
12.992
12.9487
12.9057
12.8629
12.8204
12.7781
12.736
12.6941
12.6525
12.611
12.5697
12.5286
12.4877
12.447
12.4065
12.3662
12.3261
12.2861
12.2464
12.2068
12.1674
12.1283
12.0893
12.0506
12.0121
11.9738
11.9357
11.8978
11.8602
11.8228
11.7856
11.7487
11.712
11.6756
11.6394
11.6035
11.5678
11.5327
14.907
14.8517
14.7968
14.7422
14.6879
14.634
14.5804
14.5271
14.4741
14.4215
14.3692
14.3172
14.2655
14.2142
14.1631
14.1124
14.062
14.0119
13.9621
13.9125
13.8634
13.8145
13.7659
13.7176
13.6697
13.622
13.5747
13.5277
13.4809
13.4345
13.3884
13.3426
13.2971
13.2519
13.207
13.1624
13.118
13.074
13.0302
12.9866
12.9434
12.9003
12.8576
12.815
12.7727
12.7306
12.6887
12.647
12.6055
12.5643
12.5232
12.4823
12.4416
12.4011
12.3608
12.3206
12.2807
12.2409
12.2014
12.162
12.1229
12.0839
12.0452
12.0067
11.9684
11.9303
11.8924
11.8547
11.8173
11.7802
11.7432
11.7065
11.6701
11.6339
11.5979
11.5622
11.5271
14.8918
14.8365
14.7815
14.7269
14.6727
14.6187
14.5651
14.5118
14.4589
14.4063
14.354
14.302
14.2504
14.1991
14.1481
14.0974
14.047
13.997
13.9472
13.8978
13.8486
13.7998
13.7513
13.7031
13.6552
13.6076
13.5604
13.5134
13.4667
13.4204
13.3744
13.3286
13.2832
13.238
13.1932
13.1486
13.1043
13.0603
13.0166
12.9731
12.9299
12.8869
12.8442
12.8016
12.7594
12.7173
12.6755
12.6338
12.5924
12.5511
12.5101
12.4692
12.4286
12.3881
12.3478
12.3077
12.2678
12.228
12.1885
12.1492
12.1101
12.0711
12.0324
11.9939
11.9556
11.9176
11.8797
11.8421
11.8047
11.7676
11.7307
11.694
11.6576
11.6214
11.5854
11.5498
11.5146
14.8562
14.801
14.7461
14.6916
14.6374
14.5836
14.5301
14.477
14.4242
14.3718
14.3197
14.2679
14.2164
14.1653
14.1145
14.0641
14.0139
13.9641
13.9145
13.8653
13.8164
13.7678
13.7196
13.6716
13.624
13.5766
13.5296
13.4829
13.4365
13.3904
13.3445
13.299
13.2538
13.2089
13.1643
13.12
13.0759
13.0321
12.9886
12.9453
12.9023
12.8595
12.8169
12.7746
12.7325
12.6906
12.6489
12.6074
12.5662
12.5251
12.4842
12.4434
12.4029
12.3625
12.3224
12.2824
12.2426
12.2029
12.1635
12.1243
12.0853
12.0464
12.0078
11.9694
11.9312
11.8932
11.8555
11.818
11.7807
11.7436
11.7068
11.6702
11.6339
11.5978
11.5619
11.5264
11.4913
14.7918
14.7369
14.6824
14.6283
14.5745
14.5211
14.468
14.4153
14.3629
14.3109
14.2592
14.2079
14.1569
14.1062
14.0559
14.0059
13.9562
13.9068
13.8578
13.809
13.7606
13.7125
13.6647
13.6173
13.5701
13.5232
13.4767
13.4305
13.3845
13.3389
13.2936
13.2486
13.2038
13.1594
13.1152
13.0713
13.0277
12.9844
12.9413
12.8984
12.8558
12.8134
12.7712
12.7293
12.6875
12.646
12.6047
12.5635
12.5225
12.4817
12.4411
12.4007
12.3604
12.3203
12.2804
12.2407
12.2011
12.1617
12.1225
12.0835
12.0446
12.006
11.9676
11.9294
11.8914
11.8536
11.816
11.7787
11.7416
11.7047
11.6681
11.6317
11.5955
11.5596
11.524
11.4886
11.4538
14.6984
14.6441
14.5903
14.5368
14.4836
14.4308
14.3784
14.3263
14.2746
14.2233
14.1723
14.1216
14.0713
14.0213
13.9716
13.9223
13.8733
13.8246
13.7762
13.7282
13.6804
13.633
13.5859
13.5391
13.4926
13.4465
13.4006
13.355
13.3098
13.2648
13.2202
13.1758
13.1317
13.0879
13.0444
13.0012
12.9582
12.9154
12.8729
12.8307
12.7886
12.7468
12.7052
12.6638
12.6226
12.5816
12.5407
12.5001
12.4596
12.4192
12.3791
12.339
12.2992
12.2595
12.2199
12.1806
12.1413
12.1023
12.0634
12.0247
11.9862
11.9479
11.9098
11.8719
11.8341
11.7966
11.7593
11.7223
11.6854
11.6488
11.6125
11.5763
11.5405
11.5048
11.4695
11.4344
11.3998
14.5895
14.5359
14.4827
14.4298
14.3773
14.3251
14.2733
14.2218
14.1707
14.1199
14.0695
14.0194
13.9697
13.9203
13.8712
13.8225
13.774
13.7259
13.6781
13.6307
13.5835
13.5367
13.4902
13.444
13.3981
13.3525
13.3073
13.2623
13.2177
13.1733
13.1293
13.0855
13.042
12.9988
12.9559
12.9133
12.8709
12.8287
12.7868
12.7451
12.7036
12.6624
12.6213
12.5804
12.5398
12.4992
12.4589
12.4187
12.3787
12.3389
12.2992
12.2596
12.2202
12.1809
12.1418
12.1028
12.064
12.0253
11.9868
11.9485
11.9103
11.8724
11.8346
11.797
11.7596
11.7225
11.6855
11.6488
11.6123
11.576
11.5399
11.5041
11.4686
11.4333
11.3982
11.3635
11.3293
14.4914
14.4381
14.3852
14.3326
14.2804
14.2285
14.1769
14.1257
14.0748
14.0243
13.9741
13.9243
13.8747
13.8256
13.7767
13.7282
13.68
13.6321
13.5845
13.5373
13.4903
13.4437
13.3974
13.3515
13.3058
13.2605
13.2154
13.1707
13.1263
13.0821
13.0383
12.9948
12.9515
12.9086
12.8659
12.8234
12.7813
12.7393
12.6976
12.6562
12.6149
12.5739
12.5331
12.4925
12.452
12.4117
12.3716
12.3317
12.2919
12.2523
12.2128
12.1735
12.1343
12.0952
12.0563
12.0176
11.979
11.9406
11.9023
11.8642
11.8263
11.7886
11.751
11.7137
11.6766
11.6396
11.6029
11.5664
11.5302
11.4942
11.4584
11.4229
11.3876
11.3525
11.3178
11.2833
11.2494
14.42
14.3669
14.3141
14.2616
14.2094
14.1575
14.106
14.0548
14.0039
13.9534
13.9031
13.8533
13.8037
13.7545
13.7056
13.657
13.6087
13.5607
13.5131
13.4658
13.4188
13.3721
13.3257
13.2796
13.2338
13.1884
13.1432
13.0984
13.0538
13.0095
12.9655
12.9219
12.8784
12.8353
12.7925
12.7499
12.7075
12.6654
12.6236
12.5819
12.5405
12.4993
12.4583
12.4176
12.377
12.3366
12.2963
12.2563
12.2164
12.1767
12.1371
12.0977
12.0584
12.0193
11.9804
11.9416
11.903
11.8646
11.8264
11.7883
11.7504
11.7127
11.6753
11.638
11.601
11.5641
11.5275
11.4911
11.455
11.4191
11.3835
11.3481
11.3129
11.278
11.2434
11.209
11.1754
14.3767
14.3236
14.2709
14.2184
14.1662
14.1143
14.0627
14.0114
13.9604
13.9098
13.8594
13.8094
13.7597
13.7103
13.6613
13.6125
13.5641
13.516
13.4682
13.4206
13.3734
13.3265
13.2799
13.2336
13.1876
13.1419
13.0964
13.0513
13.0064
12.9618
12.9175
12.8734
12.8296
12.7861
12.7429
12.6999
12.6571
12.6146
12.5724
12.5303
12.4885
12.4469
12.4055
12.3643
12.3233
12.2825
12.242
12.2016
12.1613
12.1213
12.0814
12.0417
12.0022
11.9629
11.9237
11.8848
11.846
11.8074
11.769
11.7309
11.6929
11.6551
11.6176
11.5803
11.5432
11.5064
11.4698
11.4334
11.3973
11.3614
11.3258
11.2904
11.2553
11.2205
11.1859
11.1516
11.1181
14.3568
14.3039
14.2512
14.1988
14.1466
14.0947
14.043
13.9916
13.9406
13.8898
13.8394
13.7892
13.7394
13.6899
13.6407
13.5918
13.5432
13.4949
13.4469
13.3992
13.3518
13.3047
13.2579
13.2113
13.165
13.119
13.0732
13.0278
12.9825
12.9375
12.8928
12.8484
12.8041
12.7602
12.7164
12.6729
12.6297
12.5866
12.5438
12.5013
12.4589
12.4168
12.3749
12.3331
12.2917