/*--------------------------------*- C++ -*----------------------------------*\
  =========                 |
  \\      /  F ield         | OpenFOAM: The Open Source CFD Toolbox
   \\    /   O peration     | Website:  https://openfoam.org
    \\  /    A nd           | Version:  13
     \\/     M anipulation  |
\*---------------------------------------------------------------------------*/
FoamFile
{
    format      ascii;
    class       volScalarField;
    location    "500";
    object      p;
}
// * * * * * * * * * * * * * * * * * * * * * * * * * * * * * * * * * * * * * //

dimensions      [0 2 -2 0 0 0 0];

internalField   nonuniform List<scalar> 
169896
(
15.8587
15.8586
15.8582
15.8575
15.8567
15.8556
15.8542
15.8526
15.8508
15.8486
15.8461
15.8433
15.8402
15.8367
15.8328
15.8285
15.8238
15.8186
15.8129
15.8067
15.7999
15.7924
15.7843
15.7755
15.7658
15.7554
15.744
15.7316
15.7182
15.7036
15.6878
15.6707
15.6521
15.632
15.6102
15.5867
15.5612
15.5336
15.5038
15.4717
15.4369
15.3994
15.3589
15.3153
15.2683
15.2176
15.1631
15.1044
15.0413
14.9735
14.9007
14.8226
14.7388
14.6491
14.5531
14.4505
14.3408
14.2238
14.0991
13.9664
13.8252
13.6754
13.5165
13.3482
13.1703
12.9824
12.7844
12.576
12.3571
12.1276
11.8873
11.6363
11.3746
11.1023
15.859
15.8588
15.8584
15.8578
15.8569
15.8558
15.8545
15.8529
15.851
15.8489
15.8464
15.8436
15.8405
15.837
15.8332
15.8289
15.8242
15.8191
15.8134
15.8072
15.8005
15.7931
15.785
15.7762
15.7667
15.7563
15.7449
15.7327
15.7193
15.7048
15.6891
15.6721
15.6536
15.6336
15.6119
15.5885
15.5631
15.5357
15.5061
15.4741
15.4395
15.4022
15.3619
15.3185
15.2717
15.2212
15.1669
15.1085
15.0457
14.9782
14.9056
14.8278
14.7444
14.655
14.5593
14.457
14.3477
14.2311
14.1067
13.9743
13.8336
13.6841
13.5255
13.3576
13.1799
12.9924
12.7947
12.5865
12.3678
12.1385
11.8984
11.6475
11.3859
11.1136
15.8595
15.8593
15.8589
15.8583
15.8574
15.8563
15.855
15.8535
15.8516
15.8495
15.8471
15.8443
15.8413
15.8378
15.834
15.8298
15.8252
15.8201
15.8145
15.8084
15.8017
15.7944
15.7864
15.7777
15.7683
15.758
15.7468
15.7347
15.7215
15.7072
15.6916
15.6748
15.6565
15.6367
15.6153
15.5921
15.567
15.5399
15.5105
15.4789
15.4446
15.4077
15.3678
15.3248
15.2784
15.2284
15.1746
15.1167
15.0544
14.9874
14.9155
14.8383
14.7555
14.6668
14.5718
14.4701
14.3615
14.2456
14.1219
13.9903
13.8502
13.7014
13.5436
13.3763
13.1994
13.0124
12.8153
12.6077
12.3895
12.1606
11.9208
11.6703
11.4089
11.1368
15.8602
15.86
15.8596
15.859
15.8582
15.8571
15.8558
15.8543
15.8525
15.8504
15.848
15.8454
15.8423
15.839
15.8352
15.8311
15.8266
15.8216
15.8161
15.8101
15.8035
15.7963
15.7885
15.78
15.7707
15.7606
15.7496
15.7377
15.7247
15.7107
15.6954
15.6788
15.6609
15.6414
15.6203
15.5975
15.5728
15.5461
15.5172
15.486
15.4523
15.4159
15.3766
15.3342
15.2885
15.2392
15.1861
15.129
15.0675
15.0013
14.9303
14.854
14.7721
14.6844
14.5904
14.4898
14.3822
14.2673
14.1448
14.0142
13.8753
13.7275
13.5707
13.4045
13.2286
13.0426
12.8463
12.6395
12.4221
12.1938
11.9546
11.7045
11.4435
11.1717
15.8611
15.861
15.8606
15.86
15.8592
15.8582
15.8569
15.8554
15.8537
15.8516
15.8493
15.8467
15.8438
15.8405
15.8368
15.8328
15.8284
15.8235
15.8182
15.8123
15.8059
15.7989
15.7913
15.783
15.7739
15.7641
15.7533
15.7417
15.729
15.7153
15.7004
15.6842
15.6666
15.6476
15.627
15.6046
15.5805
15.5543
15.5261
15.4955
15.4625
15.4268
15.3883
15.3467
15.3018
15.2535
15.2014
15.1452
15.0848
15.0198
14.9499
14.8748
14.7942
14.7078
14.6151
14.5159
14.4097
14.2963
14.1752
14.0461
13.9086
13.7623
13.6069
13.4421
13.2675
13.0828
12.8877
12.682
12.4656
12.2382
11.9998
11.7504
11.4899
11.2185
15.8623
15.8622
15.8618
15.8612
15.8604
15.8594
15.8582
15.8568
15.8551
15.8531
15.8509
15.8484
15.8455
15.8424
15.8388
15.8349
15.8307
15.8259
15.8208
15.8151
15.8089
15.8021
15.7947
15.7867
15.7779
15.7683
15.7579
15.7466
15.7344
15.721
15.7065
15.6908
15.6737
15.6553
15.6352
15.6135
15.59
15.5646
15.537
15.5073
15.4751
15.4403
15.4028
15.3622
15.3184
15.2712
15.2203
15.1654
15.1063
15.0427
14.9743
14.9007
14.8217
14.7368
14.6459
14.5484
14.444
14.3324
14.2131
14.0858
13.9501
13.8057
13.6521
13.489
13.3161
13.133
12.9395
12.7352
12.5201
12.2939
12.0565
11.8079
11.5481
11.2772
15.8637
15.8636
15.8632
15.8626
15.8619
15.861
15.8598
15.8584
15.8568
15.8549
15.8528
15.8504
15.8476
15.8446
15.8412
15.8375
15.8333
15.8288
15.8239
15.8184
15.8125
15.8059
15.7988
15.7911
15.7826
15.7734
15.7634
15.7525
15.7407
15.7278
15.7138
15.6987
15.6822
15.6644
15.645
15.624
15.6013
15.5767
15.5501
15.5213
15.4901
15.4564
15.42
15.3806
15.3382
15.2923
15.2428
15.1894
15.1319
15.07
15.0033
14.9315
14.8544
14.7715
14.6826
14.5871
14.4849
14.3754
14.2584
14.1333
13.9999
13.8576
13.7062
13.5453
13.3744
13.1933
13.0017
12.7992
12.5856
12.3608
12.1247
11.8772
11.6183
11.348
15.8653
15.8652
15.8648
15.8643
15.8636
15.8627
15.8616
15.8603
15.8588
15.857
15.8549
15.8526
15.85
15.8471
15.8439
15.8404
15.8364
15.8321
15.8274
15.8222
15.8165
15.8103
15.8035
15.7961
15.7881
15.7793
15.7697
15.7593
15.748
15.7357
15.7223
15.7078
15.692
15.6749
15.6563
15.6362
15.6143
15.5907
15.5651
15.5374
15.5074
15.475
15.4399
15.4019
15.3609
15.3167
15.2688
15.2172
15.1616
15.1015
15.0369
14.9672
14.8923
14.8117
14.7251
14.6321
14.5324
14.4255
14.311
14.1885
14.0577
13.918
13.7692
13.6108
13.4424
13.2637
13.0743
12.8738
12.6622
12.4392
12.2046
11.9584
11.7006
11.4312
15.8671
15.867
15.8667
15.8662
15.8655
15.8647
15.8636
15.8624
15.861
15.8593
15.8574
15.8552
15.8528
15.85
15.847
15.8436
15.8399
15.8359
15.8314
15.8265
15.8211
15.8153
15.8088
15.8018
15.7942
15.7859
15.7768
15.7669
15.7562
15.7445
15.7318
15.718
15.703
15.6867
15.669
15.6498
15.629
15.6065
15.5821
15.5556
15.527
15.4959
15.4623
15.426
15.3867
15.3442
15.2983
15.2486
15.1951
15.1373
15.0749
15.0077
14.9353
14.8573
14.7734
14.6832
14.5863
14.4823
14.3708
14.2513
14.1235
13.9869
13.8411
13.6856
13.5201
13.3441
13.1573
12.9594
12.75
12.529
12.2963
12.0517
11.7952
11.5269
15.8691
15.869
15.8687
15.8682
15.8676
15.8668
15.8659
15.8647
15.8634
15.8618
15.8601
15.858
15.8558
15.8532
15.8504
15.8472
15.8438
15.84
15.8358
15.8312
15.8262
15.8207
15.8147
15.8081
15.801
15.7931
15.7846
15.7754
15.7653
15.7543
15.7423
15.7293
15.7152
15.6998
15.6831
15.665
15.6453
15.624
15.6009
15.5758
15.5486
15.5192
15.4872
15.4527
15.4152
15.3747
15.3309
15.2835
15.2323
15.177
15.1172
15.0527
14.9831
14.908
14.8272
14.7401
14.6465
14.5458
14.4376
14.3216
14.1972
14.0641
13.9217
13.7696
13.6074
13.4346
13.2508
13.0557
12.849
12.6305
12.4
12.1573
11.9024
11.6354
15.8713
15.8711
15.8709
15.8705
15.8699
15.8692
15.8683
15.8673
15.8661
15.8646
15.863
15.8611
15.859
15.8567
15.8541
15.8512
15.848
15.8445
15.8406
15.8364
15.8317
15.8266
15.8211
15.815
15.8083
15.8011
15.7932
15.7845
15.7752
15.7649
15.7538
15.7416
15.7284
15.7141
15.6985
15.6815
15.6631
15.6431
15.6214
15.5978
15.5723
15.5445
15.5145
15.4819
15.4465
15.4082
15.3667
15.3218
15.2732
15.2205
15.1636
15.1021
15.0356
14.9638
14.8864
14.8028
14.7127
14.6157
14.5114
14.3991
14.2786
14.1494
14.0108
13.8626
13.7041
13.5349
13.3547
13.1629
12.9593
12.7436
12.5156
12.2752
12.0223
11.7569
15.8736
15.8735
15.8732
15.8729
15.8724
15.8717
15.8709
15.87
15.8689
15.8676
15.8661
15.8644
15.8625
15.8604
15.858
15.8554
15.8525
15.8493
15.8458
15.8419
15.8377
15.833
15.8279
15.8224
15.8163
15.8096
15.8024
15.7944
15.7858
15.7764
15.7661
15.7549
15.7428
15.7295
15.7151
15.6994
15.6823
15.6637
15.6436
15.6216
15.5978
15.572
15.5439
15.5134
15.4803
15.4444
15.4054
15.3632
15.3174
15.2677
15.2139
15.1557
15.0926
15.0244
14.9507
14.8709
14.7849
14.6919
14.5917
14.4838
14.3676
14.2426
14.1084
13.9645
13.8102
13.6452
13.4689
13.2809
13.0808
12.8684
12.6434
12.4057
12.155
11.8916
15.8761
15.876
15.8758
15.8754
15.875
15.8744
15.8737
15.8729
15.8719
15.8708
15.8695
15.868
15.8663
15.8644
15.8623
15.8599
15.8573
15.8545
15.8513
15.8478
15.844
15.8398
15.8353
15.8302
15.8247
15.8187
15.8122
15.805
15.7972
15.7886
15.7793
15.7691
15.758
15.7459
15.7327
15.7184
15.7027
15.6857
15.6672
15.647
15.6251
15.6013
15.5753
15.5471
15.5164
15.4831
15.4469
15.4075
15.3648
15.3183
15.2679
15.2132
15.1539
15.0896
15.0199
14.9443
14.8626
14.7741
14.6785
14.5753
14.4638
14.3436
14.2142
14.075
13.9255
13.7651
13.5932
13.4095
13.2135
13.0049
12.7833
12.5487
12.3008
12.0397
15.8787
15.8786
15.8784
15.8781
15.8777
15.8773
15.8767
15.876
15.8751
15.8741
15.873
15.8717
15.8702
15.8686
15.8667
15.8647
15.8624
15.8599
15.8571
15.8541
15.8507
15.847
15.843
15.8385
15.8337
15.8283
15.8225
15.8161
15.8092
15.8015
15.7932
15.7841
15.7741
15.7633
15.7514
15.7385
15.7244
15.709
15.6922
15.6739
15.654
15.6323
15.6086
15.5829
15.5548
15.5242
15.4909
15.4546
15.4151
15.3721
15.3254
15.2745
15.2192
15.159
15.0937
15.0227
14.9457
14.8621
14.7714
14.6733
14.567
14.4521
14.328
14.1941
14.0498
13.8945
13.7276
13.5487
13.3573
13.1529
12.9353
12.7043
12.4596
12.2012
15.8814
15.8813
15.8812
15.8809
15.8806
15.8802
15.8798
15.8792
15.8785
15.8776
15.8767
15.8756
15.8743
15.8729
15.8714
15.8696
15.8677
15.8656
15.8632
15.8606
15.8577
15.8545
15.8511
15.8472
15.843
15.8384
15.8333
15.8278
15.8217
15.815
15.8078
15.7998
15.791
15.7814
15.771
15.7595
15.747
15.7334
15.7185
15.7021
15.6843
15.6649
15.6436
15.6204
15.5951
15.5674
15.5372
15.5042
15.4681
15.4288
15.3859
15.3391
15.2881
15.2324
15.1718
15.1057
15.0337
14.9554
14.8701
14.7775
14.6769
14.5677
14.4494
14.3213
14.1827
14.0331
13.8718
13.6983
13.5119
13.3124
13.0994
12.8724
12.6314
12.3764
15.8842
15.8842
15.8841
15.8839
15.8836
15.8833
15.8829
15.8825
15.8819
15.8813
15.8805
15.8796
15.8786
15.8775
15.8762
15.8748
15.8732
15.8714
15.8695
15.8673
15.865
15.8623
15.8594
15.8562
15.8527
15.8488
15.8446
15.8399
15.8347
15.8291
15.8229
15.8161
15.8086
15.8003
15.7913
15.7815
15.7706
15.7588
15.7458
15.7315
15.7159
15.6988
15.6801
15.6596
15.6371
15.6125
15.5855
15.556
15.5236
15.4882
15.4494
15.4069
15.3604
15.3095
15.2538
15.1929
15.1264
15.0537
14.9742
14.8876
14.793
14.6901
14.578
14.4562
14.324
14.1806
14.0255
13.8579
13.6773
13.4832
13.2753
13.053
12.8163
12.5651
15.8871
15.8871
15.887
15.8869
15.8867
15.8865
15.8862
15.8859
15.8855
15.885
15.8844
15.8838
15.883
15.8821
15.8812
15.8801
15.8789
15.8775
15.876
15.8743
15.8724
15.8704
15.8681
15.8655
15.8627
15.8596
15.8562
15.8524
15.8482
15.8436
15.8385
15.8329
15.8267
15.8199
15.8124
15.8041
15.795
15.785
15.774
15.7619
15.7486
15.734
15.7179
15.7002
15.6807
15.6592
15.6357
15.6097
15.5812
15.5499
15.5154
15.4774
15.4357
15.3899
15.3395
15.2841
15.2233
15.1565
15.0833
15.003
14.9151
14.8188
14.7135
14.5986
14.4732
14.3367
14.1882
14.0272
13.853
13.665
13.4628
13.2459
13.0141
12.7673
15.8901
15.8901
15.89
15.8899
15.8899
15.8897
15.8896
15.8894
15.8891
15.8888
15.8884
15.888
15.8875
15.8869
15.8862
15.8855
15.8846
15.8837
15.8826
15.8814
15.8801
15.8786
15.8769
15.875
15.8729
15.8706
15.868
15.8651
15.862
15.8584
15.8545
15.8501
15.8452
15.8399
15.8339
15.8273
15.82
15.8119
15.803
15.7931
15.7822
15.7701
15.7567
15.7419
15.7255
15.7074
15.6874
15.6652
15.6407
15.6135
15.5835
15.5503
15.5136
15.4731
15.4282
15.3787
15.324
15.2635
15.1969
15.1234
15.0424
14.9533
14.8554
14.7478
14.6298
14.5007
14.3596
14.2059
14.0387
13.8574
13.6616
13.4508
13.2245
12.9828
15.8931
15.8931
15.8931
15.8931
15.893
15.893
15.893
15.8929
15.8928
15.8927
15.8925
15.8923
15.8921
15.8918
15.8914
15.891
15.8905
15.89
15.8894
15.8887
15.8878
15.8869
15.8859
15.8847
15.8833
15.8818
15.8801
15.8781
15.876
15.8735
15.8707
15.8676
15.8641
15.8602
15.8559
15.851
15.8455
15.8394
15.8326
15.825
15.8165
15.807
15.7964
15.7846
15.7714
15.7567
15.7403
15.722
15.7016
15.6789
15.6535
15.6253
15.5938
15.5587
15.5197
15.4762
15.4279
15.3741
15.3144
15.2481
15.1746
15.0931
15.0029
14.9033
14.7933
14.6722
14.5391
14.3932
14.2337
14.0599
13.8712
13.6671
13.4472
13.2113
15.8961
15.8962
15.8962
15.8962
15.8963
15.8963
15.8964
15.8965
15.8966
15.8966
15.8966
15.8967
15.8967
15.8966
15.8966
15.8965
15.8965
15.8963
15.8962
15.896
15.8957
15.8954
15.8949
15.8944
15.8938
15.8931
15.8923
15.8913
15.8901
15.8888
15.8872
15.8854
15.8833
15.8809
15.8781
15.8749
15.8713
15.8672
15.8625
15.8572
15.8512
15.8444
15.8367
15.8279
15.818
15.8068
15.7941
15.7798
15.7637
15.7455
15.7249
15.7018
15.6757
15.6464
15.6134
15.5762
15.5346
15.4878
15.4353
15.3766
15.3109
15.2375
15.1556
15.0644
14.963
14.8505
14.726
14.5886
14.4375
14.2719
14.091
13.8944
13.6816
13.4523
15.8992
15.8992
15.8993
15.8994
15.8995
15.8997
15.8999
15.9001
15.9003
15.9005
15.9008
15.901
15.9013
15.9016
15.9018
15.9021
15.9024
15.9027
15.903
15.9033
15.9036
15.9038
15.904
15.9042
15.9044
15.9045
15.9045
15.9045
15.9044
15.9041
15.9037
15.9032
15.9025
15.9016
15.9005
15.899
15.8973
15.8952
15.8927
15.8898
15.8863
15.8821
15.8773
15.8717
15.8651
15.8574
15.8486
15.8383
15.8265
15.813
15.7974
15.7795
15.7589
15.7355
15.7087
15.6782
15.6434
15.6039
15.559
15.5081
15.4506
15.3857
15.3125
15.2303
15.138
15.0347
14.9194
14.7912
14.6492
14.4924
14.3203
14.1319
13.927
13.7052
15.9022
15.9023
15.9024
15.9025
15.9027
15.903
15.9033
15.9036
15.904
15.9044
15.9049
15.9054
15.9059
15.9064
15.907
15.9077
15.9084
15.9091
15.9098
15.9106
15.9114
15.9123
15.9131
15.914
15.9149
15.9158
15.9167
15.9177
15.9186
15.9194
15.9203
15.921
15.9217
15.9223
15.9228
15.9232
15.9233
15.9233
15.923
15.9224
15.9214
15.92
15.9181
15.9156
15.9123
15.9083
15.9033
15.8972
15.8898
15.8809
15.8704
15.8578
15.843
15.8256
15.8052
15.7814
15.7537
15.7217
15.6847
15.6421
15.5931
15.537
15.473
15.4002
15.3175
15.2239
15.1185
15.0001
14.8678
14.7207
14.5579
14.3787
14.1825
13.9689
15.9052
15.9053
15.9054
15.9056
15.9059
15.9062
15.9067
15.9072
15.9077
15.9083
15.909
15.9097
15.9104
15.9113
15.9122
15.9132
15.9142
15.9154
15.9166
15.9178
15.9192
15.9206
15.9221
15.9237
15.9254
15.9271
15.9289
15.9307
15.9327
15.9346
15.9367
15.9387
15.9408
15.9429
15.945
15.9471
15.9492
15.9512
15.9531
15.9548
15.9564
15.9577
15.9587
15.9593
15.9595
15.9591
15.958
15.956
15.9531
15.949
15.9435
15.9364
15.9273
15.916
15.9021
15.8853
15.8649
15.8406
15.8117
15.7775
15.7374
15.6906
15.6361
15.5731
15.5004
15.4172
15.3221
15.2142
15.0924
14.9556
14.8029
14.6335
14.4468
14.2425
15.9082
15.9082
15.9084
15.9087
15.909
15.9095
15.91
15.9106
15.9113
15.9121
15.913
15.9139
15.9149
15.9161
15.9173
15.9186
15.92
15.9216
15.9232
15.925
15.9269
15.9289
15.931
15.9333
15.9356
15.9382
15.9408
15.9436
15.9466
15.9496
15.9529
15.9562
15.9597
15.9633
15.967
15.9708
15.9747
15.9787
15.9828
15.9869
15.991
15.995
15.9989
16.0027
16.0062
16.0094
16.0122
16.0144
16.016
16.0166
16.0163
16.0146
16.0114
16.0063
15.999
15.9892
15.9763
15.9598
15.9391
15.9137
15.8827
15.8454
15.8008
15.748
15.6858
15.6133
15.5292
15.4323
15.3215
15.1957
15.0538
14.8951
14.7188
14.5244
15.9111
15.9111
15.9113
15.9116
15.9121
15.9126
15.9133
15.914
15.9149
15.9158
15.9169
15.918
15.9193
15.9207
15.9222
15.9239
15.9257
15.9276
15.9297
15.932
15.9344
15.9369
15.9397
15.9426
15.9457
15.949
15.9525
15.9562
15.9602
15.9643
15.9687
15.9733
15.9781
15.9832
15.9885
15.994
15.9998
16.0058
16.012
16.0184
16.025
16.0317
16.0385
16.0454
16.0522
16.059
16.0657
16.0721
16.078
16.0835
16.0882
16.092
16.0946
16.0958
16.0952
16.0924
16.087
16.0785
16.0662
16.0497
16.028
16.0004
15.9659
15.9237
15.8724
15.811
15.7383
15.6529
15.5538
15.4396
15.3092
15.1619
14.9966
14.8131
15.9138
15.9139
15.9142
15.9145
15.915
15.9157
15.9164
15.9173
15.9183
15.9194
15.9207
15.922
15.9236
15.9252
15.927
15.929
15.9312
15.9335
15.936
15.9387
15.9416
15.9448
15.9481
15.9517
15.9555
15.9596
15.9639
15.9685
15.9734
15.9786
15.9841
15.99
15.9961
16.0026
16.0095
16.0167
16.0242
16.0322
16.0405
16.0491
16.0581
16.0675
16.0771
16.0871
16.0972
16.1076
16.118
16.1285
16.1389
16.149
16.1588
16.1681
16.1765
16.1839
16.1899
16.1942
16.1963
16.1958
16.1921
16.1844
16.1722
16.1545
16.1305
16.099
16.0589
16.009
15.948
15.8747
15.7876
15.6856
15.5674
15.432
15.2786
15.1066
15.9165
15.9166
15.9169
15.9173
15.9179
15.9186
15.9195
15.9205
15.9216
15.9229
15.9243
15.9259
15.9277
15.9296
15.9317
15.934
15.9365
15.9392
15.9421
15.9453
15.9487
15.9523
15.9562
15.9604
15.9649
15.9697
15.9749
15.9804
15.9862
15.9924
15.999
16.006
16.0135
16.0214
16.0297
16.0385
16.0479
16.0577
16.068
16.0789
16.0903
16.1022
16.1146
16.1275
16.1409
16.1547
16.1689
16.1833
16.198
16.2128
16.2276
16.2422
16.2564
16.2699
16.2825
16.2939
16.3035
16.311
16.3157
16.3171
16.3143
16.3066
16.2931
16.2725
16.2438
16.2057
16.1568
16.0958
16.0213
15.9318
15.8263
15.7034
15.5625
15.4028
15.9191
15.9192
15.9195
15.92
15.9206
15.9214
15.9223
15.9235
15.9248
15.9262
15.9278
15.9296
15.9316
15.9337
15.9361
15.9387
15.9415
15.9446
15.9479
15.9515
15.9554
15.9595
15.964
15.9688
15.974
15.9795
15.9854
15.9917
15.9984
16.0056
16.0133
16.0215
16.0301
16.0393
16.0491
16.0595
16.0705
16.0822
16.0945
16.1075
16.1211
16.1355
16.1506
16.1664
16.1829
16.2001
16.2179
16.2362
16.2551
16.2745
16.2941
16.3139
16.3337
16.3533
16.3724
16.3906
16.4077
16.423
16.4362
16.4465
16.4532
16.4555
16.4524
16.4429
16.4257
16.3995
16.3629
16.3145
16.2528
16.1763
16.0838
15.974
15.846
15.6992
15.9215
15.9217
15.922
15.9225
15.9232
15.924
15.9251
15.9263
15.9277
15.9293
15.9311
15.9331
15.9353
15.9377
15.9403
15.9432
15.9463
15.9497
15.9534
15.9574
15.9617
15.9664
15.9714
15.9768
15.9825
15.9887
15.9954
16.0025
16.0101
16.0182
16.0269
16.0361
16.0459
16.0564
16.0676
16.0795
16.0921
16.1055
16.1197
16.1347
16.1505
16.1673
16.185
16.2035
16.223
16.2434
16.2646
16.2868
16.3097
16.3334
16.3578
16.3826
16.4079
16.4333
16.4587
16.4837
16.508
16.5311
16.5525
16.5716
16.5877
16.5999
16.6072
16.6087
16.603
16.5887
16.5645
16.5288
16.4801
16.4169
16.3376
16.2412
16.1265
15.9931
15.9238
15.9239
15.9243
15.9248
15.9256
15.9265
15.9277
15.929
15.9305
15.9323
15.9342
15.9364
15.9387
15.9414
15.9442
15.9474
15.9508
15.9546
15.9586
15.963
15.9677
15.9728
15.9783
15.9842
15.9906
15.9974
16.0047
16.0126
16.021
16.03
16.0396
16.0499
16.0608
16.0725
16.085
16.0983
16.1124
16.1274
16.1434
16.1603
16.1783
16.1973
16.2174
16.2385
16.2609
16.2843
16.3089
16.3346
16.3614
16.3893
16.4181
16.4478
16.4783
16.5094
16.5408
16.5723
16.6036
16.6342
16.6636
16.6913
16.7165
16.7384
16.756
16.7683
16.7739
16.7715
16.7597
16.7367
16.701
16.651
16.5852
16.5023
16.4012
16.2813
15.9259
15.926
15.9264
15.927
15.9278
15.9288
15.93
15.9315
15.9331
15.935
15.9371
15.9394
15.942
15.9448
15.9479
15.9513
15.955
15.959
15.9634
15.9681
15.9733
15.9788
15.9847
15.9912
15.9981
16.0055
16.0134
16.022
16.0311
16.041
16.0515
16.0627
16.0747
16.0875
16.1012
16.1157
16.1313
16.1479
16.1655
16.1842
16.2041
16.2252
16.2476
16.2712
16.2962
16.3225
16.3502
16.3793
16.4098
16.4416
16.4747
16.509
16.5444
16.5809
16.6181
16.6558
16.6937
16.7315
16.7686
16.8045
16.8385
16.8698
16.8974
16.9202
16.9369
16.9461
16.9463
16.9359
16.9131
16.8763
16.8238
16.7544
16.6668
16.5606
15.9278
15.928
15.9284
15.929
15.9298
15.9309
15.9322
15.9337
15.9355
15.9375
15.9397
15.9422
15.9449
15.9479
15.9512
15.9548
15.9588
15.9631
15.9678
15.9729
15.9783
15.9843
15.9906
15.9975
16.0049
16.0129
16.0214
16.0306
16.0405
16.051
16.0623
16.0744
16.0874
16.1012
16.116
16.1318
16.1487
16.1667
16.1858
16.2062
16.2279
16.251
16.2755
16.3014
16.3288
16.3578
16.3884
16.4206
16.4545
16.4899
16.527
16.5656
16.6057
16.6471
16.6897
16.7333
16.7775
16.8221
16.8665
16.9102
16.9526
16.9928
17.0298
17.0627
17.0901
17.1105
17.1224
17.1241
17.1139
17.0899
17.0506
16.9944
16.9202
16.8273
15.9295
15.9297
15.9301
15.9308
15.9317
15.9328
15.9342
15.9358
15.9376
15.9397
15.942
15.9447
15.9475
15.9507
15.9542
15.9581
15.9622
15.9668
15.9718
15.9771
15.9829
15.9892
15.996
16.0033
16.0111
16.0196
16.0286
16.0384
16.0489
16.0601
16.0722
16.0851
16.0989
16.1137
16.1295
16.1464
16.1644
16.1837
16.2043
16.2262
16.2495
16.2743
16.3007
16.3287
16.3584
16.3899
16.4231
16.4582
16.4951
16.5339
16.5747
16.6172
16.6615
16.7076
16.7552
16.8041
16.8542
16.905
16.9562
17.0072
17.0574
17.1059
17.1519
17.1943
17.2317
17.2628
17.2858
17.2991
17.3008
17.2892
17.2624
17.219
17.1576
17.0779
15.931
15.9312
15.9316
15.9323
15.9333
15.9344
15.9359
15.9376
15.9395
15.9417
15.9441
15.9469
15.9499
15.9532
15.9569
15.9609
15.9653
15.9701
15.9753
15.9809
15.987
15.9936
16.0007
16.0083
16.0166
16.0255
16.035
16.0453
16.0564
16.0682
16.0809
16.0945
16.1091
16.1247
16.1414
16.1593
16.1784
16.1988
16.2206
16.2439
16.2687
16.2951
16.3232
16.3531
16.3848
16.4184
16.454
16.4917
16.5314
16.5732
16.6172
16.6633
16.7115
16.7617
16.8138
16.8677
16.923
16.9796
17.0369
17.0945
17.1518
17.2081
17.2623
17.3134
17.3601
17.401
17.4343
17.4584
17.4714
17.4713
17.4564
17.4249
17.3757
17.3081
15.9323
15.9325
15.933
15.9337
15.9346
15.9359
15.9373
15.9391
15.9411
15.9434
15.9459
15.9487
15.9519
15.9554
15.9592
15.9633
15.9679
15.9729
15.9783
15.9841
15.9905
15.9973
16.0047
16.0127
16.0213
16.0306
16.0406
16.0513
16.0628
16.0752
16.0885
16.1027
16.1179
16.1343
16.1518
16.1705
16.1906
16.212
16.2349
16.2593
16.2854
16.3132
16.3428
16.3743
16.4077
16.4433
16.481
16.5208
16.563
16.6075
16.6544
16.7036
16.7551
16.809
16.8651
16.9233
16.9833
17.0449
17.1077
17.1712
17.2349
17.298
17.3595
17.4185
17.4736
17.5233
17.566
17.5999
17.623
17.6335
17.6293
17.6087
17.5706
17.5142
15.9334
15.9336
15.934
15.9348
15.9358
15.937
15.9386
15.9404
15.9424
15.9448
15.9474
15.9503
15.9536
15.9571
15.9611
15.9654
15.9701
15.9752
15.9808
15.9868
15.9934
16.0005
16.0081
16.0164
16.0253
16.0349
16.0452
16.0563
16.0682
16.081
16.0948
16.1095
16.1254
16.1423
16.1605
16.1799
16.2007
16.223
16.2468
16.2723
16.2994
16.3284
16.3592
16.3921
16.4271
16.4642
16.5036
16.5454
16.5897
16.6364
16.6857
16.7376
16.792
16.849
16.9085
16.9704
17.0344
17.1003
17.1678
17.2364
17.3056
17.3745
17.4424
17.5082
17.5705
17.628
17.6788
17.7212
17.7533
17.7729
17.7782
17.7673
17.7389
17.6923
15.9342
15.9344
15.9349
15.9356
15.9367
15.938
15.9395
15.9414
15.9435
15.9459
15.9485
15.9515
15.9549
15.9585
15.9626
15.967
15.9718
15.9771
15.9828
15.989
15.9957
16.003
16.0108
16.0193
16.0285
16.0383
16.0489
16.0603
16.0726
16.0857
16.0999
16.115
16.1313
16.1488
16.1675
16.1875
16.2089
16.2319
16.2564
16.2827
16.3107
16.3406
16.3725
16.4064
16.4426
16.4811
16.5219
16.5653
16.6112
16.6598
16.711
16.7651
16.8219
16.8814
16.9437
17.0085
17.0758
17.1452
17.2166
17.2893
17.363
17.4368
17.5099
17.5813
17.6496
17.7134
17.771
17.8206
17.86
17.8874
17.9005
17.8976
17.8773
17.8388
15.9348
15.935
15.9355
15.9363
15.9373
15.9386
15.9402
15.9421
15.9442
15.9467
15.9494
15.9524
15.9558
15.9596
15.9637
15.9682
15.9731
15.9784
15.9843
15.9906
15.9974
16.0048
16.0128
16.0215
16.0308
16.0408
16.0516
16.0633
16.0758
16.0892
16.1036
16.1191
16.1357
16.1535
16.1726
16.1931
16.215
16.2385
16.2636
16.2904
16.3191
16.3497
16.3824
16.4172
16.4543
16.4937
16.5356
16.5802
16.6273
16.6773
16.7301
16.7857
16.8443
16.9058
16.9701
17.0372
17.107
17.1792
17.2534
17.3293
17.4064
17.4839
17.561
17.6367
17.7096
17.7783
17.8411
17.8961
17.9413
17.9745
17.9938
17.997
17.9829
17.9506
15.9352
15.9354
15.9359
15.9366
15.9377
15.939
15.9406
15.9425
15.9447
15.9471
15.9499
15.953
15.9564
15.9602
15.9643
15.9689
15.9739
15.9793
15.9852
15.9916
15.9985
16.006
16.0141
16.0229
16.0323
16.0424
16.0534
16.0652
16.0778
16.0914
16.1061
16.1218
16.1386
16.1567
16.176
16.1968
16.219
16.2428
16.2683
16.2955
16.3246
16.3557
16.3889
16.4243
16.4619
16.5021
16.5447
16.59
16.638
16.6889
16.7426
16.7994
16.8591
16.9219
16.9877
17.0563
17.1277
17.2017
17.2779
17.3559
17.4353
17.5153
17.5951
17.6736
17.7497
17.8217
17.888
17.9467
17.9957
18.0329
18.0562
18.0637
18.0538
18.0256
15.9378
15.9391
15.9408
15.9426
15.9448
15.9473
15.9501
15.9532
15.9566
15.9604
15.9646
15.9692
15.9742
15.9796
15.9856
15.992
15.999
16.0065
16.0147
16.0234
16.0329
16.0431
16.0542
16.066
16.0787
16.0924
16.1072
16.123
16.1399
16.1581
16.1776
16.1985
16.2209
16.2448
16.2705
16.2979
16.3272
16.3585
16.392
16.4276
16.4656
16.506
16.549
16.5946
16.6431
16.6944
16.7486
16.8059
16.8663
16.9296
16.9961
17.0655
17.1377
17.2125
17.2897
17.3688
17.4492
17.5305
17.6116
17.6915
17.769
17.8426
17.9106
17.9711
18.0219
18.061
18.0863
18.0957
18.0877
18.0613
17.9696
18.0203
18.0593
18.0844
18.0937
17.942
17.9907
18.0276
18.0506
18.0576
15.8456
15.8454
15.8449
15.8442
15.8432
15.8419
15.8404
15.8386
15.8365
15.834
15.8312
15.828
15.8245
15.8206
15.8163
15.8115
15.8063
15.8005
15.7942
15.7874
15.7799
15.7717
15.7629
15.7533
15.7428
15.7315
15.7192
15.7059
15.6915
15.6759
15.659
15.6408
15.6211
15.5998
15.5768
15.552
15.5253
15.4964
15.4653
15.4318
15.3957
15.3569
15.315
15.27
15.2216
15.1696
15.1137
15.0537
14.9894
14.9203
14.8464
14.7672
14.6824
14.5918
14.4951
14.3918
14.2816
14.1643
14.0395
13.9068
13.766
13.6167
13.4587
13.2915
13.1149
12.9288
12.7328
12.5267
12.3105
12.0839
11.847
11.5997
11.342
11.0739
15.8458
15.8456
15.8451
15.8444
15.8434
15.8422
15.8407
15.8389
15.8367
15.8343
15.8315
15.8284
15.8249
15.821
15.8167
15.8119
15.8067
15.801
15.7947
15.7879
15.7805
15.7724
15.7636
15.754
15.7436
15.7323
15.7201
15.7069
15.6926
15.677
15.6603
15.6421
15.6225
15.6013
15.5785
15.5538
15.5272
15.4985
15.4675
15.4342
15.3982
15.3595
15.3179
15.273
15.2249
15.1731
15.1174
15.0577
14.9935
14.9248
14.8511
14.7722
14.6878
14.5975
14.501
14.398
14.2882
14.1712
14.0467
13.9144
13.7739
13.625
13.4672
13.3004
13.1241
12.9383
12.7425
12.5367
12.3207
12.0944
11.8576
11.6104
11.3528
11.0849
15.8463
15.8461
15.8456
15.8449
15.8439
15.8427
15.8412
15.8394
15.8373
15.8349
15.8322
15.8291
15.8256
15.8217
15.8175
15.8128
15.8076
15.802
15.7958
15.789
15.7817
15.7737
15.7649
15.7555
15.7452
15.734
15.7219
15.7088
15.6947
15.6793
15.6627
15.6447
15.6253
15.6044
15.5817
15.5573
15.5309
15.5025
15.4718
15.4388
15.4032
15.3648
15.3235
15.2791
15.2313
15.18
15.1248
15.0655
15.0019
14.9337
14.8605
14.7822
14.6984
14.6087
14.5128
14.4105
14.3014
14.1851
14.0612
13.9296
13.7898
13.6415
13.4844
13.3182
13.1426
12.9574
12.7622
12.5569
12.3414
12.1155
11.8791
11.6323
11.3749
11.1072
15.847
15.8468
15.8463
15.8456
15.8447
15.8434
15.842
15.8402
15.8382
15.8358
15.8331
15.8301
15.8266
15.8229
15.8187
15.814
15.809
15.8034
15.7973
15.7907
15.7834
15.7755
15.767
15.7576
15.7475
15.7366
15.7247
15.7118
15.6978
15.6827
15.6663
15.6487
15.6295
15.6089
15.5866
15.5625
15.5365
15.5085
15.4782
15.4457
15.4105
15.3727
15.332
15.2881
15.241
15.1903
15.1358
15.0772
15.0144
14.947
14.8747
14.7972
14.7142
14.6255
14.5306
14.4292
14.3211
14.2058
14.083
13.9524
13.8136
13.6664
13.5103
13.3451
13.1704
12.9861
12.7918
12.5873
12.3725
12.1473
11.9115
11.6652
11.4082
11.1408
15.8479
15.8477
15.8473
15.8466
15.8456
15.8445
15.843
15.8413
15.8393
15.837
15.8344
15.8314
15.828
15.8243
15.8202
15.8157
15.8108
15.8053
15.7994
15.7929
15.7858
15.7781
15.7697
15.7605
15.7506
15.7399
15.7283
15.7156
15.702
15.6872
15.6712
15.6538
15.6351
15.6149
15.593
15.5694
15.5439
15.5164
15.4868
15.4548
15.4203
15.3832
15.3432
15.3001
15.2538
15.204
15.1504
15.0928
15.031
14.9646
14.8934
14.8171
14.7353
14.6478
14.5542
14.4541
14.3473
14.2334
14.112
13.9827
13.8454
13.6995
13.5447
13.3809
13.2075
13.0244
12.8312
12.6279
12.4141
12.1897
11.9548
11.7091
11.4528
11.1858
15.849
15.8489
15.8484
15.8478
15.8469
15.8457
15.8443
15.8427
15.8407
15.8385
15.8359
15.833
15.8298
15.8262
15.8222
15.8178
15.813
15.8077
15.8019
15.7956
15.7887
15.7812
15.773
15.7641
15.7545
15.7441
15.7327
15.7204
15.7071
15.6927
15.6771
15.6602
15.642
15.6223
15.6009
15.5779
15.5531
15.5263
15.4973
15.4661
15.4325
15.3962
15.3571
15.315
15.2697
15.221
15.1685
15.1121
15.0516
14.9865
14.9167
14.8418
14.7615
14.6755
14.5835
14.4851
14.3799
14.2677
14.148
14.0205
13.8849
13.7407
13.5877
13.4255
13.2538
13.0722
12.8806
12.6786
12.4661
12.2429
12.009
11.7642
11.5087
11.2423
15.8504
15.8502
15.8498
15.8492
15.8483
15.8472
15.8458
15.8442
15.8424
15.8402
15.8377
15.8349
15.8318
15.8283
15.8245
15.8202
15.8156
15.8105
15.8049
15.7988
15.7921
15.7849
15.777
15.7684
15.7591
15.749
15.738
15.7261
15.7132
15.6993
15.6842
15.6679
15.6502
15.6311
15.6104
15.5881
15.564
15.538
15.5099
15.4796
15.4469
15.4116
15.3737
15.3327
15.2886
15.2412
15.1901
15.1351
15.0761
15.0126
14.9444
14.8712
14.7927
14.7086
14.6185
14.522
14.4189
14.3087
14.1911
14.0657
13.9322
13.7901
13.6392
13.479
13.3093
13.1296
12.9397
12.7395
12.5285
12.3068
12.0742
11.8306
11.5759
11.3104
15.852
15.8518
15.8514
15.8508
15.85
15.8489
15.8476
15.8461
15.8443
15.8422
15.8398
15.8372
15.8342
15.8308
15.8271
15.8231
15.8186
15.8137
15.8083
15.8025
15.7961
15.7891
15.7816
15.7733
15.7644
15.7547
15.7441
15.7327
15.7203
15.7069
15.6924
15.6766
15.6596
15.6412
15.6213
15.5998
15.5765
15.5514
15.5243
15.4951
15.4635
15.4295
15.3927
15.3532
15.3105
15.2645
15.215
15.1617
15.1044
15.0427
14.9765
14.9053
14.8289
14.7469
14.659
14.5649
14.4641
14.3563
14.2411
14.1182
13.9871
13.8475
13.6991
13.5413
13.3739
13.1965
13.0088
12.8105
12.6015
12.3815
12.1505
11.9082
11.6548
11.3902
15.8537
15.8536
15.8532
15.8526
15.8518
15.8508
15.8496
15.8481
15.8464
15.8445
15.8422
15.8397
15.8368
15.8336
15.8301
15.8263
15.822
15.8173
15.8122
15.8067
15.8006
15.7939
15.7867
15.7788
15.7703
15.761
15.751
15.7401
15.7282
15.7154
15.7015
15.6865
15.6702
15.6526
15.6336
15.613
15.5907
15.5667
15.5407
15.5126
15.4823
15.4496
15.4143
15.3762
15.3352
15.2909
15.2432
15.1918
15.1364
15.0769
15.0128
14.9439
14.8698
14.7903
14.705
14.6135
14.5154
14.4103
14.298
14.1779
14.0497
13.9129
13.7673
13.6123
13.4476
13.2729
13.0877
12.8919
12.6851
12.4671
12.2379
11.9974
11.7454
11.482
15.8557
15.8555
15.8552
15.8546
15.8539
15.8529
15.8518
15.8504
15.8488
15.847
15.8448
15.8424
15.8397
15.8368
15.8334
15.8298
15.8258
15.8214
15.8165
15.8113
15.8055
15.7992
15.7924
15.785
15.7769
15.7681
15.7586
15.7482
15.737
15.7249
15.7117
15.6974
15.682
15.6653
15.6472
15.6276
15.6064
15.5835
15.5588
15.532
15.5031
15.4719
15.4382
15.4018
15.3625
15.3202
15.2745
15.2252
15.1721
15.1148
15.0532
14.9868
14.9155
14.8387
14.7562
14.6676
14.5726
14.4707
14.3615
14.2446
14.1196
13.9862
13.8437
13.692
13.5304
13.3587
13.1765
12.9834
12.7792
12.5637
12.3367
12.0981
11.8478
11.586
15.8578
15.8577
15.8573
15.8568
15.8561
15.8553
15.8542
15.8529
15.8514
15.8497