/*--------------------------------*- C++ -*----------------------------------*\
  =========                 |
  \\      /  F ield         | OpenFOAM: The Open Source CFD Toolbox
   \\    /   O peration     | Website:  https://openfoam.org
    \\  /    A nd           | Version:  13
     \\/     M anipulation  |
\*---------------------------------------------------------------------------*/
FoamFile
{
    format      ascii;
    class       volScalarField;
    location    "200";
    object      k;
}
// * * * * * * * * * * * * * * * * * * * * * * * * * * * * * * * * * * * * * //

dimensions      [0 2 -2 0 0 0 0];

internalField   nonuniform List<scalar> 
171745
(
0.307123
0.305646
0.304187
0.302746
0.301321
0.299912
0.298518
0.297138
0.295771
0.294416
0.293071
0.291735
0.290408
0.28909
0.287778
0.286474
0.285177
0.283889
0.282608
0.281337
0.280077
0.278828
0.277591
0.276368
0.307155
0.305678
0.304219
0.302778
0.301353
0.299945
0.298552
0.297173
0.295807
0.294452
0.293109
0.291775
0.290449
0.289132
0.287823
0.28652
0.285226
0.283939
0.282661
0.281392
0.280133
0.278886
0.277651
0.276431
0.307223
0.305745
0.304286
0.302844
0.30142
0.300013
0.298621
0.297244
0.29588
0.294528
0.293187
0.291856
0.290534
0.289221
0.287915
0.286616
0.285326
0.284043
0.282769
0.281504
0.28025
0.279007
0.277776
0.276559
0.307327
0.305849
0.304389
0.302948
0.301525
0.300119
0.298729
0.297355
0.295994
0.294646
0.29331
0.291984
0.290667
0.289359
0.288059
0.286767
0.285483
0.284206
0.282938
0.28168
0.280432
0.279195
0.277971
0.276761
0.307484
0.306004
0.304544
0.303103
0.301681
0.300278
0.298891
0.297521
0.296165
0.294822
0.293492
0.292173
0.290864
0.289563
0.288271
0.286987
0.285711
0.284444
0.283184
0.281935
0.280696
0.279468
0.278253
0.277051
0.307707
0.306226
0.304765
0.303326
0.301906
0.300505
0.299123
0.297758
0.296408
0.295073
0.293751
0.29244
0.291141
0.289851
0.288569
0.287296
0.286032
0.284775
0.283527
0.282289
0.281062
0.279846
0.278642
0.277452
0.308023
0.30654
0.30508
0.303641
0.302224
0.300828
0.299451
0.298092
0.296751
0.295425
0.294113
0.292815
0.291527
0.29025
0.288983
0.287724
0.286473
0.285231
0.283998
0.282775
0.281562
0.28036
0.279171
0.277995
0.308467
0.306984
0.305524
0.304088
0.302675
0.301284
0.299914
0.298564
0.297233
0.29592
0.294621
0.293337
0.292066
0.290805
0.289555
0.288314
0.287081
0.285858
0.284643
0.283437
0.282242
0.281058
0.279887
0.278728
0.309097
0.307615
0.306157
0.304725
0.303317
0.301934
0.300573
0.299235
0.297917
0.296619
0.295338
0.294072
0.29282
0.291581
0.290353
0.289134
0.287924
0.286723
0.28553
0.284346
0.283173
0.28201
0.280859
0.279721
0.309997
0.308517
0.307064
0.305637
0.304238
0.302864
0.301517
0.300193
0.298893
0.297614
0.296355
0.295113
0.293887
0.292674
0.291474
0.290283
0.289101
0.287928
0.286762
0.285605
0.284457
0.283319
0.282192
0.281076
0.311291
0.309815
0.308369
0.306952
0.305564
0.304205
0.302874
0.30157
0.300292
0.299039
0.297808
0.296598
0.295405
0.294227
0.293061
0.291906
0.290759
0.28962
0.288486
0.28736
0.286241
0.285131
0.28403
0.282937
0.313156
0.311689
0.310254
0.30885
0.307477
0.306137
0.304828
0.30355
0.302302
0.301082
0.299889
0.298719
0.297569
0.296436
0.295317
0.294207
0.293105
0.292007
0.290912
0.289822
0.288737
0.287657
0.286582
0.285512
0.315844
0.314387
0.312964
0.311576
0.310224
0.308906
0.307625
0.30638
0.305171
0.303995
0.302851
0.301736
0.300644
0.299572
0.298514
0.297465
0.29642
0.295375
0.294329
0.29328
0.292231
0.291181
0.290131
0.289079
0.319664
0.318215
0.316804
0.315431
0.314098
0.312807
0.311558
0.310352
0.309191
0.308073
0.306995
0.305955
0.304945
0.303958
0.302987
0.302022
0.301057
0.300086
0.299103
0.298104
0.297097
0.296079
0.295049
0.294006
0.324925
0.323473
0.322063
0.320697
0.319379
0.318111
0.316896
0.315738
0.314639
0.3136
0.312619
0.311691
0.310807
0.309955
0.309122
0.308295
0.30746
0.306606
0.305724
0.304801
0.303852
0.302874
0.301863
0.30082
0.3318
0.330323
0.328897
0.327525
0.326213
0.324967
0.323794
0.322704
0.321702
0.320794
0.31998
0.319257
0.318607
0.318008
0.317435
0.316862
0.316266
0.315628
0.314931
0.314156
0.313301
0.312381
0.311391
0.31033
0.34026
0.338746
0.337298
0.335925
0.334635
0.333444
0.332371
0.331431
0.330641
0.330015
0.329559
0.329262
0.329097
0.329019
0.328974
0.328912
0.328791
0.328577
0.328239
0.32775
0.327054
0.32622
0.325241
0.324118
0.350476
0.348967
0.347553
0.346251
0.345081
0.344071
0.343258
0.342682
0.342385
0.342398
0.342731
0.343341
0.344159
0.345089
0.346023
0.34687
0.347562
0.348051
0.348283
0.348218
0.347802
0.34698
0.345881
0.344515
0.363639
0.362297
0.361111
0.36011
0.359336
0.358847
0.358711
0.359009
0.359803
0.361115
0.362927
0.365026
0.36728
0.369542
0.371666
0.373547
0.375121
0.376341
0.377089
0.377342
0.377067
0.376177
0.374651
0.372696
0.370371
0.383077
0.38238
0.38192
0.381744
0.381922
0.382546
0.383712
0.385506
0.38792
0.390747
0.393896
0.397199
0.400402
0.403246
0.405551
0.407259
0.408396
0.409004
0.409023
0.408512
0.407485
0.405969
0.403942
0.401319
0.398229
0.415698
0.416342
0.417146
0.418147
0.419409
0.421009
0.422909
0.424979
0.427144
0.429242
0.431005
0.432145
0.432437
0.43178
0.430306
0.428206
0.425606
0.42278
0.419896
0.417036
0.414122
0.411097
0.407991
0.404825
0.401601
0.464862
0.464992
0.464475
0.463336
0.461623
0.45938
0.456635
0.453353
0.449309
0.444366
0.438541
0.432111
0.425331
0.418292
0.411793
0.406442
0.402473
0.399827
0.398294
0.397636
0.398074
0.398616
0.399005
0.398982
0.398289
0.492143
0.482535
0.471824
0.460378
0.44853
0.43658
0.424803
0.41339
0.402579
0.392747
0.384647
0.379251
0.376553
0.37592
0.378097
0.383597
0.39186
0.401824
0.412667
0.424416
0.4473
0.469276
0.492028
0.514891
0.5369
0.450889
0.433323
0.417213
0.40295
0.390473
0.379924
0.371395
0.364276
0.358938
0.356286
0.358391
0.366822
0.379754
0.37846
0.388331
0.408061
0.434989
0.468165
0.505043
0.549439
0.708842
0.790342
0.886601
0.98323
1.08643
1.21088
0.434269
0.42506
0.417567
0.411264
0.405697
0.400724
0.396361
0.393811
0.395228
0.406495
0.428997
0.429888
0.453017
0.4956
0.544887
0.609571
0.709112
0.826182
1.03452
1.27197
1.67769
1.78709
1.97003
2.2585
2.762
0.478719
0.472299
0.467263
0.463498
0.460915
0.459895
0.462525
0.473621
0.502481
0.502832
0.536328
0.607721
0.694284
0.732583
0.914124
1.13469
1.50492
1.89587
1.37221
1.18988
1.15386
1.24482
1.38692
1.53204
0.536612
0.538079
0.540347
0.543711
0.548241
0.554877
0.565926
0.588038
0.631116
0.635846
0.696338
0.761346
0.878646
1.00054
1.22336
0.433639
0.598395
0.954965
0.990943
0.914723
0.919787
0.986176
1.05444
1.11038
0.62374
0.62965
0.637294
0.646579
0.658223
0.674496
0.700359
0.746475
0.751058
0.816061
0.891933
1.08714
0.344266
0.73344
0.884478
0.845363
0.890036
0.97596
1.05376
1.11998
0.702917
0.778606
0.786892
0.902254
1.04426
1.24404
1.18903
1.50788
1.58162
1.66574
1.87776
2.25153
1.09682
1.19548
1.31305
1.46525
0.43751
0.431301
0.424485
0.417403
0.410229
0.403692
0.398279
0.394111
0.391153
0.38926
0.388265
0.388219
0.388182
0.387925
0.387279
0.386016
0.384083
0.427662
0.428847
0.429357
0.428997
0.427703
0.425571
0.422595
0.419173
0.415621
0.412139
0.408841
0.405677
0.402566
0.399506
0.396488
0.393514
0.390534
0.387546
0.391496
0.394443
0.397473
0.400329
0.402755
0.404572
0.405715
0.406134
0.405889
0.405128
0.403957
0.402431
0.400588
0.398283
0.39554
0.392461
0.38913
0.38563
0.362009
0.36382
0.365884
0.368061
0.370194
0.37213
0.373758
0.374963
0.375664
0.375878
0.375618
0.374891
0.37355
0.371788
0.369676
0.36727
0.364631
0.361818
0.342961
0.343341
0.343986
0.344821
0.345737
0.346619
0.347367
0.347905
0.34818
0.348165
0.347837
0.347117
0.34611
0.344851
0.343357
0.341658
0.339789
0.337789
0.33034
0.329922
0.329661
0.329526
0.329466
0.329423
0.329339
0.329171
0.328882
0.328449
0.327843
0.327055
0.326129
0.325062
0.32386
0.322534
0.321105
0.319593
0.321009
0.320221
0.319522
0.318895
0.318315
0.317753
0.317182
0.316577
0.315917
0.315187
0.314363
0.313476
0.312521
0.311493
0.310395
0.309232
0.308013
0.306749
0.313772
0.312807
0.311895
0.311027
0.310189
0.309367
0.308546
0.307713
0.306854
0.305963
0.305031
0.304071
0.303078
0.302051
0.300987
0.29989
0.298766
0.297619
0.308227
0.307161
0.306132
0.305133
0.304157
0.303194
0.302236
0.301275
0.300304
0.299319
0.29832
0.29731
0.296287
0.29525
0.294199
0.293135
0.29206
0.290978
0.304141
0.303005
0.301898
0.300815
0.29975
0.298699
0.297655
0.296614
0.295572
0.294526
0.293478
0.29243
0.291379
0.290326
0.289271
0.288213
0.287155
0.286097
0.301223
0.300036
0.298872
0.297729
0.296602
0.295487
0.294382
0.293282
0.292187
0.291094
0.290005
0.288922
0.287842
0.286766
0.285695
0.284628
0.283567
0.282512
0.299177
0.297951
0.296745
0.295556
0.294383
0.293221
0.292069
0.290924
0.289787
0.288654
0.28753
0.286413
0.285303
0.284202
0.283109
0.282024
0.280949
0.279883
0.297749
0.296493
0.295255
0.294033
0.292823
0.291625
0.290436
0.289256
0.288084
0.286919
0.285763
0.284616
0.283479
0.282352
0.281235
0.28013
0.279036
0.277955
0.29675
0.295472
0.294209
0.29296
0.291723
0.290496
0.289279
0.28807
0.286869
0.285677
0.284494
0.283321
0.282159
0.281008
0.279869
0.278743
0.27763
0.27653
0.296047
0.294752
0.293469
0.2922
0.290941
0.289691
0.288451
0.287219
0.285996
0.284781
0.283575
0.28238
0.281197
0.280025
0.278866
0.27772
0.276589
0.275472
0.295549
0.294239
0.292942
0.291656
0.29038
0.289112
0.287854
0.286604
0.285361
0.284128
0.282904
0.281691
0.280489
0.2793
0.278124
0.276962
0.275814
0.274681
0.295193
0.293872
0.292563
0.291264
0.289974
0.288693
0.28742
0.286155
0.284898
0.28365
0.282412
0.281184
0.279967
0.278763
0.277573
0.276397
0.275235
0.27409
0.294938
0.293609
0.292291
0.290982
0.289682
0.28839
0.287106
0.285829
0.284561
0.283301
0.282051
0.280811
0.279583
0.278367
0.277166
0.275978
0.274806
0.273649
0.294759
0.293423
0.292098
0.290781
0.289473
0.288173
0.28688
0.285595
0.284318
0.283049
0.28179
0.280542
0.279305
0.27808
0.276869
0.275673
0.274492
0.273327
0.294637
0.293297
0.291966
0.290644
0.28933
0.288024
0.286725
0.285433
0.28415
0.282875
0.281609
0.280354
0.279111
0.27788
0.276663
0.27546
0.274273
0.273102
0.294559
0.293215
0.291881
0.290556
0.289238
0.287928
0.286625
0.28533
0.284042
0.282763
0.281493
0.280234
0.278986
0.277751
0.27653
0.275323
0.274132
0.272957
0.294522
0.293177
0.291841
0.290514
0.289195
0.287882
0.286577
0.28528
0.28399
0.282709
0.281437
0.280176
0.278926
0.277689
0.276466
0.275257
0.274064
0.272887
0.307126
0.30565
0.304192
0.302751
0.301327
0.299918
0.298525
0.297145
0.295778
0.294423
0.293078
0.291743
0.290416
0.289097
0.287785
0.286481
0.285183
0.283894
0.282613
0.281342
0.280081
0.278831
0.277593
0.276369
0.307159
0.305683
0.304225
0.302784
0.30136
0.299953
0.29856
0.297181
0.295815
0.294461
0.293117
0.291783
0.290457
0.28914
0.28783
0.286528
0.285232
0.283945
0.282666
0.281396
0.280137
0.278889
0.277653
0.276431
0.307228
0.305751
0.304292
0.302852
0.301428
0.300022
0.29863
0.297253
0.295889
0.294537
0.293196
0.291865
0.290543
0.28923
0.287924
0.286625
0.285334
0.284051
0.282776
0.281511
0.280255
0.279012
0.27778
0.276562
0.307334
0.305856
0.304397
0.302957
0.301535
0.300129
0.29874
0.297366
0.296006
0.294658
0.293322
0.291996
0.290679
0.289371
0.288071
0.286779
0.285494
0.284217
0.282949
0.28169
0.280442
0.279204
0.27798
0.276768
0.307492
0.306013
0.304554
0.303115
0.301694
0.300291
0.298905
0.297535
0.29618
0.294838
0.293508
0.292189
0.290879
0.289579
0.288287
0.287003
0.285727
0.28446
0.2832
0.28195
0.280711
0.279482
0.278267
0.277064
0.307717
0.306237
0.304778
0.30334
0.301921
0.300521
0.29914
0.297775
0.296427
0.295092
0.29377
0.29246
0.291161
0.289871
0.28859
0.287317
0.286053
0.284796
0.283549
0.28231
0.281083
0.279866
0.278662
0.277471
0.308034
0.306553
0.305094
0.303657
0.302241
0.300846
0.29947
0.298113
0.296772
0.295447
0.294136
0.292838
0.291551
0.290275
0.289008
0.287749
0.286499
0.285257
0.284024
0.282801
0.281588
0.280387
0.279197
0.278021
0.308477
0.306996
0.305538
0.304103
0.302692
0.301302
0.299934
0.298586
0.297256
0.295943
0.294646
0.293362
0.292091
0.290832
0.289582
0.288342
0.28711
0.285887
0.284673
0.283468
0.282273
0.28109
0.279919
0.27876
0.309103
0.307623
0.306167
0.304737
0.303331
0.30195
0.300591
0.299255
0.297938
0.296641
0.295361
0.294097
0.292846
0.291608
0.290381
0.289163
0.287954
0.286754
0.285562
0.28438
0.283208
0.282046
0.280897
0.279759
0.309996
0.308518
0.307068
0.305644
0.304247
0.302876
0.30153
0.300209
0.298911
0.297633
0.296376
0.295136
0.293911
0.2927
0.291501
0.290312
0.289132
0.28796
0.286796
0.285641
0.284495
0.28336
0.282235
0.281121
0.31128
0.309808
0.308365
0.306951
0.305566
0.30421
0.302882
0.301581
0.300306
0.299055
0.297826
0.296617
0.295426
0.29425
0.293087
0.291934
0.29079
0.289653
0.288523
0.287401
0.286287
0.285181
0.284085
0.282997
0.313135
0.311673
0.310242
0.308842
0.307474
0.306138
0.304833
0.303559
0.302314
0.301098
0.299907
0.29874
0.297593
0.296463
0.295346
0.29424
0.293141
0.292048
0.290959
0.289875
0.288797
0.287725
0.286659
0.285598
0.315816
0.314367
0.312951
0.31157
0.310224
0.308913
0.307638
0.306398
0.305193
0.304021
0.302881
0.301769
0.300681
0.299612
0.298557
0.297512
0.296473
0.295435
0.294396
0.293358
0.292321
0.291286
0.29025
0.289215
0.319647
0.318211
0.316811
0.31545
0.314127
0.312845
0.311605
0.310408
0.309253
0.30814
0.307067
0.306029
0.305022
0.304038
0.30307
0.302109
0.30115
0.300187
0.299214
0.298232
0.297245
0.29625
0.295246
0.294231
0.324968
0.323537
0.322147
0.3208
0.319499
0.318247
0.317046
0.3159
0.314809
0.313776
0.312798
0.31187
0.310984
0.310129
0.309292
0.308461
0.307626
0.306775
0.305902
0.305002
0.304082
0.303139
0.30217
0.301172
0.33202
0.330578
0.329186
0.327846
0.326563
0.325342
0.32419
0.323113
0.322119
0.32121
0.320387
0.319645
0.318969
0.318342
0.31774
0.317141
0.316525
0.315877
0.315182
0.314419
0.313614
0.312756
0.311839
0.31086
0.340875
0.339419
0.338026
0.336702
0.335455
0.334297
0.333241
0.332302
0.331496
0.330834
0.330322
0.329952
0.3297
0.329526
0.329387
0.329239
0.329047
0.328782
0.328422
0.327938
0.327327
0.326607
0.325766
0.324796
0.351803
0.350375
0.349032
0.347786
0.346656
0.345664
0.344837
0.34421
0.343816
0.343685
0.343827
0.344226
0.344813
0.345508
0.346221
0.346875
0.347412
0.347792
0.347983
0.347946
0.34761
0.347058
0.346268
0.345234
0.366089
0.364803
0.363646
0.362641
0.361822
0.361234
0.360934
0.360987
0.361458
0.362373
0.36373
0.365464
0.367352
0.369276
0.371113
0.372764
0.374169
0.37529
0.37609
0.376511
0.376456
0.375921
0.374966
0.373607
0.371875
0.386244
0.385408
0.38476
0.384343
0.384214
0.384449
0.385137
0.38636
0.388196
0.390528
0.393262
0.396294
0.399441
0.402466
0.405156
0.407392
0.409133
0.410372
0.411103
0.411282
0.410941
0.409915
0.408355
0.406275
0.40373
0.417094
0.417185
0.417446
0.417932
0.418723
0.419913
0.421548
0.423565
0.426001
0.428846
0.431997
0.435238
0.438267
0.440825
0.442721
0.443889
0.444351
0.444011
0.443018
0.441536
0.43965
0.437374
0.434564
0.431341
0.427778
0.458222
0.458541
0.458754
0.458938
0.459194
0.459521
0.459934
0.460458
0.461109
0.461878
0.46279
0.463638
0.464398
0.465042
0.464986
0.463983
0.462193
0.459707
0.456579
0.453088
0.449475
0.445536
0.441344
0.437026
0.432934
0.482934
0.480308
0.477284
0.474007
0.470648
0.467405
0.464225
0.46115
0.459326
0.458979
0.461121
0.466133
0.472311
0.479201
0.485377
0.488926
0.490021
0.488777
0.485458
0.481173
0.477531
0.476136
0.476129
0.476565
0.475914
0.471903
0.464197
0.456944
0.450417
0.444906
0.440796
0.438662
0.439226
0.443886
0.455251
0.475354
0.501402
0.501779
0.520409
0.545034
0.560592
0.566229
0.564405
0.556683
0.547252
0.54883
0.59093
0.651172
0.716477
0.778123
0.831292
0.514756
0.510714
0.508429
0.50767
0.508681
0.512277
0.519037
0.532099
0.557992
0.594496
0.600649
0.652732
0.719179
0.74285
0.733928
0.706809
0.688534
0.668878
0.688092
0.842519
1.1606
1.98606
2.25099
2.50352
2.78609
0.709201
0.711237
0.7118
0.711903
0.713
0.71768
0.732577
0.76587
0.75322
0.800838
0.907369
0.961567
0.974472
0.990093
1.03352
0.984736
1.0705
1.19278
1.90645
2.77204
2.90707
2.35785
2.73847
2.81364
0.922857
0.924744
0.926548
0.9291
0.93351
0.941251
0.956107
0.989928
0.988279
1.06937
1.14014
1.09895
0.81309
1.31873
1.28476
1.36467
1.37889
1.44595
0.925603
0.925792
0.928263
0.934586
0.947318
0.971153
1.019
1.03585
1.14028
1.24482
1.13049
0.490883
0.943553
0.77439
0.947335
1.09614
1.14131
0.256684
0.617487
0.751258
0.7484
1.10486
1.40335
1.34014
1.71251
1.82332
2.00636
2.20253
2.36834
1.03947
1.13209
1.23929
1.35524
0.456594
0.457066
0.457646
0.458372
0.45887
0.458399
0.456811
0.454275
0.450974
0.447076
0.443136
0.439397
0.435483
0.431411
0.427479
0.423705
0.420114
0.42799
0.430777
0.433602
0.436178
0.438241
0.439576
0.440037
0.439507
0.438231
0.436433
0.434342
0.4321
0.429619
0.426857
0.423819
0.42052
0.417022
0.413406
0.391181
0.393826
0.39672
0.399673
0.402435
0.404787
0.406602
0.407834
0.408404
0.408413
0.407968
0.407098
0.405742
0.403979
0.401812
0.399255
0.396386
0.393259
0.363016
0.364407
0.366143
0.368005
0.369865
0.371588
0.373072
0.374254
0.375057
0.375456
0.375463
0.374997
0.37419
0.373028
0.371516
0.369685
0.367581
0.36526
0.344064
0.344256
0.344697
0.345315
0.34602
0.346713
0.347308
0.347745
0.347982
0.347992
0.347741
0.347242
0.346535
0.345607
0.344456
0.343097
0.341557
0.339866
0.331056
0.330579
0.330243
0.330022
0.329872
0.329743
0.329587
0.329365
0.32905
0.328621
0.328044
0.32737
0.326584
0.325677
0.324645
0.323497
0.322243
0.320906
0.321371
0.32057
0.31985
0.319197
0.318589
0.318001
0.317408
0.316789
0.316127
0.315409
0.314627
0.313797
0.312911
0.311964
0.310955
0.309885
0.308762
0.307591
0.313918
0.312955
0.312042
0.311171
0.31033
0.309505
0.308682
0.30785
0.306998
0.30612
0.305215
0.304288
0.303336
0.302355
0.301343
0.300303
0.299235
0.298148
0.308276
0.307214
0.306187
0.305191
0.304218
0.303258
0.302305
0.30135
0.300389
0.299417
0.298436
0.297448
0.296451
0.295442
0.294421
0.293389
0.292348
0.291296
0.304155
0.303023
0.301919
0.300839
0.299778
0.298731
0.297691
0.296656
0.295621
0.294584
0.293549
0.292514
0.291478
0.290442
0.289404
0.288365
0.287325
0.286288
0.30123
0.300046
0.298885
0.297744
0.29662
0.295509
0.294407
0.293312
0.292222
0.291134
0.290053
0.288977
0.287906
0.28684
0.285779
0.284723
0.283673
0.282628
0.299186
0.297963
0.296759
0.295573
0.294401
0.293242
0.292092
0.290951
0.289816
0.288688
0.287567
0.286455
0.28535
0.284254
0.283167
0.282088
0.281019
0.27996
0.297764
0.29651
0.295274
0.294053
0.292845
0.291648
0.290462
0.289284
0.288113
0.28695
0.285797
0.284652
0.283518
0.282393
0.28128
0.280177
0.279087
0.278008
0.296769
0.295492
0.294231
0.292983
0.291747
0.290522
0.289306
0.288098
0.286899
0.285708
0.284526
0.283355
0.282194
0.281044
0.279907
0.278782
0.27767
0.276572
0.296068
0.294773
0.293492
0.292224
0.290966
0.289717
0.288478
0.287247
0.286024
0.28481
0.283605
0.282411
0.281228
0.280056
0.278898
0.277753
0.276622
0.275505
0.295568
0.29426
0.292963
0.291678
0.290403
0.289136
0.287878
0.286629
0.285387
0.284154
0.282931
0.281718
0.280516
0.279326
0.27815
0.276988
0.27584
0.274707
0.29521
0.29389
0.292581
0.291283
0.289994
0.288714
0.287441
0.286176
0.284919
0.283671
0.282433
0.281205
0.279988
0.278784
0.277593
0.276416
0.275254
0.274107
0.294952
0.293623
0.292305
0.290997
0.289697
0.288406
0.287122
0.285845
0.284577
0.283317
0.282066
0.280826
0.279598
0.278382
0.277179
0.275991
0.274817
0.27366
0.294768
0.293433
0.292108
0.290792
0.289485
0.288184
0.286892
0.285607
0.284329
0.28306
0.281801
0.280552
0.279314
0.278089
0.276877
0.27568
0.274498
0.273332
0.294644
0.293304
0.291974
0.290652
0.289339
0.288032
0.286733
0.285442
0.284158
0.282882
0.281616
0.280361
0.279116
0.277885
0.276667
0.275463
0.274274
0.273102
0.294564
0.293222
0.291888
0.290563
0.289245
0.287935
0.286631
0.285336
0.284048
0.282768
0.281498
0.280238
0.278989
0.277754
0.276531
0.275324
0.274131
0.272955
0.294527
0.293182
0.291847
0.29052
0.2892
0.287888
0.286583
0.285285
0.283995
0.282714
0.281441
0.28018
0.278929
0.277691
0.276467
0.275258
0.274063
0.272885
0.30713
0.305655
0.304198
0.302758
0.301335
0.299927
0.298535
0.297156
0.295789
0.294434
0.29309
0.291754
0.290428
0.289109
0.287797
0.286492
0.285195
0.283905
0.282624
0.281351
0.280089
0.278838
0.2776
0.276375
0.307164
0.305689
0.304232
0.302792
0.30137
0.299963
0.298571
0.297192
0.295827
0.294473
0.29313
0.291796
0.290471
0.289153
0.287843
0.286541
0.285245
0.283957
0.282678
0.281408
0.280147
0.278899
0.277662
0.276439
0.307235
0.30576
0.304302
0.302863
0.301441
0.300035
0.298644
0.297268
0.295905
0.294554
0.293213
0.291883
0.290561
0.289248
0.287942
0.286643
0.285352
0.284068
0.282793
0.281527
0.280271
0.279027
0.277795
0.276576
0.307346
0.30587
0.304413
0.302974
0.301553
0.300149
0.298761
0.297388
0.296029
0.294682
0.293346
0.292021
0.290705
0.289397
0.288098
0.286805
0.285521
0.284244
0.282975
0.281716
0.280467
0.27923
0.278004
0.276792
0.307512
0.306035
0.304578
0.30314
0.301721
0.30032
0.298936
0.297567
0.296213
0.294872
0.293543
0.292225
0.290917
0.289617
0.288326
0.287043
0.285767
0.284499
0.28324
0.28199
0.28075
0.279522
0.278306
0.277103
0.307745
0.306268
0.304811
0.303375
0.301958
0.300561
0.299181
0.297819
0.296472
0.295139
0.293819
0.29251
0.291212
0.289923
0.288643
0.287371
0.286107
0.284852
0.283604
0.282367
0.281139
0.279923
0.278719
0.277528
0.308067
0.306589
0.305133
0.303699
0.302286
0.300894
0.299521
0.298166
0.296827
0.295504
0.294196
0.292899
0.291614
0.290339
0.289073
0.287816
0.286568
0.285327
0.284095
0.282873
0.281661
0.28046
0.279271
0.278096
0.308512
0.307034
0.30558
0.304149
0.302741
0.301355
0.29999
0.298644
0.297317
0.296007
0.294712
0.293431
0.292163
0.290905
0.289658
0.28842
0.28719
0.285968
0.284756
0.283552
0.28236
0.281178
0.280008
0.278851
0.309133
0.307657
0.306207
0.304781
0.303379
0.302001
0.300647
0.299314
0.298001
0.296707
0.295431
0.294169
0.292922
0.291686
0.290462
0.289247
0.288041
0.286843
0.285654
0.284474
0.283305
0.282147
0.281
0.279865
0.310016
0.308544
0.307099
0.30568
0.304288
0.302922
0.301582
0.300265
0.298971
0.297698
0.296444
0.295208
0.293987
0.29278
0.291584
0.290398
0.289222
0.288054
0.286894
0.285744
0.284603
0.283473
0.282353
0.281244
0.311284
0.309819
0.308383
0.306976
0.305597
0.304248
0.302926
0.301631
0.300361
0.299115
0.297892
0.296688
0.295502
0.29433
0.293172
0.292024
0.290885
0.289754
0.28863
0.287515
0.286408
0.285311
0.284223
0.283145
0.313119
0.311666
0.310245
0.308854
0.307495
0.306168
0.304871
0.303604
0.302367
0.301157
0.299973
0.298812
0.297671
0.296547
0.295437
0.294338
0.293247
0.292162
0.291082
0.290009
0.288943
0.287885
0.286833
0.285788
0.315783
0.314348
0.312946
0.311578
0.310244
0.308946
0.307682
0.306453
0.305258
0.304096
0.302964
0.30186
0.30078
0.299719
0.298673
0.297637
0.296607
0.295581
0.294556
0.293535
0.292519
0.291506
0.290495
0.289485
0.319619
0.318205
0.316827
0.315486
0.314183
0.31292
0.311698
0.310516
0.309375
0.308275
0.307214
0.306186
0.305188
0.304213
0.303254
0.302304
0.301358
0.30041
0.299457
0.298503
0.297548
0.296589
0.295625
0.294653
0.325017
0.323622
0.322268
0.320955
0.319687
0.318465
0.317291
0.316169
0.3151
0.314083
0.313118
0.3122
0.311321
0.310472
0.309641
0.308817
0.307991
0.307156
0.306306
0.305446
0.304576
0.303691
0.302787
0.301859
0.332322
0.330944
0.329612
0.328329
0.3271
0.325927
0.324818
0.323776
0.322808
0.321916
0.3211
0.320354
0.319667
0.319022
0.3184
0.317783
0.317154
0.316504
0.315823
0.315113
0.314379
0.31361
0.312797
0.311931
0.341787
0.340436
0.339142
0.33791
0.336747
0.335659
0.334659
0.333758
0.332966
0.332294
0.331743
0.331307
0.330967
0.330692
0.330443
0.330189
0.329905
0.329572
0.329178
0.328722
0.328215
0.327636
0.326966
0.32619
0.353958
0.352682
0.351476
0.35035
0.349317
0.348392
0.347594
0.346948
0.346478
0.346206
0.346141
0.346272
0.34656
0.34694
0.347339
0.347697
0.347977
0.348156
0.348218
0.348151
0.347983
0.347677
0.347199
0.346523
0.370052
0.368908
0.36786
0.366927
0.366132
0.365502
0.365074
0.364891
0.364999
0.365437
0.366212
0.36729
0.368586
0.369949
0.371239
0.372388
0.373357
0.374125
0.374673
0.37497
0.375077
0.37496
0.374588
0.373943
0.37301
0.391472
0.390628
0.389911
0.389351
0.388989
0.388876
0.389074
0.389644
0.39065
0.392137
0.39401
0.396148
0.398425
0.400673
0.402731
0.404494
0.405925
0.407029
0.407816
0.408264
0.40845
0.408323
0.407827
0.406928
0.405623
0.420569
0.420274
0.420092
0.420095
0.420337
0.420893
0.421819
0.423101
0.424788
0.426899
0.429403
0.432173
0.435005
0.437657
0.4399
0.441597
0.442735
0.443371
0.443578
0.443482
0.443101
0.442407
0.441288
0.43969
0.437493
0.455656
0.455949
0.456232
0.456517
0.456881
0.457391
0.458104
0.459087
0.460383
0.462
0.463917
0.466058
0.468184
0.470083
0.471472
0.472052
0.471689
0.470518
0.468718
0.466779
0.465179
0.463706
0.461825
0.459377
0.456485
0.477274
0.476097
0.474986
0.474038
0.473355
0.47309
0.473309
0.473719
0.474554
0.476164
0.479235
0.483593
0.488006
0.492322
0.495306
0.49687
0.497291
0.49612
0.493516
0.490529
0.488952
0.488439
0.487477
0.485769
0.483685
0.479376
0.474552
0.470153
0.466345
0.463295
0.461031
0.46007
0.461775
0.467153
0.478684
0.496671
0.497393
0.509786
0.529875
0.549368
0.56162
0.565113
0.562255
0.553883
0.543476
0.536002
0.53631
0.545921
0.55887
0.576279
0.597906
0.511761
0.504134
0.498273
0.494214
0.492213
0.492855
0.497334
0.509432
0.539388
0.54319
0.573473
0.632313
0.690256
0.704282
0.698111
0.662524
0.620024
0.5791
0.547623
0.546016
0.566329
0.732314
1.06984
1.26967
1.48796
0.651148
0.64451
0.639147
0.635996
0.636301
0.642455
0.658044
0.648394
0.681227
0.748464
0.825706
0.912743
1.02224
0.987701
1.83439
3.1475
4.02513
3.57732
3.58539
0.832279
0.809338
0.785975
0.762338
0.740504
0.723038
0.707938
0.720968
0.760792
0.826031
0.874103
0.517976
0.907116
1.24336
1.36674
1.97155
1.0309
1.01327
0.999894
0.992351
0.993512
0.994609
0.989658
1.01214
1.02914
0.8783
0.335933
0.767587
1.02805
1.08459
0.321504
0.487261
0.857536
1.27834
1.24156
1.53333
1.82164
1.60824
1.71826
0.914916
0.881942
0.927786
0.989125
0.745857
0.744594
0.745976
0.751091
0.459253
0.46085
0.462704
0.464557
0.466119
0.466965
0.466624
0.465263
0.463117
0.460473
0.45793
0.456149
0.45486
0.453412
0.451549
0.449265
0.44667
0.426801
0.429144
0.431712
0.434296
0.436637
0.438491
0.439704
0.440279
0.440155
0.439619
0.438925
0.43823
0.43735
0.436178
0.434631
0.432689
0.430166
0.427391
0.392495
0.394372
0.396489
0.398711
0.400858
0.402755
0.40429
0.405431
0.406187
0.406606
0.406735
0.406634
0.406268
0.405587
0.404554
0.403174
0.401458
0.399368
0.365693
0.366519
0.367641
0.368966
0.370315
0.37156
0.372625
0.373471
0.374081
0.374445
0.374584
0.374529
0.374258
0.373747
0.372981
0.371928
0.370568
0.368939
0.346316
0.346294
0.346468
0.346796
0.347203
0.347609
0.347948
0.34818
0.348283
0.348247
0.348099
0.347844
0.347452
0.346891
0.346141
0.345198
0.344069
0.342781
0.332368
0.331844
0.331437
0.331126
0.330876
0.330644
0.330395
0.330101
0.329744
0.329312
0.328826
0.328285
0.327669
0.32696
0.326147
0.325226
0.324208
0.323098
0.321996
0.321197
0.320471
0.319804
0.319177
0.31857
0.317962
0.317337
0.316682
0.315988
0.315272
0.314528
0.313745
0.312916
0.312033
0.311096
0.310107
0.309073
0.314178
0.313226
0.312322
0.311457
0.310621
0.309801
0.308986
0.308166
0.307334
0.306482
0.305624
0.304753
0.303864
0.302954
0.302018
0.301057
0.300071
0.299061
0.308382
0.30733
0.306313
0.305326
0.304361
0.303411
0.302468
0.301528
0.300584
0.299633
0.298683
0.29773
0.296772
0.295806
0.294831
0.293847
0.292852
0.291852
0.304211
0.303087
0.301991
0.300919
0.299865
0.298826
0.297796
0.296771
0.295749
0.294728
0.293711
0.292697
0.291685
0.290675
0.289664
0.288653
0.287643
0.286632
0.301278
0.3001
0.298945
0.29781
0.296692
0.295587
0.294492
0.293405
0.292323
0.291246
0.290176
0.289113
0.288057
0.287006
0.285961
0.284921
0.283887
0.282861
0.299239
0.29802
0.296821
0.29564
0.294473
0.293318
0.292174
0.291038
0.289909
0.288787
0.287674
0.286569
0.285473
0.284386
0.283308
0.282239
0.28118
0.280129
0.297822
0.296573
0.29534
0.294123
0.292919
0.291726
0.290543
0.289368
0.288202
0.287044
0.285894
0.284755
0.283625
0.282506
0.281398
0.280301
0.279216
0.278144
0.296831
0.295558
0.294299
0.293055
0.291821
0.290599
0.289385
0.28818
0.286984
0.285796
0.284617
0.283448
0.28229
0.281144
0.280009
0.278888
0.277779
0.276683
0.296129
0.294837
0.293558
0.292292
0.291036
0.28979
0.288552
0.287323
0.286102
0.28489
0.283687
0.282495
0.281313
0.280143
0.278987
0.277843
0.276713
0.275598
0.295623
0.294317
0.293022
0.291739
0.290465
0.2892
0.287944
0.286695
0.285455
0.284223
0.283
0.281788
0.280587
0.279399
0.278223
0.277061
0.275914
0.274781
0.295254
0.293936
0.292629
0.291332
0.290044
0.288765
0.287493
0.286229
0.284973
0.283726
0.282488
0.28126
0.280043
0.278839
0.277648
0.276471
0.275309
0.274162
0.294984
0.293657
0.29234
0.291033
0.289734
0.288443
0.287159
0.285883
0.284615
0.283356
0.282105
0.280865
0.279636
0.27842
0.277217
0.276028
0.274854
0.273695
0.294791
0.293457
0.292132
0.290817
0.289509
0.28821
0.286917
0.285632
0.284355
0.283086
0.281826
0.280577
0.279339
0.278113
0.2769
0.275702
0.274519
0.273352
0.294659
0.29332
0.29199
0.290669
0.289355
0.288049
0.28675
0.285458
0.284174
0.282898
0.281632
0.280376
0.279131
0.277898
0.276679
0.275474
0.274285
0.273111
0.294575
0.293233
0.291899
0.290574
0.289257
0.287947
0.286643
0.285347
0.284059
0.282779
0.281508
0.280247
0.278998
0.277761
0.276538
0.275329
0.274135
0.272957
0.294537
0.293193
0.291857
0.29053
0.289211
0.287899
0.286593
0.285295
0.284005
0.282723
0.28145
0.280188
0.278936
0.277698
0.276472
0.275261
0.274065
0.272885
0.307137
0.305664
0.304209
0.30277
0.301348
0.299942
0.29855
0.297172
0.295806
0.294452
0.293108
0.291773
0.290447
0.289128
0.287816
0.286511
0.285213
0.283923
0.282641
0.281368
0.280105
0.278853
0.277613
0.276386
0.307173
0.3057
0.304245
0.302807
0.301385
0.29998
0.298589
0.297212
0.295847
0.294494
0.293152
0.291818
0.290494
0.289176
0.287866
0.286564
0.285268
0.283979
0.282699
0.281428
0.280167
0.278918
0.27768
0.276455
0.307251
0.305777
0.304322
0.302885
0.301464
0.30006
0.298671
0.297296
0.295934
0.294584
0.293245
0.291915
0.290594
0.289281
0.287975
0.286676
0.285385
0.284101
0.282826
0.281559
0.280303
0.279058
0.277824
0.276604
0.307374
0.305901
0.304446
0.30301
0.301591
0.300189