/*--------------------------------*- C++ -*----------------------------------*\
  =========                 |
  \\      /  F ield         | OpenFOAM: The Open Source CFD Toolbox
   \\    /   O peration     | Website:  https://openfoam.org
    \\  /    A nd           | Version:  13
     \\/     M anipulation  |
\*---------------------------------------------------------------------------*/
FoamFile
{
    format      ascii;
    class       volScalarField;
    location    "200";
    object      nut;
}
// * * * * * * * * * * * * * * * * * * * * * * * * * * * * * * * * * * * * * //

dimensions      [0 2 -1 0 0 0 0];

internalField   nonuniform List<scalar> 
171745
(
0.0187244
0.018711
0.0186977
0.0186845
0.0186715
0.0186585
0.0186457
0.0186328
0.0186201
0.0186073
0.0185945
0.0185816
0.0185687
0.0185557
0.0185427
0.0185295
0.0185163
0.018503
0.0184897
0.0184763
0.018463
0.0184498
0.0184367
0.0184237
0.0187255
0.018712
0.0186988
0.0186856
0.0186726
0.0186596
0.0186468
0.018634
0.0186213
0.0186085
0.0185958
0.018583
0.0185701
0.0185572
0.0185442
0.0185311
0.0185179
0.0185046
0.0184914
0.0184781
0.0184649
0.0184517
0.0184387
0.0184258
0.0187276
0.0187142
0.0187009
0.0186878
0.0186748
0.0186619
0.0186491
0.0186364
0.0186237
0.018611
0.0185984
0.0185857
0.0185729
0.0185601
0.0185472
0.0185342
0.0185212
0.0185081
0.0184949
0.0184818
0.0184687
0.0184557
0.0184428
0.01843
0.018731
0.0187176
0.0187043
0.0186912
0.0186783
0.0186654
0.0186527
0.0186401
0.0186275
0.018615
0.0186025
0.01859
0.0185774
0.0185647
0.018552
0.0185392
0.0185264
0.0185135
0.0185005
0.0184876
0.0184747
0.0184619
0.0184492
0.0184367
0.018736
0.0187226
0.0187094
0.0186963
0.0186834
0.0186707
0.0186581
0.0186456
0.0186332
0.0186209
0.0186086
0.0185962
0.0185839
0.0185715
0.018559
0.0185465
0.0185339
0.0185213
0.0185087
0.018496
0.0184834
0.0184709
0.0184585
0.0184463
0.0187431
0.0187297
0.0187165
0.0187035
0.0186907
0.0186781
0.0186656
0.0186534
0.0186412
0.0186291
0.0186171
0.018605
0.018593
0.0185809
0.0185688
0.0185567
0.0185445
0.0185322
0.0185199
0.0185077
0.0184954
0.0184833
0.0184713
0.0184594
0.0187529
0.0187395
0.0187263
0.0187135
0.0187008
0.0186884
0.0186762
0.0186641
0.0186523
0.0186405
0.0186288
0.0186172
0.0186056
0.0185939
0.0185823
0.0185706
0.0185589
0.0185471
0.0185353
0.0185235
0.0185118
0.0185001
0.0184886
0.0184772
0.0187665
0.0187532
0.0187401
0.0187274
0.018715
0.0187028
0.0186909
0.0186792
0.0186677
0.0186563
0.0186451
0.018634
0.0186229
0.0186119
0.0186008
0.0185897
0.0185786
0.0185674
0.0185562
0.018545
0.0185339
0.0185229
0.018512
0.0185012
0.0187855
0.0187723
0.0187595
0.018747
0.0187349
0.018723
0.0187115
0.0187003
0.0186893
0.0186785
0.0186679
0.0186574
0.0186471
0.0186367
0.0186264
0.0186161
0.0186057
0.0185953
0.0185849
0.0185745
0.0185642
0.0185539
0.0185437
0.0185337
0.0188124
0.0187995
0.018787
0.0187748
0.0187631
0.0187517
0.0187408
0.0187302
0.0187198
0.0187098
0.0187
0.0186904
0.018681
0.0186716
0.0186622
0.0186529
0.0186435
0.0186341
0.0186247
0.0186152
0.0186058
0.0185964
0.0185871
0.0185779
0.0188507
0.0188382
0.0188261
0.0188145
0.0188034
0.0187927
0.0187825
0.0187727
0.0187633
0.0187543
0.0187456
0.0187371
0.0187288
0.0187207
0.0187126
0.0187046
0.0186965
0.0186883
0.01868
0.0186717
0.0186634
0.0186551
0.0186468
0.0186385
0.0189053
0.0188934
0.018882
0.0188711
0.0188608
0.018851
0.0188418
0.0188331
0.0188249
0.0188171
0.0188098
0.0188029
0.0187962
0.0187897
0.0187832
0.0187768
0.0187703
0.0187637
0.0187569
0.01875
0.0187429
0.0187358
0.0187287
0.0187214
0.0189824
0.0189712
0.0189606
0.0189506
0.0189413
0.0189325
0.0189245
0.0189171
0.0189103
0.0189042
0.0188986
0.0188935
0.0188888
0.0188843
0.01888
0.0188756
0.0188711
0.0188664
0.0188614
0.0188561
0.0188506
0.0188448
0.0188388
0.0188326
0.0190872
0.0190766
0.0190667
0.0190574
0.0190489
0.0190411
0.0190341
0.0190279
0.0190226
0.0190181
0.0190144
0.0190114
0.0190089
0.0190069
0.019005
0.0190031
0.0190011
0.0189987
0.0189959
0.0189925
0.0189888
0.0189845
0.0189797
0.0189744
0.0192168
0.0192061
0.019196
0.0191867
0.0191781
0.0191704
0.0191637
0.019158
0.0191535
0.0191501
0.0191479
0.0191467
0.0191464
0.0191468
0.0191475
0.0191484
0.0191492
0.0191496
0.0191496
0.0191488
0.0191473
0.0191448
0.0191415
0.0191372
0.0193454
0.0193328
0.0193209
0.0193097
0.0192993
0.0192899
0.0192816
0.0192746
0.0192691
0.0192652
0.0192629
0.0192622
0.0192628
0.0192644
0.0192665
0.0192689
0.0192713
0.0192737
0.0192761
0.0192784
0.0192796
0.0192794
0.0192778
0.0192745
0.0194063
0.0193898
0.0193738
0.0193583
0.0193434
0.0193293
0.0193164
0.0193047
0.0192943
0.0192854
0.0192777
0.019271
0.0192645
0.0192577
0.0192501
0.019242
0.0192339
0.0192269
0.0192222
0.0192209
0.019223
0.0192236
0.0192224
0.0192194
0.0192917
0.0192688
0.0192455
0.0192216
0.0191971
0.0191717
0.0191453
0.0191172
0.0190867
0.0190525
0.0190124
0.018964
0.0189055
0.0188363
0.0187581
0.018675
0.0185923
0.0185161
0.0184526
0.0184073
0.0183848
0.0183814
0.018379
0.0183777
0.0188534
0.0188154
0.018773
0.0187249
0.0186693
0.0186039
0.0185255
0.0184295
0.0183104
0.0181611
0.0179741
0.0167935
0.0159274
0.0154899
0.0153914
0.0155041
0.0157243
0.0159455
0.0157249
0.015556
0.0154464
0.0154064
0.0154227
0.0154496
0.0154864
0.01781
0.0177111
0.0175898
0.0174415
0.0172606
0.0170402
0.0167725
0.0164483
0.0156263
0.0140266
0.0127856
0.0119037
0.0113603
0.0111098
0.0110781
0.0111429
0.0112209
0.0112319
0.010923
0.01068
0.0105042
0.010397
0.010367
0.0104255
0.0105036
0.0153598
0.015023
0.0146401
0.0142132
0.0137441
0.0132337
0.0123536
0.0111607
0.0100958
0.00920631
0.00851746
0.00803478
0.00774753
0.00762788
0.00761208
0.00750175
0.00719807
0.00694622
0.00673779
0.00656757
0.00643252
0.00633402
0.00627234
0.00624633
0.0062771
0.0101019
0.00958495
0.00909009
0.00861969
0.00817318
0.00774805
0.00734089
0.00694872
0.00650116
0.00608403
0.00575233
0.00551871
0.00528488
0.00506406
0.00489136
0.00475977
0.00465739
0.0045711
0.0044904
0.00441073
0.00432807
0.00425968
0.00421294
0.00418792
0.00418235
0.0048828
0.00467037
0.00448371
0.00431968
0.00417535
0.00404822
0.00393641
0.00383872
0.00375516
0.00368796
0.00364291
0.00362778
0.00364212
0.00366919
0.00371672
0.00377356
0.00381443
0.00380968
0.003748
0.00364721
0.00350638
0.00345326
0.00346126
0.00350913
0.00358281
0.00274949
0.00273928
0.00274046
0.00275319
0.00277681
0.00281172
0.0028588
0.00291709
0.00298995
0.00308431
0.00321391
0.00338691
0.00357464
0.00360477
0.00375053
0.00392672
0.0040396
0.00393375
0.00362405
0.0033072
0.00291007
0.00311936
0.0029978
0.00303289
0.00310046
0.00314884
0.00266118
0.00276421
0.00287166
0.00298263
0.00309638
0.00321346
0.00333553
0.00347003
0.00363071
0.00384944
0.00410633
0.00415283
0.00436572
0.00456007
0.00440459
0.0038839
0.00285251
0.0024372
0.00240824
0.00266729
0.00291571
0.00362123
0.00418877
0.00499679
0.00625507
0.00351111
0.00365901
0.00380809
0.00395838
0.00411013
0.0042657
0.00443516
0.00464115
0.00491462
0.00495212
0.00402334
0.00443815
0.00461616
0.00405315
0.0018568
0.00166061
0.00134706
0.00254257
0.00505891
0.00785368
0.00973858
0.00996688
0.0103006
0.0111031
0.00458573
0.00477854
0.0049665
0.00515044
0.00532951
0.00550515
0.00568258
0.00587793
0.00481394
0.00532878
0.00287245
0.00319909
0.00189148
0.00174663
0.000648533
0.000964301
0.00182699
0.00625298
0.00791946
0.00918995
0.00889869
0.0088403
0.00907775
0.0093702
0.00624021
0.00641692
0.00658722
0.00665226
0.00633964
0.00581265
0.00502487
0.00406803
0.00620009
0.00292991
0.00363336
0.00133627
0.000320294
0.00254457
0.00802482
0.00736578
0.00701979
0.00693957
0.00733826
0.00771439
0.00577376
0.00709047
0.0066582
0.00651252
0.00666956
0.00694184
0.00705076
0.00207946
0.00278658
0.00342946
0.0041493
0.00528965
0.00350658
0.00331888
0.00336235
0.00343307
0.00598344
0.00566405
0.00537556
0.00512819
0.00492505
0.0047687
0.00465221
0.00456451
0.00449445
0.00443327
0.00437634
0.00431649
0.00426581
0.00423102
0.00421291
0.00421055
0.00423261
0.0090934
0.00843282
0.00797833
0.00772712
0.00766119
0.00764717
0.00730795
0.00703113
0.00680606
0.00662457
0.00648132
0.00637261
0.00629843
0.00625812
0.0062621
0.00631775
0.00640031
0.00650022
0.0138715
0.0126792
0.0118436
0.0113553
0.011183
0.0112677
0.0114851
0.0113827
0.0110446
0.010774
0.0105702
0.0104331
0.0103627
0.0103799
0.0104476
0.010534
0.010637
0.0107546
0.0180116
0.0178043
0.0166636
0.0158668
0.015522
0.0155587
0.0158615
0.0160176
0.0157754
0.0155815
0.0154433
0.0153661
0.0153659
0.015386
0.0154167
0.0154569
0.0155052
0.0155605
0.0190019
0.0189549
0.018899
0.0188326
0.0187561
0.0186722
0.0185857
0.0185028
0.0184299
0.0183728
0.0183364
0.0183263
0.0183225
0.0183202
0.0183194
0.0183198
0.0183214
0.0183243
0.0192692
0.0192602
0.0192519
0.0192438
0.0192352
0.019226
0.0192164
0.0192073
0.0191999
0.0191953
0.0191947
0.0191954
0.0191946
0.0191923
0.0191883
0.0191828
0.019176
0.0191683
0.0192614
0.019259
0.0192583
0.0192589
0.0192604
0.0192623
0.0192645
0.0192667
0.0192688
0.0192709
0.0192726
0.019273
0.019272
0.0192695
0.0192654
0.01926
0.0192532
0.0192454
0.0191512
0.0191491
0.0191481
0.0191481
0.0191486
0.0191495
0.0191505
0.0191513
0.0191516
0.0191515
0.0191505
0.0191486
0.0191458
0.019142
0.0191372
0.0191314
0.0191247
0.0191174
0.0190209
0.0190174
0.0190146
0.0190124
0.0190105
0.0190088
0.0190071
0.0190051
0.0190028
0.0189999
0.0189965
0.0189926
0.0189882
0.0189832
0.0189777
0.0189716
0.0189651
0.0189581
0.0189075
0.0189021
0.0188972
0.0188926
0.0188884
0.0188842
0.0188799
0.0188755
0.0188708
0.0188658
0.0188606
0.018855
0.0188492
0.0188431
0.0188368
0.0188302
0.0188234
0.0188164
0.0188205
0.0188133
0.0188065
0.0188
0.0187936
0.0187873
0.018781
0.0187745
0.018768
0.0187612
0.0187543
0.0187473
0.0187402
0.018733
0.0187257
0.0187184
0.018711
0.0187037
0.0187576
0.018749
0.0187406
0.0187325
0.0187245
0.0187165
0.0187085
0.0187004
0.0186923
0.018684
0.0186758
0.0186675
0.0186592
0.0186509
0.0186426
0.0186344
0.0186263
0.0186183
0.018713
0.0187034
0.0186938
0.0186845
0.0186751
0.0186659
0.0186566
0.0186472
0.0186379
0.0186284
0.018619
0.0186096
0.0186002
0.0185909
0.0185817
0.0185726
0.0185637
0.018555
0.0186816
0.0186711
0.0186607
0.0186504
0.0186401
0.0186298
0.0186195
0.0186092
0.0185988
0.0185884
0.018578
0.0185677
0.0185574
0.0185472
0.0185372
0.0185273
0.0185176
0.0185081
0.0186594
0.0186482
0.0186371
0.0186261
0.0186151
0.018604
0.0185929
0.0185818
0.0185706
0.0185595
0.0185483
0.0185372
0.0185262
0.0185152
0.0185045
0.0184939
0.0184835
0.0184734
0.0186434
0.0186318
0.0186202
0.0186086
0.018597
0.0185853
0.0185736
0.0185619
0.0185501
0.0185383
0.0185265
0.0185148
0.0185031
0.0184916
0.0184803
0.0184691
0.0184581
0.0184474
0.0186319
0.0186199
0.0186079
0.0185959
0.0185838
0.0185717
0.0185595
0.0185473
0.018535
0.0185228
0.0185105
0.0184983
0.0184861
0.0184741
0.0184622
0.0184506
0.0184391
0.0184279
0.0186235
0.0186113
0.018599
0.0185866
0.0185742
0.0185618
0.0185492
0.0185366
0.018524
0.0185113
0.0184987
0.018486
0.0184735
0.0184611
0.0184488
0.0184368
0.018425
0.0184134
0.0186176
0.0186051
0.0185926
0.01858
0.0185673
0.0185546
0.0185418
0.0185289
0.018516
0.018503
0.0184901
0.0184772
0.0184643
0.0184516
0.0184391
0.0184267
0.0184146
0.0184027
0.0186135
0.0186009
0.0185882
0.0185754
0.0185626
0.0185496
0.0185366
0.0185236
0.0185104
0.0184973
0.0184841
0.018471
0.018458
0.018445
0.0184323
0.0184197
0.0184074
0.0183953
0.0186109
0.0185982
0.0185854
0.0185725
0.0185595
0.0185465
0.0185334
0.0185202
0.0185069
0.0184936
0.0184803
0.0184671
0.0184539
0.0184408
0.0184279
0.0184152
0.0184028
0.0183905
0.0186097
0.0185969
0.018584
0.0185711
0.0185581
0.018545
0.0185318
0.0185185
0.0185052
0.0184918
0.0184785
0.0184652
0.0184519
0.0184388
0.0184259
0.0184131
0.0184005
0.0183883
0.0187245
0.0187111
0.0186978
0.0186847
0.0186717
0.0186587
0.0186459
0.0186331
0.0186203
0.0186075
0.0185947
0.0185819
0.018569
0.018556
0.0185429
0.0185297
0.0185165
0.0185032
0.0184899
0.0184765
0.0184632
0.01845
0.0184368
0.0184238
0.0187256
0.0187122
0.018699
0.0186858
0.0186728
0.0186599
0.0186471
0.0186343
0.0186216
0.0186088
0.0185961
0.0185833
0.0185704
0.0185575
0.0185445
0.0185313
0.0185182
0.0185049
0.0184916
0.0184784
0.0184651
0.0184519
0.0184389
0.0184259
0.0187279
0.0187145
0.0187012
0.0186881
0.0186751
0.0186623
0.0186495
0.0186368
0.0186241
0.0186115
0.0185988
0.0185861
0.0185734
0.0185605
0.0185476
0.0185347
0.0185216
0.0185085
0.0184954
0.0184822
0.0184691
0.0184561
0.0184431
0.0184304
0.0187315
0.0187181
0.0187048
0.0186917
0.0186788
0.018666
0.0186533
0.0186407
0.0186282
0.0186157
0.0186032
0.0185907
0.0185781
0.0185655
0.0185527
0.01854
0.0185271
0.0185142
0.0185013
0.0184884
0.0184755
0.0184627
0.01845
0.0184374
0.0187367
0.0187233
0.0187101
0.0186971
0.0186843
0.0186716
0.018659
0.0186466
0.0186342
0.0186219
0.0186096
0.0185973
0.018585
0.0185726
0.0185602
0.0185477
0.0185351
0.0185225
0.0185099
0.0184973
0.0184847
0.0184722
0.0184598
0.0184475
0.0187441
0.0187307
0.0187175
0.0187046
0.0186919
0.0186793
0.0186669
0.0186547
0.0186426
0.0186305
0.0186185
0.0186065
0.0185945
0.0185825
0.0185705
0.0185583
0.0185462
0.0185339
0.0185217
0.0185094
0.0184973
0.0184851
0.0184731
0.0184613
0.0187541
0.0187408
0.0187277
0.0187149
0.0187023
0.0186899
0.0186778
0.0186658
0.018654
0.0186423
0.0186307
0.0186191
0.0186075
0.0185959
0.0185843
0.0185727
0.018561
0.0185493
0.0185375
0.0185258
0.0185141
0.0185025
0.018491
0.0184797
0.0187678
0.0187545
0.0187416
0.0187289
0.0187166
0.0187045
0.0186926
0.018681
0.0186696
0.0186583
0.0186472
0.0186361
0.0186251
0.0186141
0.0186031
0.0185921
0.018581
0.0185699
0.0185588
0.0185477
0.0185367
0.0185257
0.0185148
0.0185041
0.0187868
0.0187737
0.018761
0.0187486
0.0187365
0.0187248
0.0187133
0.0187022
0.0186913
0.0186806
0.0186701
0.0186597
0.0186494
0.0186391
0.0186289
0.0186187
0.0186084
0.0185981
0.0185878
0.0185774
0.0185672
0.018557
0.0185469
0.018537
0.0188135
0.0188007
0.0187883
0.0187763
0.0187647
0.0187534
0.0187426
0.018732
0.0187218
0.0187119
0.0187022
0.0186927
0.0186833
0.0186741
0.0186648
0.0186556
0.0186463
0.018637
0.0186277
0.0186183
0.018609
0.0185998
0.0185906
0.0185816
0.0188516
0.0188392
0.0188273
0.0188158
0.0188048
0.0187943
0.0187842
0.0187745
0.0187652
0.0187563
0.0187477
0.0187394
0.0187312
0.0187232
0.0187153
0.0187073
0.0186994
0.0186913
0.0186832
0.0186751
0.018667
0.0186589
0.0186508
0.0186428
0.0189059
0.0188942
0.018883
0.0188723
0.0188621
0.0188525
0.0188434
0.0188349
0.0188268
0.0188193
0.0188121
0.0188053
0.0187987
0.0187924
0.0187861
0.0187798
0.0187735
0.0187671
0.0187605
0.0187538
0.0187471
0.0187403
0.0187335
0.0187266
0.0189829
0.018972
0.0189617
0.0189519
0.0189428
0.0189343
0.0189265
0.0189193
0.0189127
0.0189068
0.0189014
0.0188965
0.0188919
0.0188876
0.0188835
0.0188793
0.0188751
0.0188706
0.018866
0.0188611
0.018856
0.0188507
0.0188452
0.0188396
0.0190882
0.019078
0.0190685
0.0190596
0.0190515
0.019044
0.0190374
0.0190315
0.0190265
0.0190223
0.0190189
0.0190161
0.0190139
0.019012
0.0190104
0.0190088
0.0190071
0.0190051
0.0190027
0.019
0.0189969
0.0189934
0.0189895
0.0189851
0.0192201
0.0192101
0.0192007
0.019192
0.0191841
0.0191771
0.019171
0.0191659
0.0191618
0.0191589
0.0191571
0.0191563
0.0191563
0.019157
0.0191581
0.0191594
0.0191606
0.0191616
0.0191622
0.0191623
0.0191618
0.0191606
0.0191587
0.0191559
0.0193553
0.019344
0.0193334
0.0193234
0.0193143
0.019306
0.0192989
0.0192929
0.0192883
0.0192853
0.0192838
0.0192838
0.0192852
0.0192877
0.019291
0.0192947
0.0192987
0.0193029
0.0193072
0.0193113
0.0193145
0.0193167
0.0193176
0.0193172
0.0194313
0.0194172
0.0194035
0.0193903
0.0193777
0.0193659
0.0193551
0.0193455
0.0193373
0.0193307
0.019326
0.0193229
0.0193211
0.0193204
0.0193203
0.0193209
0.0193223
0.0193251
0.0193298
0.0193368
0.0193439
0.0193497
0.0193538
0.019356
0.019342
0.0193235
0.0193046
0.0192853
0.0192657
0.0192459
0.0192257
0.0192053
0.0191845
0.0191629
0.0191399
0.0191147
0.0190861
0.0190539
0.0190187
0.0189824
0.018948
0.0189188
0.0188985
0.0188901
0.0188934
0.0188969
0.0189003
0.0189031
0.018931
0.0189039
0.018874
0.0188409
0.0188038
0.0187618
0.0187136
0.018657
0.0185892
0.0185064
0.0184042
0.0181782
0.0172193
0.0166742
0.0164741
0.0165034
0.0166423
0.0168142
0.0170081
0.0170529
0.0170196
0.0170103
0.017009
0.0170153
0.0170286
0.0179295
0.0178785
0.0178162
0.0177401
0.0176471
0.0175327
0.0173909
0.0172143
0.0169928
0.015823
0.0145401
0.0135679
0.0129358
0.0126362
0.0126122
0.0127556
0.012952
0.0131364
0.0132061
0.0130253
0.0129167
0.0128955
0.0128952
0.0129167
0.0129586
0.0158332
0.0156874
0.0155096
0.0152967
0.0150443
0.0147469
0.0141473
0.0130413
0.0119639
0.0109916
0.0101875
0.0095895
0.0092401
0.00908134
0.00906605
0.00912785
0.00914564
0.00885784
0.00862558
0.00844856
0.008327
0.00826148
0.00826346
0.00828979
0.00834018
0.0115535
0.0112392
0.0109064
0.0105586
0.0101963
0.00963159
0.00896603
0.00828407
0.00763252
0.00705752
0.0065979
0.00643075
0.00639463
0.00639592
0.0062222
0.00601495
0.00584067
0.00569042
0.00556106
0.00545411
0.00537142
0.00531386
0.00528905
0.00530706
0.00534473
0.00586715
0.00570953
0.00556041
0.00542025
0.00528856
0.00516429
0.00504501
0.00492909
0.00474038
0.00445464
0.00426239
0.00428103
0.00407754
0.00439498
0.0045234
0.00447809
0.00440735
0.00431603
0.00421257
0.0041104
0.00401778
0.00393283
0.0039027
0.00391379
0.00396083
0.00311415
0.00312578
0.00314541
0.00317346
0.00321062
0.00325833
0.00331939
0.00339814
0.00350302
0.00364934
0.00376788
0.00359495
0.00409727
0.00409936
0.00429405
0.00415787
0.00393113
0.00367849
0.00341888
0.00318039
0.00300539
0.00278194
0.00302587
0.00330057
0.00345977
0.00335875
0.00286787
0.00300068
0.00313916
0.00328284
0.00343328
0.00359488
0.0037722
0.00398137
0.00425141
0.00438849
0.00462792
0.00353572
0.0046665
0.00389374
0.00287682
0.00269117
0.00234329
0.00190406
0.00192736
0.00223446
0.0029607
0.00454163
0.00526204
0.00569544
0.00609656
0.00405422
0.00426353
0.00446098
0.00464928
0.00483326
0.0050223
0.00524044
0.00518681
0.00550361
0.00396551
0.0034437
0.00400852
0.00163704
0.00139919
0.000635194
0.00046184
0.000914844
0.000995189
0.00222966
0.00526106
0.00589075
0.0107889
0.00771031
0.008711
0.0050409
0.00518048
0.00528755
0.00534566
0.00532948
0.00520729
0.00483948
0.00400489
0.00588967
0.0029515
0.00366123
0.00116831
0.00161207
0.00813074
0.00871083
0.00931209
0.009121
0.00980314
0.00577221
0.00587173
0.00589186
0.00580058
0.00556443
0.00508915
0.00424818
0.00490428
0.0030034
0.00293224
0.000413395
0.000263691
0.00586221
0.00469967
0.00543281
0.00599111
0.00649866
0.000175726
0.00226266
0.00517131
0.00479369
0.00542051
0.00604302
0.00623759
0.00261107
0.00329311
0.00463625
0.00548512
0.00631352
0.0044641
0.00455938
0.00424501
0.00422526
0.00685485
0.00646021
0.00629454
0.00623535
0.00623665
0.00601481
0.00583658
0.00568989
0.00556709
0.0054653
0.00538654
0.00533103
0.0052977
0.00530377
0.00533301
0.00537915
0.00544164
0.0107831
0.00999931
0.00943041
0.00912996
0.00904607
0.00913191
0.00918068
0.00887286
0.0086251
0.00843321
0.00829604
0.00821297
0.00819767
0.00821611
0.00825805
0.00832241
0.00840698
0.00850984
0.0155926
0.0143451
0.0134139
0.0128371
0.0126204
0.0127155
0.013016
0.0133809
0.0131906
0.0129824
0.0128443
0.0127837
0.0127774
0.012793
0.0128295
0.0128842
0.0129551
0.0130395
0.0183851
0.0182663
0.0179498
0.0170471
0.0165814
0.0164935
0.0166735
0.0169926
0.0170779
0.0169757
0.0169162
0.0169022
0.0168974
0.0169014
0.0169132
0.0169317
0.0169558
0.0169849
0.0191181
0.0190906
0.0190602
0.0190263
0.0189887
0.018949
0.0189095
0.0188737
0.0188452
0.0188276
0.018824
0.0188265
0.0188297
0.0188331
0.0188362
0.018839
0.0188414
0.0188435
0.0193143
0.0193087
0.0193047
0.019302
0.0193003
0.0192993
0.0192991
0.0192999
0.0193023
0.019307
0.0193138
0.0193197
0.0193243
0.0193273
0.0193286
0.0193281
0.019326
0.0193226
0.0192806
0.0192791
0.0192792
0.0192806
0.0192832
0.0192865
0.0192903
0.0192943
0.0192984
0.0193025
0.0193061
0.0193088
0.0193104
0.0193107
0.0193096
0.0193071
0.0193034
0.0192985
0.0191593
0.0191576
0.019157
0.0191573
0.0191582
0.0191595
0.0191609
0.0191622
0.0191632
0.0191638
0.0191638
0.0191631
0.0191617
0.0191594
0.0191562
0.0191522
0.0191474
0.0191419
0.0190247
0.0190214
0.0190189
0.0190168
0.0190152
0.0190138
0.0190123
0.0190107
0.0190087
0.0190064
0.0190036
0.0190005
0.0189969
0.0189929
0.0189883
0.0189833
0.0189778
0.0189719
0.0189097
0.0189045
0.0188998
0.0188954
0.0188913
0.0188873
0.0188833
0.0188792
0.0188748
0.0188701
0.0188653
0.0188602
0.0188549
0.0188494
0.0188437
0.0188377
0.0188316
0.0188253
0.0188224
0.0188154
0.0188087
0.0188023
0.0187961
0.0187899
0.0187838
0.0187775
0.0187712
0.0187646
0.018758
0.0187513
0.0187446
0.0187377
0.0187308
0.0187239
0.0187169
0.0187099
0.0187595
0.018751
0.0187428
0.0187347
0.0187268
0.018719
0.0187111
0.0187032
0.0186952
0.0186871
0.0186791
0.018671
0.0186629
0.0186548
0.0186468
0.0186388
0.018631
0.0186232
0.018715
0.0187054
0.018696
0.0186867
0.0186775
0.0186683
0.0186591
0.0186499
0.0186407
0.0186313
0.018622
0.0186128
0.0186035
0.0185944
0.0185854
0.0185764
0.0185677
0.0185591
0.0186837
0.0186732
0.0186629
0.0186527
0.0186425
0.0186323
0.018622
0.0186118
0.0186015
0.0185912
0.0185809
0.0185706
0.0185605
0.0185504
0.0185405
0.0185307
0.0185211
0.0185117
0.0186613
0.0186502
0.0186392
0.0186282
0.0186173
0.0186063
0.0185953
0.0185842
0.0185731
0.018562
0.0185509
0.0185399
0.0185289
0.0185181
0.0185074
0.0184969
0.0184865
0.0184764
0.0186451
0.0186336
0.018622
0.0186105
0.0185989
0.0185874
0.0185757
0.018564
0.0185523
0.0185405
0.0185288
0.0185171
0.0185055
0.018494
0.0184827
0.0184715
0.0184606
0.0184499
0.0186333
0.0186213
0.0186094
0.0185974
0.0185854
0.0185733
0.0185612
0.018549
0.0185368
0.0185245
0.0185123
0.0185001
0.0184879
0.0184759
0.0184641
0.0184524
0.018441
0.0184298
0.0186245
0.0186123
0.0186
0.0185877
0.0185753
0.0185629
0.0185504
0.0185378
0.0185252
0.0185125
0.0184999
0.0184873
0.0184748
0.0184624
0.0184501
0.0184381
0.0184262
0.0184146
0.0186182
0.0186058
0.0185933
0.0185807
0.0185681
0.0185553
0.0185425
0.0185297
0.0185168
0.0185038
0.0184909
0.0184779
0.0184651
0.0184524
0.0184398
0.0184275
0.0184153
0.0184034
0.0186139
0.0186013
0.0185886
0.0185758
0.018563
0.0185501
0.0185371
0.018524
0.0185109
0.0184977
0.0184846
0.0184714
0.0184584
0.0184454
0.0184327
0.0184201
0.0184077
0.0183956
0.0186112
0.0185985
0.0185857
0.0185728
0.0185598
0.0185468
0.0185337
0.0185205
0.0185072
0.0184939
0.0184806
0.0184673
0.0184541
0.018441
0.0184281
0.0184154
0.0184029
0.0183906
0.0186099
0.0185971
0.0185842
0.0185713
0.0185583
0.0185452
0.018532
0.0185187
0.0185054
0.018492
0.0184787
0.0184653
0.0184521
0.018439
0.018426
0.0184132
0.0184006
0.0183883
0.0187247
0.0187113
0.0186981
0.018685
0.018672
0.0186591
0.0186462
0.0186335
0.0186207
0.018608
0.0185952
0.0185823
0.0185694
0.0185565
0.0185434
0.0185302
0.018517
0.0185037
0.0184903
0.0184769
0.0184636
0.0184504
0.0184372
0.0184242
0.0187259
0.0187125
0.0186993
0.0186862
0.0186732
0.0186604
0.0186476
0.0186348
0.0186221
0.0186094
0.0185967
0.0185839
0.018571
0.0185581
0.0185451
0.018532
0.0185188
0.0185056
0.0184923
0.018479
0.0184657
0.0184525
0.0184394
0.0184265
0.0187284
0.0187151
0.0187019
0.0186888
0.0186759
0.018663
0.0186503
0.0186377
0.018625
0.0186124
0.0185998
0.0185871
0.0185744
0.0185616
0.0185487
0.0185358
0.0185227
0.0185096
0.0184965
0.0184833
0.0184702
0.0184572
0.0184443
0.0184315
0.0187326
0.0187193
0.0187061
0.0186931
0.0186802
0.0186675
0.0186549
0.0186423
0.0186299
0.0186174
0.0186049
0.0185925
0.0185799
0.0185674
0.0185547
0.018542
0.0185291
0.0185163
0.0185034
0.0184905
0.0184776
0.0184648
0.0184521
0.0184396
0.0187388
0.0187255
0.0187124
0.0186994
0.0186867
0.0186741
0.0186616
0.0186493
0.018637
0.0186248
0.0186126
0.0186003
0.0185881
0.0185758
0.0185634
0.018551
0.0185385
0.018526
0.0185134
0.0185008
0.0184883
0.0184758
0.0184634
0.0184512
0.0187472
0.0187339
0.0187209
0.0187081
0.0186955
0.0186831
0.0186708
0.0186587
0.0186467
0.0186348
0.0186229
0.018611
0.0185991
0.0185872
0.0185753
0.0185632
0.0185512
0.018539
0.0185269
0.0185147
0.0185026
0.0184906
0.0184787
0.0184669
0.0187581
0.0187449
0.018732
0.0187194
0.018707
0.0186948
0.0186828
0.018671
0.0186593
0.0186478
0.0186363
0.0186249
0.0186134
0.018602
0.0185906
0.0185791
0.0185675
0.0185559
0.0185443
0.0185327
0.0185212
0.0185097
0.0184983
0.0184871
0.0187723
0.0187593
0.0187465
0.0187341
0.0187219
0.01871
0.0186984
0.018687
0.0186757
0.0186647
0.0186537
0.0186428
0.018632
0.0186212
0.0186104
0.0185995
0.0185887
0.0185777
0.0185668
0.0185559
0.018545
0.0185342
0.0185236
0.0185131
0.0187915
0.0187786
0.0187661
0.018754
0.0187421
0.0187307
0.0187195
0.0187085
0.0186979
0.0186874
0.0186771
0.018667
0.0186569
0.0186468
0.0186368
0.0186268
0.0186168
0.0186067
0.0185966
0.0185865
0.0185765
0.0185666
0.0185567
0.018547
0.0188181
0.0188056
0.0187934
0.0187817
0.0187703
0.0187594
0.0187488
0.0187385
0.0187286
0.0187189
0.0187095
0.0187003
0.0186912
0.0186821
0.0186732
0.0186642
0.0186552
0.0186462
0.0186371
0.0186281
0.0186191
0.0186102
0.0186014
0.0185927
0.0188558
0.0188438
0.0188322
0.018821
0.0188104
0.0188002
0.0187904
0.018781
0.0187721
0.0187635
0.0187552
0.0187472
0.0187393
0.0187316
0.018724
0.0187164
0.0187087
0.0187011
0.0186933
0.0186856
0.0186779
0.0186702
0.0186626
0.0186551
0.0189097
0.0188984
0.0188876
0.0188773
0.0188676
0.0188584
0.0188497
0.0188415
0.0188339
0.0188267
0.0188199
0.0188134
0.0188073
0.0188013
0.0187954
0.0187895
0.0187836
0.0187776
0.0187715
0.0187654
0.0187593
0.0187531
0.0187469
0.0187408
0.0189864
0.0189761
0.0189663
0.0189571
0.0189485
0.0189406
0.0189333
0.0189266
0.0189205
0.0189151
0.0189102
0.0189057
0.0189017
0.0188979
0.0188942
0.0188905
0.0188868
0.018883
0.0188789
0.0188748
0.0188706
0.0188662
0.0188617
0.0188571
0.0190924
0.019083
0.0190743
0.0190663
0.0190589
0.0190523
0.0190464
0.0190413
0.019037
0.0190335
0.0190307
0.0190286
0.019027
0.0190258
0.0190248
0.0190238
0.0190228
0.0190216
0.0190202
0.0190185
0.0190167
0.0190145
0.0190121
0.0190093
0.0192278
0.0192191
0.019211
0.0192037
0.0191971
0.0191914
0.0191865
0.0191826
0.0191797
0.0191779
0.0191771
0.0191772
0.0191782
0.0191798
0.0191818
0.019184
0.0191862
0.0191883
0.0191902
0.0191919
0.0191932
0.0191941
0.0191944
0.019194
0.019374
0.019365
0.0193567
0.0193491
0.0193422
0.0193362
0.0193312
0.0193273
0.0193246
0.0193233
0.0193235
0.0193251
0.019328
0.019332
0.0193368
0.0193422
0.0193481
0.0193544
0.0193609
0.0193673
0.0193734
0.0193788
0.0193833
0.0193867
0.0194763
0.0194662
0.0194565
0.0194473
0.0194386
0.0194306
0.0194235
0.0194173
0.0194125
0.0194092
0.0194076
0.019408
0.0194102
0.019414
0.0194193
0.0194259
0.019434
0.0194437
0.0194553
0.0194679
0.0194805
0.0194924
0.0195031
0.0195123
0.0194343
0.0194225
0.0194104
0.0193979
0.019385
0.0193719
0.0193586
0.0193454
0.0193325
0.01932
0.0193083
0.0192974
0.0192876
0.019279
0.0192721
0.0192673
0.0192661
0.0192698
0.0192802
0.019296
0.019313
0.0193302
0.0193466
0.0193616
0.0190736
0.0190601
0.0190443
0.0190262
0.0190054
0.0189816
0.0189544
0.018923
0.0188867
0.0188444
0.0187955
0.0187394
0.0186769
0.0183545
0.0179382
0.0177512
0.0176462
0.0174976
0.0172739
0.017027
0.016858
0.0168794
0.0171789
0.0177594
0.0183801
0.0181058
0.0180928
0.0180728
0.0180452
0.0180087
0.0179615
0.0179009
0.0178231
0.0177229
0.0175944
0.0168157
0.0158011
0.0149825
0.0144579
0.0142595
0.0143117
0.0144428
0.0144941
0.0143998
0.0141735
0.0139248
0.0138366
0.0140288
0.0145037
0.015166
0.0160531
0.0160461
0.0160243
0.0159817
0.0159153
0.01582
0.0155342
0.0148367
0.0140825
0.0133194
0.0126028
0.011981
0.011455
0.0111027
0.0110252
0.0112027
0.0114632
0.0116518
0.0116234
0.0114663
0.0111014
0.0108685
0.0109439
0.0112713
0.0113608
0.0116159
0.0116831
0.0116762
0.0115894
0.0114215
0.0111698
0.010824
0.0103737
0.00986438
0.00936514
0.00894537
0.00860937
0.0083963
0.0082301
0.00819294
0.00816526
0.00794461
0.00775908
0.00761121
0.00751045
0.00745171
0.00742306
0.00742145
0.00744678
0.00749744
0.00703322
0.00702019
0.00699349
0.00695439
0.00690952
0.00686454
0.00676132
0.00645108
0.00609951
0.0057955
0.00556498
0.00511659
0.00537556
0.00564444
0.00560167
0.00551601
0.00543555
0.00535423
0.00527876
0.0052243
0.00520836
0.00521446
0.00523174
0.00526358
0.00531441
0.00384091
0.00387552
0.00390949
0.00394375
0.00397853
0.00401271
0.00405046
0.00410643
0.00417485
0.00426737
0.00388856
0.00439859
0.00380997
0.00372311
0.00407283
0.00436333
0.00423715
0.00408619
0.00393038
0.00380442
0.00372651
0.00364542
0.00357149
0.00367594
0.00381818
0.00399589
0.00296314
0.00305443
0.00314945
0.0032486
0.00335288
0.00346446
0.00358792
0.00375061
0.00400042
0.00408037
0.00287967
0.00289359
0.00319007
0.00315198
0.00273167
0.00243782
0.00222735
0.00207678
0.00199452
0.00194474
0.00204255
0.00257272
0.00342848
0.0041917
0.00506721
0.00364138
0.00377874
0.0039152
0.00405763
0.00421254
0.00439219
0.00461201
0.00465171
0.00331786
0.00258494
0.00251622
0.00114487
0.000112567
0.000743256
0.00182991
0.00430828
0.00792606
0.0105927
0.0103468
0.00572175
0.00582001
0.00589791
0.00595505
0.00600534
0.00606815
0.00615074
0.00512388
0.00350799
0.00278856
0.0010845
0.000754613
0.00432092
0.00584614
0.00713711
0.00993607
0.00671074
0.00684736
0.00699529
0.0071641
0.00736751
0.0066882
0.00573778
0.00327597
0.00233173
0.00034985
0.00138705
0.00334733
0.00467897
0.00540817
0.00119042
0.00270705
0.00324027
0.00470322
0.00509763
0.00291318
0.00416554
0.00462198
0.00532745
0.00373524
0.00411479
0.00432863
0.00462045
0.00635812
0.00615789
0.00605262
0.00601918
0.00915236
0.00870569
0.00837498
0.00822059
0.00815351
0.00812545
0.00789222
0.00770393
0.00755293
0.0074412
0.00737532
0.00734272
0.00734063
0.00736499
0.00741276
0.00748181
0.00757047
0.0131241
0.0123943
0.0117781
0.0112954
0.0110241
0.0110546
0.011364
0.0117579
0.0115491
0.0114018
0.0113062
0.0111478
0.0107477
0.0106725
0.0108901
0.0112814
0.0113558
0.011451
0.0174052
0.0165924
0.0155819
0.0147974
0.01434
0.0142408
0.0144216
0.0146928
0.01485
0.0147831
0.0145029
0.014147
0.0139304
0.014011
0.0144
0.0149981
0.015603
0.0156629
0.018761
0.0187043
0.0186399
0.0185692
0.0181288
0.0177922
0.0177138
0.0177317
0.0176978