/*--------------------------------*- C++ -*----------------------------------*\
  =========                 |
  \\      /  F ield         | OpenFOAM: The Open Source CFD Toolbox
   \\    /   O peration     | Website:  https://openfoam.org
    \\  /    A nd           | Version:  13
     \\/     M anipulation  |
\*---------------------------------------------------------------------------*/
FoamFile
{
    format      ascii;
    class       volScalarField;
    location    "200";
    object      omega;
}
// * * * * * * * * * * * * * * * * * * * * * * * * * * * * * * * * * * * * * //

dimensions      [0 0 -1 0 0 0 0];

internalField   nonuniform List<scalar> 
171745
(
16.4023
16.3351
16.2687
16.203
16.138
16.0737
16.0101
15.947
15.8845
15.8226
15.7612
15.7002
15.6396
15.5795
15.5198
15.4604
15.4014
15.3429
15.2847
15.2269
15.1696
15.1128
15.0565
15.0007
16.4031
16.3359
16.2695
16.2038
16.1388
16.0745
16.0109
15.9479
15.8854
15.8235
15.7621
15.7012
15.6407
15.5806
15.5209
15.4616
15.4027
15.3442
15.2861
15.2284
15.1711
15.1144
15.0581
15.0024
16.4048
16.3376
16.2712
16.2055
16.1405
16.0762
16.0126
15.9497
15.8873
15.8254
15.7641
15.7033
15.6429
15.5829
15.5234
15.4642
15.4054
15.347
15.289
15.2314
15.1743
15.1177
15.0615
15.0059
16.4074
16.3402
16.2737
16.208
16.1431
16.0789
16.0153
15.9524
15.8901
15.8284
15.7672
15.7065
15.6463
15.5865
15.5271
15.4681
15.4095
15.3513
15.2935
15.2361
15.1792
15.1228
15.0668
15.0114
16.4114
16.3441
16.2776
16.2119
16.147
16.0829
16.0194
15.9566
15.8945
15.8329
15.7719
15.7114
15.6514
15.5918
15.5327
15.4739
15.4156
15.3576
15.3001
15.243
15.1863
15.1302
15.0745
15.0194
16.4171
16.3498
16.2833
16.2176
16.1528
16.0887
16.0253
15.9627
15.9007
15.8394
15.7786
15.7184
15.6586
15.5994
15.5405
15.4821
15.4241
15.3665
15.3093
15.2526
15.1963
15.1404
15.0851
15.0303
16.4253
16.358
16.2915
16.2258
16.161
16.097
16.0338
15.9714
15.9096
15.8485
15.7881
15.7282
15.6688
15.6099
15.5515
15.4935
15.4359
15.3788
15.322
15.2657
15.2099
15.1545
15.0996
15.0452
16.4371
16.3697
16.3032
16.2376
16.1729
16.109
16.046
15.9838
15.9224
15.8616
15.8015
15.742
15.6831
15.6247
15.5668
15.5093
15.4523
15.3957
15.3395
15.2837
15.2284
15.1736
15.1192
15.0654
16.454
16.3866
16.3201
16.2546
16.19
16.1263
16.0636
16.0016
15.9405
15.8802
15.8206
15.7616
15.7033
15.6455
15.5882
15.5314
15.475
15.4191
15.3635
15.3084
15.2537
15.1995
15.1458
15.0926
16.4784
16.4109
16.3445
16.2791
16.2147
16.1513
16.0888
16.0273
15.9666
15.9068
15.8478
15.7895
15.7319
15.6749
15.6184
15.5624
15.5068
15.4516
15.3969
15.3425
15.2886
15.2352
15.1821
15.1296
16.5135
16.4461
16.3799
16.3146
16.2505
16.1874
16.1253
16.0643
16.0042
15.9451
15.8869
15.8294
15.7727
15.7166
15.6611
15.6061
15.5516
15.4974
15.4436
15.3901
15.3371
15.2844
15.2321
15.1802
16.5645
16.4973
16.4312
16.3663
16.3025
16.2398
16.1783
16.1179
16.0587
16.0004
15.9432
15.8869
15.8314
15.7766
15.7224
15.6686
15.6153
15.5624
15.5096
15.4572
15.4051
15.3533
15.3018
15.2505
16.6388
16.5718
16.506
16.4415
16.3782
16.3162
16.2554
16.196
16.1378
16.0809
16.0251
15.9703
15.9166
15.8635
15.8111
15.7592
15.7076
15.6561
15.6048
15.5536
15.5025
15.4515
15.4007
15.35
16.7476
16.6809
16.6156
16.5516
16.4891
16.428
16.3684
16.3104
16.2539
16.1989
16.1454
16.0932
16.0422
15.992
15.9425
15.8933
15.8442
15.7951
15.7456
15.6959
15.646
15.5958
15.5455
15.4949
16.9084
16.8422
16.7776
16.7146
16.6533
16.5938
16.5363
16.4807
16.4272
16.3759
16.3266
16.2791
16.2332
16.1884
16.1442
16.1003
16.0561
16.0111
15.965
15.9175
15.8692
15.8201
15.7701
15.7191
17.1514
17.0862
17.0229
16.9617
16.9028
16.8465
16.7929
16.7424
16.6952
16.6515
16.6112
16.5743
16.54
16.5075
16.476
16.4442
16.4112
16.376
16.3379
16.2958
16.2504
16.2028
16.1529
16.1005
17.5335
17.4703
17.4101
17.353
17.2997
17.2507
17.2067
17.1684
17.1367
17.1122
17.0953
17.0859
17.0831
17.0851
17.0895
17.0935
17.0944
17.0895
17.076
17.0518
17.0137
16.9698
16.9199
16.8641
18.1672
18.1104
18.0589
18.0136
17.9757
17.9468
17.9291
17.9253
17.9384
17.9714
18.0268
18.1048
18.2042
18.3205
18.4466
18.574
18.6939
18.7972
18.8745
18.9174
18.9179
18.8767
18.8193
18.7463
19.2877
19.2553
19.2357
19.2317
19.2475
19.2888
19.3632
19.4801
19.6502
19.884
20.1917
20.5772
21.0355
21.5491
22.0908
22.6312
23.1433
23.6017
23.9805
24.257
24.4113
24.4168
24.2921
24.1233
23.9158
21.5091
21.5899
21.7126
21.8871
22.1268
22.4496
22.8775
23.4375
24.161
25.0781
26.2101
27.5545
29.0683
30.6719
32.2729
33.7955
35.1877
36.4144
37.446
38.2501
38.7925
39.0468
38.9643
38.4938
37.9135
27.064
27.7137
28.4934
29.4196
30.5157
31.8133
33.3515
35.1759
37.3303
39.8402
42.6812
45.7624
48.9193
51.9487
54.6906
57.0808
59.1277
60.8648
62.3195
63.4994
64.3794
64.903
65.0461
64.8101
63.9786
46.0173
48.5127
51.0968
53.7532
56.4802
59.2897
62.2043
65.2427
68.3998
71.6291
74.8285
77.8421
80.4807
82.6
84.1879
85.3911
86.416
87.4683
88.6989
90.1519
91.9749
93.5789
94.7094
95.2696
95.2309
100.791
103.318
105.231
106.577
107.423
107.845
107.916
107.69
107.207
106.494
105.588
104.541
103.388
102.453
101.729
101.654
102.731
105.474
110.103
116.367
127.568
135.894
142.153
146.729
149.854
163.99
158.189
152.242
146.357
140.619
135.121
129.913
124.877
120.048
115.516
111.512
108.306
106.236
104.989
103.541
103.919
107.681
119.013
139.359
166.134
243.582
253.366
263.126
271.235
279.202
289.45
163.187
153.773
145.41
137.886
131.023
124.702
118.83
113.489
108.857
105.598
104.472
103.517
103.767
108.683
123.709
156.658
248.592
338.988
412.551
437.305
431.222
404.743
391.275
382.229
369.347
136.344
129.078
122.703
117.093
112.141
107.812
104.286
102.048
102.242
101.539
104.586
117.495
150.403
180.744
365.759
645.903
802.265
404.694
157.807
128.158
118.483
124.895
134.645
137.983
117.018
112.603
108.798
105.566
102.869
100.792
99.5897
100.042
104.103
104.459
118.028
137.545
205.434
572.841
1150.06
449.693
327.531
152.721
104.103
99.5351
103.362
111.555
116.157
118.501
99.955
98.1233
96.7471
95.8448
95.6135
96.442
99.2895
106.295
106.722
121.543
146.304
351.027
657.558
288.237
110.218
114.769
126.79
140.637
143.598
145.18
121.743
109.81
118.184
138.541
156.571
179.209
168.639
459.623
407.869
382.862
372.326
357.555
251.334
269.131
285.351
302.505
73.1201
76.147
78.9656
81.3937
83.2944
84.6545
85.6108
86.3425
87.0303
87.8043
88.7191
89.9386
90.9986
91.6862
91.9267
91.6784
90.7439
41.1389
43.9972
47.0589
50.1532
53.0719
55.6508
57.8267
59.6167
61.0663
62.2137
63.0798
63.6595
63.9153
63.838
63.3156
62.2871
61.0179
59.6204
25.6752
26.8656
28.2584
29.8022
31.4071
32.9714
34.4119
35.6798
36.7499
37.6023
38.2165
38.5726
38.6568
38.3707
37.8594
37.2565
36.5826
35.8573
20.0987
20.4344
20.8476
21.3302
21.8599
22.4048
22.9316
23.4094
23.8132
24.1233
24.3225
24.3973
24.3103
24.1641
23.9789
23.761
23.5168
23.2524
18.0488
18.1135
18.2013
18.3098
18.4334
18.5634
18.69
18.8028
18.8921
18.95
18.9698
18.9409
18.8899
18.8235
18.7429
18.6497
18.546
18.4339
17.1435
17.1297
17.1236
17.1238
17.1283
17.1343
17.1384
17.1378
17.1294
17.1109
17.0799
17.0382
16.9906
16.9371
16.878
16.8137
16.7451
16.673
16.666
16.627
16.5914
16.5583
16.5269
16.4961
16.4646
16.4313
16.3952
16.3556
16.3114
16.265
16.2163
16.1651
16.1115
16.0557
15.998
15.9388
16.384
16.3353
16.2885
16.2433
16.199
16.1553
16.1117
16.0675
16.0224
15.9759
15.9281
15.8795
15.83
15.7795
15.7279
15.6753
15.622
15.568
16.2047
16.1516
16.0998
16.0492
15.9994
15.9502
15.9012
15.8523
15.8032
15.7537
15.7039
15.654
15.6037
15.5532
15.5024
15.4513
15.3999
15.3484
16.0857
16.0303
15.9758
15.9223
15.8696
15.8174
15.7657
15.7142
15.6629
15.6116
15.5604
15.5094
15.4584
15.4075
15.3567
15.3059
15.2552
15.2047
16.0051
15.9481
15.892
15.8367
15.782
15.728
15.6745
15.6213
15.5684
15.5158
15.4634
15.4114
15.3596
15.3081
15.2568
15.2058
15.1551
15.1047
15.9496
15.8916
15.8343
15.7777
15.7218
15.6665
15.6116
15.5571
15.503
15.4492
15.3959
15.3429
15.2902
15.238
15.1861
15.1346
15.0835
15.0327
15.9113
15.8524
15.7943
15.7367
15.6798
15.6234
15.5675
15.512
15.4569
15.4022
15.3479
15.2941
15.2406
15.1876
15.135
15.0829
15.0313
14.9801
15.8846
15.8251
15.7662
15.708
15.6503
15.5931
15.5363
15.48
15.4241
15.3686
15.3135
15.2588
15.2047
15.1509
15.0977
15.045
14.9927
14.941
15.8659
15.8059
15.7465
15.6877
15.6293
15.5714
15.514
15.457
15.4004
15.3442
15.2885
15.2332
15.1784
15.124
15.0702
15.0169
14.9641
14.9119
15.8527
15.7923
15.7325
15.6732
15.6143
15.5559
15.498
15.4404
15.3833
15.3265
15.2702
15.2144
15.159
15.1041
15.0498
14.996
14.9427
14.89
15.8434
15.7827
15.7225
15.6628
15.6036
15.5448
15.4864
15.4284
15.3708
15.3136
15.2569
15.2006
15.1447
15.0894
15.0346
14.9804
14.9267
14.8736
15.8369
15.7759
15.7154
15.6555
15.5959
15.5368
15.478
15.4197
15.3617
15.3042
15.2471
15.1904
15.1343
15.0786
15.0235
14.9689
14.9149
14.8614
15.8323
15.7711
15.7105
15.6503
15.5905
15.5311
15.4721
15.4135
15.3553
15.2975
15.2401
15.1831
15.1267
15.0708
15.0153
14.9605
14.9062
14.8525
15.8292
15.7679
15.7071
15.6467
15.5868
15.5272
15.468
15.4092
15.3508
15.2928
15.2352
15.1781
15.1214
15.0653
15.0097
14.9546
14.9002
14.8463
15.8272
15.7658
15.7049
15.6444
15.5843
15.5247
15.4653
15.4064
15.3479
15.2897
15.232
15.1748
15.118
15.0617
15.006
14.9508
14.8963
14.8423
15.8263
15.7649
15.7039
15.6434
15.5832
15.5235
15.4641
15.4051
15.3465
15.2883
15.2305
15.1732
15.1164
15.06
15.0042
14.949
14.8944
14.8403
16.4024
16.3352
16.2688
16.2032
16.1382
16.0739
16.0102
15.9472
15.8847
15.8228
15.7614
15.7004
15.6398
15.5797
15.5199
15.4606
15.4016
15.343
15.2848
15.227
15.1697
15.1128
15.0565
15.0006
16.4031
16.336
16.2696
16.204
16.139
16.0747
16.0111
15.9481
15.8856
15.8237
15.7623
15.7014
15.6409
15.5808
15.5211
15.4618
15.4028
15.3443
15.2862
15.2284
15.1712
15.1144
15.0581
15.0023
16.4048
16.3377
16.2713
16.2056
16.1406
16.0764
16.0128
15.9498
15.8874
15.8256
15.7643
15.7034
15.643
15.583
15.5235
15.4643
15.4055
15.347
15.289
15.2314
15.1743
15.1176
15.0614
15.0058
16.4074
16.3402
16.2737
16.2081
16.1431
16.0789
16.0154
15.9525
15.8902
15.8285
15.7673
15.7066
15.6464
15.5865
15.5271
15.4681
15.4095
15.3513
15.2935
15.2361
15.1791
15.1227
15.0667
15.0112
16.4112
16.344
16.2775
16.2119
16.147
16.0828
16.0193
15.9566
15.8944
15.8329
15.7718
15.7113
15.6513
15.5917
15.5326
15.4738
15.4155
15.3575
15.2999
15.2428
15.1861
15.1299
15.0742
15.0191
16.4168
16.3495
16.283
16.2174
16.1525
16.0885
16.0251
15.9625
15.9005
15.8392
15.7784
15.7181
15.6584
15.5991
15.5403
15.4819
15.4238
15.3662
15.309
15.2522
15.1959
15.1401
15.0847
15.0299
16.4249
16.3575
16.2911
16.2254
16.1607
16.0967
16.0335
15.9711
15.9093
15.8482
15.7878
15.7278
15.6685
15.6096
15.5511
15.4931
15.4355
15.3784
15.3216
15.2653
15.2094
15.154
15.0991
15.0447
16.4365
16.3691
16.3027
16.2371
16.1724
16.1086
16.0456
15.9834
15.9219
15.8612
15.8011
15.7416
15.6827
15.6243
15.5663
15.5089
15.4518
15.3952
15.339
15.2832
15.2278
15.173
15.1186
15.0647
16.4532
16.3858
16.3194
16.2539
16.1893
16.1257
16.0629
16.001
15.94
15.8796
15.82
15.7611
15.7027
15.6449
15.5876
15.5308
15.4744
15.4185
15.3629
15.3078
15.2531
15.1989
15.1452
15.0919
16.4773
16.4099
16.3436
16.2782
16.2138
16.1504
16.088
16.0265
15.9659
15.9061
15.8471
15.7888
15.7312
15.6742
15.6177
15.5617
15.5061
15.451
15.3962
15.3419
15.288
15.2346
15.1816
15.129
16.5121
16.4449
16.3786
16.3135
16.2494
16.1863
16.1243
16.0633
16.0033
15.9442
15.886
15.8286
15.7719
15.7158
15.6603
15.6053
15.5508
15.4967
15.4429
15.3895
15.3365
15.284
15.2318
15.18
16.5628
16.4957
16.4297
16.3648
16.3011
16.2386
16.1771
16.1168
16.0576
15.9994
15.9422
15.8859
15.8305
15.7757
15.7215
15.6679
15.6146
15.5617
15.5091
15.4568
15.4049
15.3533
15.3019
15.2509
16.6369
16.57
16.5044
16.44
16.3769
16.315
16.2544
16.195
16.1369
16.08
16.0243
15.9696
15.9158
15.8629
15.8105
15.7586
15.7071
15.6558
15.6046
15.5536
15.5028
15.4522
15.4018
15.3515
16.7458
16.6794
16.6144
16.5507
16.4883
16.4275
16.3681
16.3102
16.2538
16.1989
16.1454
16.0932
16.0421
15.9919
15.9423
15.8931
15.8441
15.7951
15.7459
15.6965
15.6471
15.5975
15.5479
15.498
16.9077
16.8421
16.7779
16.7153
16.6544
16.5952
16.5378
16.4824
16.429
16.3776
16.3281
16.2803
16.234
16.1888
16.1442
16.0998
16.0551
16.0099
15.9638
15.9167
15.8692
15.8209
15.772
15.7222
17.1539
17.0894
17.0268
16.9662
16.9078
16.8518
16.7984
16.7478
16.7002
16.6557
16.6144
16.5758
16.5396
16.5049
16.4709
16.4367
16.4014
16.3642
16.3245
16.2816
16.2372
16.191
16.1427
16.0924
17.5426
17.4804
17.4209
17.3645
17.3114
17.2621
17.2172
17.1773
17.1428
17.1144
17.0922
17.0758
17.0642
17.0559
17.0488
17.0406
17.0294
17.0132
16.9904
16.9592
16.9215
16.8792
16.8322
16.7801
18.1886
18.1321
18.0803
18.0337
17.9934
17.9604
17.9362
17.9226
17.9216
17.9349
17.9639
18.0084
18.0661
18.1332
18.2043
18.2735
18.335
18.3834
18.4133
18.4195
18.3985
18.3659
18.3208
18.2634
19.338
19.2978
19.267
19.2476
19.242
19.2537
19.2873
19.3486
19.4445
19.5809
19.7635
19.9944
20.2687
20.5744
20.8936
21.2075
21.4991
21.7522
21.9508
22.079
22.119
22.0996
22.0452
21.9572
21.8382
21.5424
21.557
21.5961
21.6652
21.772
21.9276
22.1458
22.4442
22.8447
23.369
24.0369
24.8536
25.7973
26.8156
27.8438
28.8268
29.724
30.5022
31.1299
31.5756
31.8146
31.7875
31.6673
31.4534
31.1555
26.343
26.5936
26.9153
27.3217
27.8327
28.4747
29.2832
30.3024
31.5866
33.1893
35.1386
37.4031
39.8618
42.3377
44.6689
46.7624
48.5861
50.1264
51.361
52.2616
52.7982
52.9414
52.5887
52.0328
51.2913
39.661
40.7983
42.0626
43.4659
45.0352
46.812
48.8537
51.228
53.9981
57.199
60.8041
64.6262
68.3939
71.8153
74.7302
77.1384
79.1335
80.7862
82.1029
83.0727
83.679
83.8442
83.4449
82.3481
81.002
82.3115
84.1238
85.836
87.4512
88.9935
90.5071
92.0167
93.5568
95.2903
97.2486
99.4129
101.623
103.784
105.564
107.303
109.182
111.183
113.247
115.24
117.062
118.854
121.067
122
121.766
120.155
151.535
148.506
145.273
141.932
138.573
135.283
132.152
129.255
126.715
124.749
123.565
123.518
122.467
123.043
126.928
134.827
144.037
153.434
162.826
172.071
182.615
212.416
215.202
217.077
218.286
218.812
179.49
170.2
161.963
154.643
148.162
142.502
137.595
133.647
131.249
130.417
129.788
135.32
154.115
190.78
255.118
262.64
293.833
351.291
357.013
377.056
392
415.503
396.817
381.46
369.318
174.929
166.819
159.561
153.121
147.519
142.899
139.793
139.323
136.859
142.115
174.5
227.984
479.749
707.619
1339.26
959.98
870.794
846.447
505.624
338.242
311.613
213.95
258.772
253.931
176.066
168.933
162.893
157.862
153.844
150.959
149.892
153.524
152.46
174.199
216.61
675.397
504.376
147.119
147.49
146.548
151.178
147.499
151.961
147.601
144.089
141.539
140.237
141.004
146.465
148.475
174.13
232.255
1148
1594.68
156.704
164.775
174.373
182.961
175.622
1045.12
272.903
144.103
156.122
203.83
232.227
214.849
535.102
413.974
381.301
360.326
335.078
232.85
240.088
247.111
253.729
59.4648
63.0118
66.7332
70.3632
73.5764
76.2118
78.2669
79.839
81.0071
81.8027
82.2673
82.4225
82.2022
81.3405
80.1571
78.7681
77.2036
34.4225
36.4629
38.7976
41.2909
43.7476
45.9936
47.9308
49.5339
50.8087
51.7518
52.3554
52.6119
52.4074
51.9536
51.3218
50.5287
49.6042
48.5797
23.8406
24.5677
25.4429
26.4364
27.4856
28.5161
29.4658
30.2903
30.9617
31.4591
31.7627
31.8451
31.7547
31.5782
31.3194
30.9879
30.5968
30.1591
19.7451
19.9497
20.2036
20.4996
20.8225
21.1508
21.4626
21.7388
21.9615
22.1173
22.1955
22.1863
22.1448
22.0708
21.966
21.8339
21.6788
21.505
17.9968
18.0327
18.0846
18.1494
18.2224
18.2972
18.3668
18.4249
18.4653
18.4831
18.4733
18.4443
18.4037
18.3511
18.2869
18.2121
18.128
18.0362
17.1405
17.1207
17.1069
17.0978
17.0916
17.0857
17.0779
17.0657
17.0472
17.0208
16.985
16.9449
16.9002
16.8506
16.7961
16.7371
16.6741
16.6078
16.6681
16.6278
16.5904
16.5553
16.5216
16.4883
16.4543
16.4188
16.381
16.3403
16.2968
16.2515
16.2043
16.155
16.1037
16.0503
15.9952
15.9386
16.3846
16.3358
16.2886
16.243
16.1983
16.1541
16.11
16.0655
16.0202
15.9739
15.9267
15.8789
15.8304
15.781
15.7308
15.6798
15.628
15.5756
16.204
16.1509
16.0992
16.0485
15.9986
15.9494
15.9005
15.8516
15.8027
15.7535
15.7042
15.6548
15.6052
15.5554
15.5054
15.4551
15.4047
15.3541
16.0846
16.0291
15.9747
15.9213
15.8686
15.8165
15.7648
15.7134
15.6623
15.6112
15.5603
15.5096
15.459
15.4085
15.3582
15.3079
15.2577
15.2076
16.0038
15.9468
15.8908
15.8355
15.781
15.727
15.6735
15.6204
15.5676
15.5151
15.4629
15.411
15.3595
15.3082
15.2571
15.2064
15.156
15.1058
15.9486
15.8905
15.8333
15.7767
15.7208
15.6655
15.6106
15.5562
15.5022
15.4485
15.3952
15.3423
15.2897
15.2376
15.1858
15.1344
15.0834
15.0328
15.9104
15.8516
15.7934
15.7359
15.679
15.6226
15.5667
15.5112
15.4562
15.4015
15.3472
15.2934
15.24
15.187
15.1345
15.0824
15.0308
14.9796
15.8839
15.8244
15.7656
15.7073
15.6496
15.5924
15.5357
15.4793
15.4234
15.3679
15.3128
15.2582
15.204
15.1503
15.0971
15.0443
14.9921
14.9404
15.8653
15.8054
15.746
15.6871
15.6288
15.5709
15.5135
15.4565
15.3999
15.3437
15.2879
15.2326
15.1778
15.1234
15.0696
15.0162
14.9634
14.9111
15.8523
15.7919
15.7321
15.6728
15.6139
15.5555
15.4976
15.44
15.3828
15.3261
15.2698
15.2139
15.1585
15.1036
15.0492
14.9954
14.9421
14.8893
15.8431
15.7824
15.7223
15.6626
15.6033
15.5445
15.4861
15.4281
15.3705
15.3133
15.2565
15.2002
15.1444
15.089
15.0342
14.9799
14.9262
14.873
15.8367
15.7758
15.7153
15.6553
15.5958
15.5367
15.4779
15.4196
15.3616
15.304
15.2469
15.1902
15.134
15.0783
15.0232
14.9686
14.9145
14.861
15.8322
15.7711
15.7105
15.6503
15.5905
15.5311
15.4721
15.4135
15.3552
15.2974
15.24
15.1831
15.1266
15.0706
15.0152
14.9603
14.906
14.8522
15.8292
15.768
15.7072
15.6468
15.5868
15.5273
15.4681
15.4093
15.3508
15.2928
15.2352
15.1781
15.1214
15.0652
15.0096
14.9545
14.9
14.8461
15.8273
15.7659
15.705
15.6445
15.5844
15.5248
15.4654
15.4065
15.348
15.2898
15.2321
15.1748
15.118
15.0617
15.0059
14.9507
14.8961
14.8421
15.8264
15.765
15.704
15.6435
15.5833
15.5236
15.4642
15.4052
15.3466
15.2884
15.2306
15.1733
15.1164
15.06
15.0042
14.949
14.8943
14.8402
16.4024
16.3353
16.269
16.2033
16.1384
16.0741
16.0104
15.9474
15.885
15.823
15.7616
15.7006
15.6401
15.5799
15.5202
15.4608
15.4018
15.3432
15.285
15.2272
15.1698
15.1129
15.0565
15.0006
16.4032
16.3361
16.2697
16.204
16.1391
16.0749
16.0112
15.9482
15.8858
15.8239
15.7625
15.7016
15.6411
15.581
15.5213
15.4619
15.403
15.3444
15.2863
15.2285
15.1712
15.1144
15.058
15.0022
16.4047
16.3376
16.2712
16.2056
16.1406
16.0764
16.0128
15.9499
15.8875
15.8257
15.7643
15.7035
15.6431
15.5831
15.5235
15.4643
15.4055
15.3471
15.289
15.2314
15.1742
15.1175
15.0613
15.0056
16.407
16.3399
16.2735
16.2078
16.1429
16.0787
16.0152
15.9523
15.89
15.8283
15.7671
15.7064
15.6462
15.5863
15.5269
15.4679
15.4093
15.351
15.2932
15.2358
15.1788
15.1223
15.0663
15.0108
16.4105
16.3433
16.2768
16.2112
16.1463
16.0822
16.0187
15.956
15.8938
15.8323
15.7712
15.7107
15.6507
15.5911
15.5319
15.4732
15.4148
15.3568
15.2992
15.242
15.1853
15.1291
15.0733
15.0181
16.4155
16.3483
16.2818
16.2162
16.1514
16.0873
16.024
15.9614
15.8994
15.8381
15.7773
15.717
15.6573
15.598
15.5391
15.4807
15.4226
15.365
15.3077
15.2509
15.1945
15.1387
15.0833
15.0284
16.4232
16.3558
16.2894
16.2238
16.159
16.0951
16.0319
15.9695
15.9077
15.8466
15.7862
15.7262
15.6668
15.6079
15.5495
15.4914
15.4338
15.3766
15.3198
15.2634
15.2075
15.1521
15.0971
15.0427
16.4344
16.3671
16.3006
16.2351
16.1704
16.1066
16.0436
15.9814
15.92
15.8592
15.7991
15.7396
15.6807
15.6223
15.5643
15.5068
15.4497
15.3931
15.3368
15.281
15.2256
15.1707
15.1163
15.0624
16.4507
16.3834
16.317
16.2515
16.187
16.1234
16.0607
15.9988
15.9377
15.8774
15.8178
15.7588
15.7005
15.6427
15.5854
15.5285
15.4721
15.4161
15.3606
15.3054
15.2507
15.1965
15.1428
15.0895
16.4744
16.4071
16.3407
16.2754
16.2111
16.1478
16.0854
16.0239
15.9633
15.9036
15.8446
15.7863
15.7287
15.6716
15.6151
15.5591
15.5036
15.4484
15.3937
15.3394
15.2855
15.2321
15.1791
15.1266
16.5086
16.4414
16.3753
16.3102
16.2462
16.1833
16.1213
16.0604
16.0004
15.9414
15.8832
15.8258
15.7691
15.713
15.6576
15.6026
15.5481
15.494
15.4403
15.387
15.3341
15.2816
15.2295
15.1779
16.5586
16.4917
16.4258
16.3611
16.2975
16.2351
16.1738
16.1136
16.0544
15.9963
15.9392
15.8829
15.8275
15.7727
15.7186
15.665
15.6118
15.559
15.5065
15.4544
15.4027
15.3513
15.3003
15.2496
16.632
16.5655
16.5001
16.4359
16.373
16.3113
16.2509
16.1917
16.1337
16.0769
16.0212
15.9666
15.9129
15.8599
15.8076
15.7559
15.7044
15.6533
15.6024
15.5517
15.5013
15.4512
15.4013
15.3515
16.7407
16.6748
16.6101
16.5468
16.4849
16.4243
16.3652
16.3075
16.2513
16.1965
16.1431
16.0909
16.0398
15.9895
15.94
15.8908
15.8419
15.7931
15.7442
15.6954
15.6467
15.598
15.5493
15.5005
16.9035
16.8386
16.7752
16.7132
16.6529
16.5942
16.5372
16.4821
16.4288
16.3774
16.3277
16.2797
16.2331
16.1875
16.1424
16.0977
16.0527
16.0075
15.9616
15.9154
15.8689
15.8221
15.7747
15.7267
17.153
17.0898
17.0283
16.9687
16.9112
16.8558
16.8028
16.7523
16.7045
16.6595
16.6171
16.5771
16.5391
16.5023
16.466
16.4295
16.392
16.3531
16.3124
16.2703
16.2274
16.1831
16.1374
16.0899
17.5489
17.4886
17.4308
17.3757
17.3236
17.2748
17.2297
17.1887
17.1522
17.1204
17.0934
17.0707
17.0512
17.0337
17.0162
16.9973
16.9756
16.9501
16.9197
16.8853
16.8484
16.8084
16.7648
16.7172
18.2131
18.1584
18.1076
18.0613
18.02
17.9844
17.9555
17.9344
17.9221
17.9196
17.9271
17.944
17.968
17.9957
18.0229
18.0459
18.0617
18.0675
18.061
18.0426
18.0181
17.9863
17.9462
17.8975
19.4012
19.3549
19.316
19.2854
19.2646
19.2556
19.2607
19.2829
19.3257
19.3923
19.484
19.5998
19.7348
19.88
20.0246
20.159
20.2755
20.3672
20.4269
20.4512
20.4598
20.4496
20.4189
20.3669
20.2943
21.6214
21.5902
21.5745
21.5765
21.6
21.6505
21.7348
21.8617
22.0422
22.2876
22.6064
22.9988
23.4498
23.9297
24.4043
24.847
25.2403
25.5686
25.8134
25.9554
26.0565
26.1055
26.0973
26.0302
25.9056
26.1987
26.1917
26.2159
26.2859
26.4108
26.6051
26.8894
27.2899
27.8409
28.5795
29.5346
30.6969
31.9997
33.3314
34.59
35.7223
36.7089
37.5326
38.1626
38.5548
38.8315
38.982
38.9786
38.8183
38.5091
37.0923
37.2231
37.3907
37.5929
37.9038
38.3992
39.1239
40.1396
41.5215
43.3413
45.6297
48.2887
51.0787
53.6916
55.9397
57.8122
59.3721
60.6409
61.5827
62.1507
62.4258
62.4683
62.2284
61.688
60.8854
67.8599
67.8183
67.9184
68.1638
68.5076
68.9179
69.5048
70.5396
72.1186
74.3209
77.2
80.4919
83.6195
86.3183
88.4212
90.0778
91.4886
92.6595
93.4909
93.8938
93.8783
93.67
93.1769
92.2886
91.0138
124.808
122.449
120.259
118.249
116.449
114.893
113.585
112.452
111.897
112.173
113.726
113.08
114.169
118.305
123.655
128.714
133.371
137.599
140.923
142.854
143.835
147.119
152.855
152.034
150.93
149.63
172.709
165.05
158.209
152.131
146.803
142.261
138.613
135.826
134.833
133.123
134.523
150.155
192.903
216.182
255.562
271.769
278.369
278.846
274.564
280.765
277.266
284.646
312.045
302.901
293.644
178.819
170.562
163.248
156.741
151.049
146.272
142.681
139.388
140.123
156.997
216.39
722.944
2366.25
633.668
696.205
588.58
440.448
337.717
308.091
145.459
139.061
133.263
128.015
123.308
119.153
115.098
115.985
124.035
152.208
805.999
686.413
209.936
203.437
191.497
198.424
153.619
147.98
142.938
138.517
134.85
132.159
131.349
143.992
182.449
1098.1
242.193
229.313
219.718
200.546
270.076
179.997
264.65
271.802
243.555
510.938
437.313
347.956
322.529
244.942
214.334
214.337
214.076
117.308
120.917
123.248
124.783
44.8574
47.2389
49.9701
52.7867
55.354
57.4694
59.1246
60.393
61.3162
61.8816
62.0895
62.1226
61.9647
61.5631
60.9151
60.0476
59.0016
29.2662
30.2975
31.534
32.8977
34.2602
35.5059
36.5732
37.4453
38.1115
38.5569
38.8217
38.9858
39.0294
38.9388
38.7109
38.3543
37.8806
37.3235
22.5505
22.9019
23.3282
23.8106
24.3135
24.7963
25.2285
25.5909
25.8668
26.0433
26.1458
26.2051
26.2142
26.1698
26.0714
25.9228
25.7295
25.4978
19.4921
19.5954
19.7233
19.8697
20.0239
20.1731
20.3063
20.4149
20.4917
20.5307
20.5435
20.539
20.5157
20.4725
20.4091
20.3266
20.2265
20.1108
17.9594
17.9711
17.9923
18.0204
18.0513
18.0803
18.1032
18.1165
18.1176
18.1045
18.0825
18.0539
18.0177
17.9734
17.9206
17.8595
17.7906
17.7151
17.1385
17.1132
17.0922
17.0744
17.0581
17.0415
17.0228
17.0004
16.9733
16.9406
16.905
16.8667
16.8251
16.7798
16.7305
16.6774
16.6208
16.561
16.6685
16.627
16.588
16.5508
16.5148
16.479
16.4428
16.4053
16.366
16.3246
16.2822
16.2389
16.1941
16.1478
16.0997
16.0498
15.9983
15.9454
16.3828
16.3338
16.2863
16.2402
16.1951
16.1505
16.106
16.0613
16.016
15.97
15.9239
15.8774
15.8305
15.7829
15.7347
15.6857
15.636
15.5857
16.2008
16.1477
16.0959
16.0452
15.9953
15.9461
15.8972
15.8485
15.7998
15.751
15.7024
15.6538
15.6051
15.5564
15.5075
15.4584
15.4091
15.3598
16.0809
16.0255
15.9712
15.9178
15.8651
15.8131
15.7615
15.7103
15.6593
15.6085
15.5579
15.5077
15.4576
15.4077
15.358
15.3083
15.2588
15.2093
16.0004
15.9434
15.8874
15.8322
15.7777
15.7237
15.6703
15.6173
15.5646
15.5122
15.4602
15.4086
15.3573
15.3063
15.2556
15.2052
15.155
15.1052
15.9455
15.8875
15.8302
15.7737
15.7178
15.6625
15.6077
15.5533
15.4993
15.4457
15.3924
15.3396
15.2872
15.2352
15.1836
15.1323
15.0815
15.031
15.9077
15.8489
15.7907
15.7333
15.6763
15.62
15.564
15.5086
15.4535
15.3988
15.3446
15.2908
15.2374
15.1845
15.132
15.0799
15.0283
14.9773
15.8815
15.8221
15.7632
15.705
15.6472
15.59
15.5332
15.4769
15.421
15.3654
15.3103
15.2557
15.2015
15.1478
15.0945
15.0418
14.9895
14.9378
15.8633
15.8033
15.7439
15.6851
15.6267
15.5688
15.5114
15.4543
15.3977
15.3415
15.2857
15.2303
15.1754
15.121
15.0672
15.0138
14.9609
14.9086
15.8506
15.7903
15.7304
15.6711
15.6122
15.5538
15.4958
15.4382
15.381
15.3242
15.2679
15.212
15.1565
15.1016
15.0472
14.9933
14.9399
14.8871
15.842
15.7813
15.7211
15.6614
15.6021
15.5433
15.4849
15.4268
15.3692
15.312
15.2552
15.1988
15.1429
15.0875
15.0327
14.9783
14.9246
14.8714
15.8361
15.7751
15.7147
15.6547
15.5951
15.536
15.4772
15.4188
15.3608
15.3033
15.2461
15.1894
15.1332
15.0774
15.0222
14.9675
14.9134
14.8599
15.832
15.7709
15.7102
15.65
15.5902
15.5308
15.4718
15.4132
15.3549
15.2971
15.2397
15.1827
15.1262
15.0702
15.0147
14.9598
14.9054
14.8516
15.8293
15.768
15.7072
15.6468
15.5869
15.5273
15.4681
15.4093
15.3508
15.2928
15.2351
15.178
15.1213
15.0651
15.0094
14.9543
14.8997
14.8457
15.8274
15.7661
15.7052
15.6447
15.5846
15.5249
15.4656
15.4066
15.3481
15.2899
15.2321
15.1748
15.118
15.0617
15.0059
14.9506
14.8959
14.8418
15.8266
15.7652
15.7042
15.6437
15.5835
15.5238
15.4644
15.4054
15.3468
15.2885
15.2307
15.1734
15.1165
15.0601
15.0042
14.9489
14.8942
14.84
16.4025
16.3355
16.2691
16.2035
16.1386
16.0744
16.0108
15.9477
15.8853
15.8234
15.762
15.701
15.6405
15.5803
15.5205
15.4612
15.4021
15.3435
15.2852
15.2274
15.17
15.1131
15.0566
15.0007
16.4032
16.3361
16.2698
16.2042
16.1393
16.075
16.0114
15.9485
15.886
15.8242
15.7628
15.7018
15.6413
15.5812
15.5215
15.4622
15.4032
15.3446
15.2864
15.2286
15.1713
15.1144
15.0581
15.0022
16.4045
16.3374
16.271
16.2054
16.1405
16.0763
16.0127
15.9498
15.8874
15.8256
15.7643
15.7035
15.643
15.5831
15.5234
15.4642
15.4054
15.3469
15.2888
15.2312
15.174
15.1172
15.061
15.0052
16.4061
16.3389
16.2726
16.2069
16.1421
16.0779
16.0144
15.9515
15.8892
15.8275
15.7663
15.7056
15.6454
15.5855
15.5261
15.467
15.4084
15.3501
15.2922
15.2347
15.1777
15.1212
15.0651
15.0096
16.4083
16.3411
16.2747
16.2091
16.1442
16.0801
16.0167
15.9539
15.8918
15.8302
15.7692
15.7086
15.6486
15.589
15.5298
15.471
15.4125
15.3545
15.2969
15.2397
15.1829
15.1266
15.0708
15.0155
16.4118
16.3445
16.2781
16.2125
16.1477
16.0836
16.0203
15.9577
15.8957
15.8343
15.7735
15.7133
15.6535
15.5942
15.5352
15.4767
15.4187
15.361
15.3037
15.2468
15.1904
15.1344
15.0789
15.024
16.4179
16.3506
16.2842
16.2186
16.1539
16.0899
16.0267
15.9643
15.9025
15.8414
15.7809
15.721
15.6615
15.6025
15.544
15.4859
15.4283
15.371
15.3141
15.2576
15.2016
15.1461
15.0911
15.0366
16.4281
16.3608
16.2943
16.2288
16.1642
16.1004
16.0374
15.9752
15.9137
15.8529
15.7928
15.7332
15.6743
15.6158
15.5578
15.5002
15.443
15.3863
15.3299
15.274
15.2186
15.1636
15.1091
15.0551
16.4437
16.3764
16.31
16.2446
16.18
16.1164
16.0537
15.9918
15.9308
15.8704
15.8108
15.7518
15.6934
15.6355
15.5781
15.5212
15.4647
15.4087
15.353
15.2978
15.243
15.1887
15.1349
15.0816
16.4666
16.3994
16.3331
16.2679
16.2036
16.1403
16.0779
16.0164
15.9559
15.8961
15.8371
15.7788
15.7211
15.664
15.6075
15.5514
15.4958
15.4406
15.3858
15.3315
15.2775
15.2241
15.1711
15.1185
16.5001
16.433
16.367
16.302
16.2381
16.1752
16.1133
16.0524
15.9925
15.9334
15.8752
15.8178
15.7611
15.7051
15.6496
15.5946
15.5401
15.486
15.4322
15.379
15.3261
15.2737
15.2217
15.1701
16.5492
16.4824
16.4168
16.3522
16.2888
16.2265
16.1653
16.1052
16.0461
15.9881
15.931
15.8748
15.8193
15.7646
15.7105
15.6569
15.6038
15.551
15.4987
15.4467
15.3951
15.3439
15.2931
15.2426
16.6217
16.5555
16.4904
16.4266
16.3639
16.3025
16.2423
16.1833
16.1255
16.0688
16.0132
15.9587
15.905
15.8522
15.7999
15.7482
15.6969
15.6459
15.5952
15.5449
15.4949
15.4453
15.3959
15.3467
16.7299
16.6646
16.6006
16.5378
16.4763
16.4162
16.3575
16.3002
16.2442
16.1896
16.1364
16.0843
16.0333
15.9831
15.9336
15.8846
15.8358
15.7872
15.7387
15.6905
15.6426
15.5949
15.5472
15.4994
16.8937
16.8298
16.7674
16.7064
16.6469
16.5889
16.5326
16.478
16.4252
16.374
16.3245
16.2765
16.2298
16.184
16.1389
16.0939
16.049
16.0039
15.9585
15.9133
15.8681
15.8228
15.7772
15.731
17.1469
17.0855
17.0257
16.9677
16.9115
16.8573
16.8053
16.7555
16.7081
16.6631
16.6204
16.5798
16.5408
16.5029
16.4653
16.4274
16.3888
16.349
16.3084
16.2677
16.2265
16.1846
16.1416
16.0972
17.5511
17.4938
17.4387
17.386
17.3359
17.2887
17.2447
17.2041
17.1672
17.1342
17.1048
17.0788
17.055
17.0322
17.0089
16.984
16.9565
16.9258
16.8928
16.8589
16.8236
16.7861
16.7459
16.7025
18.2391
18.1878
18.1399
18.0958
18.056
18.0209
17.9911
17.9674
17.9505
17.9406
17.9378
17.941
17.9479
17.9555
17.9604
17.96
17.9525
17.937
17.9161
17.8922
17.8647
17.8324
17.7941
17.7488
19.4682
19.4223
19.3828
19.3505
19.3261
19.3109
19.3064
19.3143
19.3361
19.3733
19.4259
19.4913
19.5633
19.6341
19.6961
19.7442
19.7754
19.788
19.7901
19.7849
19.7715
19.7479
19.7111
19.6592
19.592
21.7963
21.7647
21.7336
21.7077
21.6989
21.7092
21.7428
21.8044
21.899
22.0316
22.2037
22.4093
22.6309
22.8453
23.0332
23.1858
23.3008
23.3759
23.4362
23.4801
23.5059
23.5088
23.4813
23.4182
23.3194