/*--------------------------------*- C++ -*----------------------------------*\
  =========                 |
  \\      /  F ield         | OpenFOAM: The Open Source CFD Toolbox
   \\    /   O peration     | Website:  https://openfoam.org
    \\  /    A nd           | Version:  13
     \\/     M anipulation  |
\*---------------------------------------------------------------------------*/
FoamFile
{
    format      ascii;
    class       volScalarField;
    location    "200";
    object      p;
}
// * * * * * * * * * * * * * * * * * * * * * * * * * * * * * * * * * * * * * //

dimensions      [0 2 -2 0 0 0 0];

internalField   nonuniform List<scalar> 
171745
(
-3.32993
-3.7894
-4.25467
-4.72567
-5.20172
-5.68162
-6.16375
-6.64619
-7.12671
-7.60275
-8.07139
-8.52947
-8.97378
-9.40111
-9.80831
-10.1923
-10.5503
-10.8797
-11.1783
-11.4441
-11.6759
-11.8726
-12.0337
-12.1592
-3.3354
-3.79431
-4.25942
-4.73069
-5.20746
-5.68854
-6.17227
-6.6567
-7.13957
-7.61827
-8.08982
-8.551
-8.99848
-9.42894
-9.83913
-10.2259
-10.5864
-10.9179
-11.2182
-11.4853
-11.718
-11.915
-12.076
-12.201
-3.34506
-3.80285
-4.26768
-4.73956
-5.21783
-5.70129
-6.18826
-6.67672
-7.16432
-7.64837
-8.12578
-8.5932
-9.04708
-9.48391
-9.90021
-10.2927
-10.6582
-10.9942
-11.298
-11.568
-11.8024
-12.0003
-12.1611
-12.2851
-3.35858
-3.81461
-4.27899
-4.75177
-5.23231
-5.71938
-6.21126
-6.70584
-7.20066
-7.69287
-8.17923
-8.65616
-9.11986
-9.56646
-9.99219
-10.3934
-10.7669
-11.1097
-11.4192
-11.6933
-11.9305
-12.1296
-12.2902
-12.4124
-3.37444
-3.82794
-4.2916
-4.76553
-5.24909
-5.74104
-6.23959
-6.74251
-7.24719
-7.75059
-8.24924
-8.73923
-9.21641
-9.6765
-10.1153
-10.5288
-10.9133
-11.2656
-11.5828
-11.8628
-12.1037
-12.3045
-12.4647
-12.5845
-3.39112
-3.84115
-4.30371
-4.77894
-5.26625
-5.76436
-6.27139
-6.78503
-7.30243
-7.82034
-8.33492
-8.84192
-9.33668
-9.8144
-10.2703
-10.6998
-11.0989
-11.4637
-11.7912
-12.0788
-12.3246
-12.5275
-12.687
-12.8037
-3.40624
-3.85166
-4.31258
-4.7892
-5.28094
-5.7865
-6.30397
-6.83083
-7.3641
-7.90014
-8.43479
-8.96324
-9.48025
-9.98033
-10.458
-10.908
-11.3255
-11.7063
-12.0468
-12.3441
-12.5961
-12.8015
-12.9601
-13.0726
-3.417
-3.85644
-4.31499
-4.79294
-5.28974
-5.80408
-6.33396
-6.8768
-7.42932
-7.9876
-8.54694
-9.10194
-9.6466
-10.1746
-10.6794
-11.155
-11.5957
-11.9964
-12.3531
-12.6625
-12.922
-13.1305
-13.2879
-13.3949
-3.41982
-3.8516
-4.30685
-4.78592
-5.28829
-5.81268
-6.35707
-6.91876
-7.49431
-8.07937
-8.66873
-9.2562
-9.83483
-10.3972
-10.9357
-11.4429
-11.9123
-12.3378
-12.7145
-13.0386
-13.3074
-13.5195
-13.6749
-13.7749
-3.41035
-3.83253
-4.2833
-4.76306
-5.27135
-5.80696
-6.36793
-6.95156
-7.55419
-8.1712
-8.79666
-9.42352
-10.0436
-10.6482
-11.228
-11.7743
-12.2789
-12.7348
-13.1361
-13.4783
-13.7583
-13.9745
-14.1272
-14.2183
-3.3834
-3.79369
-4.2385
-4.71823
-5.23253
-5.78032
-6.35987
-6.96853
-7.6027
-8.25735
-8.92598
-9.60041
-10.271
-10.9271
-11.5577
-12.1519
-12.6998
-13.193
-13.6243
-13.9886
-14.2821
-14.5031
-14.6522
-14.7318
-3.33285
-3.72867
-4.16571
-4.64434
-5.16431
-5.72488
-6.32467
-6.96146
-7.63176
-8.33048
-9.05039
-9.78208
-10.5141
-11.2333
-11.9262
-12.5792
-13.1803
-13.7191
-14.1872
-14.5784
-14.8882
-15.1148
-15.2588
-15.3238
-3.25163
-3.63017
-4.05726
-4.53316
-5.05785
-5.63108
-6.2522
-6.91973
-7.63086
-8.38055
-9.16111
-9.96167
-10.7684
-11.565
-12.3344
-13.0599
-13.7262
-14.3209
-14.8341
-15.2582
-15.588
-15.8211
-15.9585
-16.0047
-3.13182
-3.49013
-3.90475
-4.3757
-4.90324
-5.48796
-6.13041
-6.83056
-7.58676
-8.39482
-9.24672
-10.1301
-11.0279
-11.9199
-12.7839
-13.5984
-14.3449
-15.0081
-15.5764
-16.0412
-16.3957
-16.6365
-16.7652
-16.7874
-2.96456
-3.29964
-3.69874
-4.16148
-4.68858
-5.28185
-5.94381
-6.67673
-7.48137
-8.35515
-9.2905
-10.2733
-11.283
-12.293
-13.2744
-14.1992
-15.0442
-15.7914
-16.4275
-16.9424
-17.3279
-17.5787
-17.6959
-17.6875
-2.74166
-3.05107
-3.43143
-3.88174
-4.4033
-4.9997
-5.67631
-6.43922
-7.29325
-8.23936
-9.27142
-10.3741
-11.5216
-12.6792
-13.8073
-14.8691
-15.8353
-16.6853
-17.4047
-17.982
-18.4071
-18.6714
-18.7745
-18.7267
-2.45151
-2.73311
-3.0909
-3.52293
-4.03116
-4.62159
-5.30371
-6.08928
-6.98998
-8.01293
-9.15613
-10.404
-11.7242
-13.0688
-14.3828
-15.6154
-16.7299
-17.7049
-18.527
-19.1829
-19.6588
-19.942
-20.0279
-19.9293
-2.09306
-2.34659
-2.67812
-3.08428
-3.56771
-4.13754
-4.80912
-5.6027
-6.54019
-7.63977
-8.90777
-10.3306
-11.8674
-13.4518
-15.0034
-16.4496
-17.7447
-18.8702
-19.8185
-20.5757
-21.1196
-21.4302
-21.4974
-21.3347
-1.64717
-1.87495
-2.1775
-2.54922
-2.99311
-3.52184
-4.15822
-4.9342
-5.88766
-7.05394
-8.4555
-10.0878
-11.9026
-13.8035
-15.6663
-17.3821
-18.8946
-20.1979
-21.2994
-22.1869
-22.8246
-23.1737
-23.2156
-22.9691
-22.4886
-1.14565
-1.35192
-1.62196
-1.94699
-2.32958
-2.7858
-3.3469
-4.05918
-4.9833
-6.18637
-7.72361
-9.61159
-11.7952
-14.1283
-16.4064
-18.4592
-20.2235
-21.7286
-23.0157
-24.0759
-24.8535
-25.2724
-25.2844
-24.9158
-24.2632
-0.550081
-0.747947
-0.988346
-1.25791
-1.55707
-1.90362
-2.33723
-2.9238
-3.75664
-4.95092
-6.61864
-8.82238
-11.5107
-14.4631
-17.3183
-19.7809
-21.8005
-23.4987
-24.988
-26.2634
-27.2373
-27.77
-27.749
-27.2241
-26.3492
0.0263238
-0.174851
-0.38681
-0.589829
-0.779912
-0.97415
-1.21877
-1.59995
-2.25208
-3.3563
-5.11506
-7.68468
-11.0502
-14.8816
-18.5991
-21.6173
-23.9
-25.7587
-27.4527
-28.9937
-30.2749
-30.9531
-30.8316
-30.039
-28.8528
0.530837
0.288338
0.0769669
-0.0768255
-0.161813
-0.190061
-0.207991
-0.311059
-0.668438
-1.54231
-3.27624
-6.21085
-10.4161
-15.2934
-20.0358
-23.7038
-26.2226
-28.1752
-30.0468
-31.8483
-33.9226
-34.9872
-34.6434
-33.4336
-31.8066
0.462758
0.162158
-0.0535635
-0.150856
-0.109101
0.0729004
0.36403
0.678077
0.83517
0.508594
-0.837133
-3.87213
-9.04017
-14.2382
-20.3613
-24.9271
-27.8448
-29.8178
-31.7509
-33.7217
-37.7367
-39.805
-38.9383
-37.1661
-34.9958
-32.6345
-0.468329
-0.6282
-0.617927
-0.400918
0.048046
0.733556
1.61473
2.55639
3.25096
3.03631
0.85012
-4.63569
-12.6075
-22.0741
-29.1965
-32.3259
-34.2394
-35.6744
-37.683
-39.4446
-43.4338
-41.3311
-38.9298
-35.8808
-32.6982
-1.45694
-1.33696
-0.94993
-0.242305
0.83433
2.31274
4.165
6.23287
8.10432
6.21089
2.67556
-6.55641
-19.0837
-30.8188
-41.088
-40.08
-37.7922
-39.0011
-40.9585
-42.5768
-41.7473
-40.3027
-37.8258
-34.5178
-2.09723
-1.92704
-1.46551
-0.635416
0.642929
2.44684
4.84091
7.80683
11.0572
11.9946
12.2176
7.11384
-0.753364
-19.696
-90.3195
-50.6198
-38.8568
-38.8664
-40.2085
-41.6472
-41.4284
-39.9247
-37.5216
-34.6645
-2.26854
-1.8989
-1.17608
-0.033352
1.57883
3.6746
6.15641
8.69992
10.9576
11.7868
11.2511
11.0444
-38.8536
-39.6351
-40.644
-42.7308
-42.8888
-40.7084
-37.7772
-34.4322
-40.7958
-42.4592
-44.1843
-45.2814
-42.9598
-38.9595
-34.9309
-42.0428
-46.2407
-44.9368
-41.8069
-38.1131
-43.1222
-42.527
-40.3502
-37.8177
-3.9131
-5.77086
-8.45804
-11.97
-15.9723
-19.8519
-22.9663
-25.2265
-26.9179
-28.331
-29.5307
-30.4334
-30.7691
-30.3512
-29.3222
-27.99
-26.5341
-5.45399
-7.20485
-9.50329
-12.2986
-15.3634
-18.3165
-20.8312
-22.8292
-24.4192
-25.7234
-26.7621
-27.4697
-27.7359
-27.4783
-26.7582
-25.7381
-24.5691
-23.3407
-6.63574
-8.23907
-10.199
-12.4584
-14.8652
-17.2025
-19.2823
-21.0255
-22.4539
-23.6124
-24.5051
-25.0909
-25.3137
-25.141
-24.6146
-23.8396
-22.9197
-21.9296
-7.45332
-8.90577
-10.591
-12.4583
-14.4065
-16.3035
-18.0306
-19.522
-20.7669
-21.7748
-22.5408
-23.0393
-23.2433
-23.1453
-22.7722
-22.1885
-21.4683
-20.6712
-7.99298
-9.29986
-10.7611
-12.3338
-13.9478
-15.5179
-16.9655
-18.2397
-19.3193
-20.1975
-20.8646
-21.3061
-21.508
-21.4667
-21.2045
-20.7665
-20.205
-19.5655
-8.32492
-9.49753
-10.7732
-12.1175
-13.4803
-14.803
-16.0315
-17.1261
-18.0639
-18.832
-19.4201
-19.8183
-20.0175
-20.0197
-19.8435
-19.5201
-19.0863
-18.576
-8.51453
-9.56867
-10.6911
-11.8548
-13.0231
-14.1543
-15.2093
-16.1572
-16.9765
-17.6533
-18.178
-18.5425
-18.7418
-18.78
-18.6711
-18.4373
-18.1048
-17.6993
-8.5983
-9.55007
-10.5469
-11.567
-12.5827
-13.5637
-14.4806
-15.309
-16.0306
-16.6324
-17.1056
-17.4434
-17.6434
-17.7097
-17.6528
-17.4887
-17.2365
-16.9157
-8.61011
-9.47413
-10.3671
-11.2715
-12.1659
-13.0273
-13.8336
-14.5653
-15.207
-15.7475
-16.1787
-16.4953
-16.6959
-16.7838
-16.7671
-16.6575
-16.4694
-16.2175
-8.57194
-9.3613
-10.1683
-10.9787
-11.7756
-12.5413
-13.2586
-13.9118
-14.4884
-14.9786
-15.3756
-15.6748
-15.8754
-15.98
-15.9945
-15.9279
-15.7909
-15.5948
-8.50138
-9.22757
-9.96337
-10.697
-11.4152
-12.1037
-12.749
-13.3385
-13.8619
-14.3109
-14.6797
-14.9646
-15.1647
-15.282
-15.321
-15.2885
-15.1924
-15.0418
-8.41086
-9.08381
-9.7606
-10.4315
-11.0856
-11.7116
-12.2985
-12.8362
-13.3162
-13.7315
-14.0772
-14.3501
-14.5493
-14.6763
-14.7344
-14.7288
-14.6657
-14.5519
-8.30995
-8.93826
-9.5662
-10.1856
-10.7875
-11.3628
-11.9023
-12.3979
-12.8424
-13.2301
-13.5567
-13.8195
-14.0175
-14.1518
-14.225
-14.2408
-14.2041
-14.1204
-8.20573
-8.79678
-9.38437
-9.96161
-10.521
-11.0549
-11.556
-12.0173
-12.433
-12.7981
-13.1089
-13.3631
-13.5599
-13.6997
-13.7845
-13.8174
-13.8019
-13.7426
-8.10359
-8.66376
-9.21817
-9.76095
-10.2858
-10.7862
-11.2561
-11.6896
-12.0817
-12.4283
-12.7262
-12.9733
-13.1687
-13.3127
-13.4067
-13.453
-13.4546
-13.4151
-8.00756
-8.54236
-9.06971
-9.58452
-10.0814
-10.5548
-10.9995
-11.4106
-11.7837
-12.1153
-12.4026
-12.6437
-12.8378
-12.9848
-13.086
-13.143
-13.1583
-13.1346
-7.92075
-8.43499
-8.94052
-9.43287
-9.90732
-10.3591
-10.7838
-11.1769
-11.5349
-11.8544
-12.1332
-12.3694
-12.5622
-12.7115
-12.8182
-12.8836
-12.9097
-12.8988
-7.8454
-8.34332
-8.8316
-9.30625
-9.76311
-10.198
-10.6068
-10.9859
-11.3319
-11.642
-11.9139
-12.1462
-12.3379
-12.4889
-12.5998
-12.6717
-12.7062
-12.7053
-7.78331
-8.2687
-8.74377
-9.20491
-9.64834
-10.0703
-10.4672
-10.8355
-11.1724
-11.4752
-11.742
-11.9711
-12.1619
-12.3142
-12.4282
-12.505
-12.5458
-12.5525
-7.73559
-8.21188
-8.67738
-9.12876
-9.5625
-9.97515
-10.3634
-10.724
-11.0543
-11.3518
-11.6148
-11.8417
-12.0318
-12.1849
-12.3011
-12.3814
-12.4268
-12.439
-7.70336
-8.17373
-8.63302
-9.07806
-9.50553
-9.91215
-10.2947
-10.6504
-10.9764
-11.2705
-11.5309
-11.7564
-11.946
-12.0996
-12.2173
-12.2998
-12.3482
-12.3639
-7.68671
-8.15416
-8.61042
-9.05237
-9.47678
-9.88047
-10.2603
-10.6135
-10.9374
-11.2299
-11.4891
-11.7138
-11.9033
-12.0571
-12.1755
-12.2592
-12.3091
-12.3266
-3.32146
-3.78133
-4.24696
-4.71829
-5.19463
-5.6748
-6.15715
-6.63978
-7.12045
-7.5966
-8.0653
-8.52341
-8.96771
-9.39499
-9.80212
-10.186
-10.5439
-10.8732
-11.1717
-11.4375
-11.6693
-11.866
-12.0271
-12.1527
-3.32697
-3.7863
-4.2518
-4.7234
-5.20047
-5.68179
-6.16574
-6.65034
-7.13337
-7.61217
-8.08379
-8.545
-8.99248
-9.42291
-9.83302
-10.2197
-10.58
-10.9114
-11.2116
-11.4787
-11.7113
-11.9084
-12.0694
-12.1945
-3.33661
-3.79487
-4.26013
-4.73238
-5.21096
-5.69469
-6.18187
-6.67052
-7.15826
-7.64242
-8.1199
-8.58735
-9.04124
-9.47803
-9.89426
-10.2866
-10.6521
-10.9878
-11.2916
-11.5614
-11.7957
-11.9936
-12.1545
-12.2785
-3.35012
-3.80667
-4.27154
-4.74473
-5.22563
-5.713
-6.20514
-6.69991
-7.19489
-7.68721
-8.17365
-8.6506
-9.11428
-9.56083
-9.98647
-10.3876
-10.7609
-11.1035
-11.4128
-11.6868
-11.9238
-12.1228
-12.2834
-12.4057
-3.36596
-3.82007
-4.28431
-4.75872
-5.2427
-5.735
-6.23383
-6.737
-7.24185
-7.74539
-8.24409
-8.7341
-9.21124
-9.67124
-10.1099
-10.5232
-10.9075
-11.2595
-11.5765
-11.8563
-12.097
-12.2976
-12.4578
-12.5776
-3.38264
-3.8334
-4.29663
-4.77244
-5.26025
-5.75878
-6.26618
-6.78008
-7.29772
-7.81575
-8.33041
-8.8374
-9.33208
-9.80967
-10.2654
-10.6947
-11.0934
-11.4579
-11.785
-12.0723
-12.3179
-12.5205
-12.68
-12.7966
-3.39778
-3.84409
-4.30581
-4.78313
-5.27548
-5.78157
-6.29946
-6.8267
-7.3602
-7.89644
-8.43114
-8.95956
-9.47645
-9.97633
-10.4537
-10.9034
-11.3205
-11.7008
-12.0408
-12.3377
-12.5893
-12.7944
-12.9529
-13.0652
-3.40863
-3.84913
-4.30865
-4.78746
-5.28501
-5.79999
-6.33044
-6.87369
-7.42657
-7.98504
-8.54447
-9.09942
-9.6439
-10.1716
-10.676
-11.1512
-11.5913
-11.9914
-12.3475
-12.6563
-12.9153
-13.1234
-13.2803
-13.3871
-3.4116
-3.84467
-4.3011
-4.78123
-5.28453
-5.80973
-6.3548
-6.91709
-7.49303
-8.07839
-8.66784
-9.25524
-9.83365
-10.3956
-10.9336
-11.4402
-11.9087
-12.3334
-12.7093
-13.0327
-13.3007
-13.5121
-13.667
-13.7667
-3.40239
-3.82611
-4.27833
-4.75939
-5.26885
-5.80548
-6.36736
-6.95169
-7.55493
-8.17227
-8.79791
-9.42471
-10.0445
-10.6486
-11.2277
-11.7731
-12.2766
-12.7314
-13.1316
-13.4727
-13.7516
-13.9669
-14.1189
-14.2094
-3.3758
-3.78797
-4.23454
-4.71589
-5.23165
-5.78077
-6.36145
-6.97112
-7.60602
-8.26123
-8.93011
-9.6045
-10.2748
-10.9302
-11.5599
-12.1528
-12.6994
-13.191
-13.6209
-13.9837
-14.2757
-14.4953
-14.6432
-14.7219
-3.32574
-3.72384
-4.16304
-4.64367
-5.1655
-5.72775
-6.32908
-6.96715
-7.63856
-8.33803
-9.05839
-9.79014
-10.5218
-11.2402
-11.9318
-12.5832
-13.1824
-13.7192
-14.1852
-14.5744
-14.8822
-15.1068
-15.2491
-15.3127
-3.24513
-3.62642
-4.05615
-4.53456
-5.06159
-5.63703
-6.26014
-6.92951
-7.64212
-8.39303
-9.17434
-9.97515
-10.7815
-11.5772
-12.345
-13.0682
-13.732
-14.3239
-14.8343
-15.2556
-15.5826
-15.8129
-15.9477
-15.9918
-3.12603
-3.48766
-3.90551
-4.37957
-4.91012
-5.49769
-6.14286
-6.84547
-7.60393
-8.4138
-9.26705
-10.151
-11.0487
-11.9396
-12.8015
-13.6131
-14.3561
-15.0155
-15.58
-16.0408
-16.3913
-16.6283
-16.7532
-16.7721
-2.95945
-3.29853
-3.70159
-4.16823
-4.69915
-5.29619
-5.96175
-6.69818
-7.50603
-8.38273
-9.32042
-10.3048
-11.3148
-12.3237
-13.3023
-14.2232
-15.0632
-15.8052
-16.4361
-16.9459
-17.3259
-17.5711
-17.6828
-17.6691
-2.73718
-3.05136
-3.43654
-3.8917
-4.41812
-5.01941
-5.701
-6.46885
-7.32777
-8.27844
-9.31464
-10.4205
-11.5696
-12.7263
-13.8509
-14.9069
-15.8658
-16.7084
-17.421
-17.9918
-18.4094
-18.6653
-18.7597
-18.7036
-2.44721
-2.73451
-3.09818
-3.53622
-4.05061
-4.64743
-5.33627
-6.12902
-7.03703
-8.0674
-9.21781
-10.4718
-11.7958
-13.1404
-14.4495
-15.6732
-16.7769
-17.7415
-18.5544
-19.2023
-19.669
-19.9396
-20.0115
-19.8993
-2.08974
-2.35
-2.68855
-3.10202
-3.59309
-4.17101
-4.85139
-5.65456
-6.60268
-7.71398
-8.99459
-10.4297
-11.9761
-13.563
-15.1076
-16.5389
-17.8164
-18.9265
-19.8631
-20.6102
-21.1428
-21.4353
-21.479
-21.2935
-1.64313
-1.87893
-2.18998
-2.5706
-3.02388
-3.56276
-4.21038
-4.99928
-5.96807
-7.15387
-8.57874
-10.2352
-12.0697
-13.9776
-15.8288
-17.5182
-19.001
-20.2819
-21.3702
-22.2477
-22.8704
-23.1931
-23.197
-22.9108
-22.4006
-1.14554
-1.3614
-1.64156
-1.97721
-2.37097
-2.83921
-3.41398
-4.14287
-5.08808
-6.31858
-7.89167
-9.82244
-12.0462
-14.3968
-16.656
-18.6618
-20.3771
-21.852
-23.1296
-24.1858
-24.9415
-25.3099
-25.2558
-24.8263
-24.1276
-0.547887
-0.758995
-1.01245
-1.29489
-1.60687
-1.96664
-2.41417
-3.01675
-3.87065
-5.09654
-6.8156
-9.09728
-11.878
-14.8791
-17.6971
-20.0665
-21.9957
-23.6501
-25.1432
-26.434
-27.3773
-27.8163
-27.6824
-27.058
-26.1154
0.0101046
-0.206728
-0.432685
-0.646761
-0.844545
-1.0429
-1.28686
-1.66388
-2.31574
-3.43937
-5.26494
-7.98529
-11.5632
-15.5547
-19.2042
-22.025
-24.1185
-25.8989
-27.6273
-29.224
-30.4193
-30.9461
-30.6563
-29.737
-28.4653
0.52614
0.260246
0.0334967
-0.126377
-0.206053
-0.212802
-0.187396
-0.227327
-0.516549
-1.3544
-3.15889
-6.39533
-11.0807
-16.3407
-21.0289
-24.3307
-26.468
-28.2983
-30.3211
-32.3468
-33.9103
-34.7684
-34.2934
-32.9254
-31.18
0.538572
0.21021
-0.023982
-0.126908
-0.0734705
0.143719
0.502482
0.92884
1.23641
1.03565
-0.355395
-3.81443
-8.9916
-15.9124
-21.9123
-26.0496
-28.1271
-29.6559
-31.6443
-33.8812
-35.883
-38.5882
-38.4043
-36.5742
-34.3613
-32.0864
-0.555745
-0.740758
-0.730404
-0.485959
0.0239871
0.813806
1.8543
3.02728
3.96047
3.88945
0.556851
-4.89772
-16.0095
-26.3756
-33.5226
-32.1782
-32.3497
-35.1003
-37.6331
-39.6126
-40.9739
-41.5185
-39.0103
-36.2642
-33.2603
-1.97227
-1.8304
-1.39021
-0.588244
0.63635
2.32261
4.46382
6.86941
7.54034
8.48158
2.64372
-10.5024
-25.9371
-59.6784
-44.2922
-28.2958
-36.1337
-38.6925
-40.3935
-42.2237
-42.1481
-40.1764
-38.2775
-35.1726
-2.57597
-2.39769
-1.90563
-1.00399
0.410773
2.46123
5.29444
8.98321
11.5475
15.7296
13.1455
0.768068
-39.8039
-41.6558
-41.9632
-40.4194
-37.7275
-35.2681
-2.78086
-2.35198
-1.53276
-0.234074
1.61942
4.09352
7.19303
10.2983
14.516
15.1666
19.2574
-40.7326
-42.9136
-44.04
-41.6977
-38.3518
-35.1441
-40.3329
-42.6005
-44.9249
-46.226
-44.1625
-39.8935
-35.665
-41.8244
-45.1052
-46.2962
-42.6643
-38.6559
-41.5619
-42.044
-39.8192
-37.0284
-3.9782
-5.9042
-8.7434
-12.4703
-16.6336
-20.4345
-23.3397
-25.414
-27.064
-28.5638
-29.8663
-30.7251
-30.9068
-30.2856
-29.0908
-27.6443
-26.1354
-5.58621
-7.38719
-9.76218
-12.6484
-15.7595
-18.6706
-21.0877
-22.9973
-24.5578
-25.8901
-26.9715
-27.6736
-27.8548
-27.4725
-26.6377
-25.5401
-24.3324
-23.0947
-6.75802
-8.39563
-10.3963
-12.6935
-15.1151
-17.4307
-19.462
-21.1578
-22.5624
-23.7226
-24.6252
-25.2022
-25.3817
-25.1437
-24.5517
-23.7248
-22.7749
-21.7741
-7.54636
-9.02072
-10.7283
-12.6132
-14.5662
-16.4497
-18.1492
-19.6116
-20.8375
-21.8385
-22.6023
-23.0937
-23.2761
-23.1413
-22.7293
-22.1151
-21.3765
-20.5722
-8.06183
-9.38045
-10.8529
-12.4337
-14.0489
-15.6106
-17.0426
-18.2995
-19.3656
-20.2354
-20.8975
-21.3316
-21.518
-21.4557
-21.1724
-20.717
-20.144
-19.4987
-8.37515
-9.55435
-10.8353
-12.1827
-13.5446
-14.8618
-16.081
-17.165
-18.0933
-18.8542
-19.4367
-19.8276
-20.0166
-20.0071
-19.8188
-19.485
-19.0437
-18.5298
-8.55033
-9.60816
-10.7333
-11.898
-13.0648
-14.192
-15.2411
-16.1819
-16.9945
-17.6655
-18.185
-18.5436
-18.7362
-18.7672
-18.6511
-18.411
-18.074
-17.6659
-8.62329
-9.57708
-10.575
-11.5951
-12.6094
-13.5873
-14.5001
-15.3238
-16.0406
-16.6381
-17.107
-17.4404
-17.6359
-17.6975
-17.6361
-17.4681
-17.2132
-16.8911
-8.62708
-9.49218
-10.3855
-11.2895
-12.1825
-13.0418
-13.8451
-14.5733
-15.2116
-15.7487
-16.1767
-16.49
-16.6875
-16.7724
-16.7529
-16.641
-16.4513
-16.1985
-8.58281
-9.37275
-10.1798
-10.9896
-11.7854
-12.5495
-13.2645
-13.9153
-14.4893
-14.9771
-15.3716
-15.6685
-15.8669
-15.9695
-15.9824
-15.9144
-15.7765
-15.5801
-8.50769
-9.23417
-9.96988
-10.703
-11.4202
-12.1075
-12.7511
-13.3388
-13.8603
-14.3076
-14.6746
-14.9579
-15.1565
-15.2725
-15.3104
-15.277
-15.1805
-15.0297
-8.41373
-9.08683
-9.76347
-10.4339
-11.0872
-11.7123
-12.298
-12.8344
-13.313
-13.727
-14.0714
-14.3431
-14.5413
-14.6674
-14.7249
-14.7188
-14.6555
-14.5418
-8.31026
-8.93863
-9.56641
-10.1854
-10.7868
-11.3612
-11.8999
-12.3945
-12.838
-13.2248
-13.5505
-13.8124
-14.0098
-14.1435
-14.2162
-14.2318
-14.1951
-14.1115
-8.20412
-8.7952
-9.38265
-9.95957
-10.5185
-11.0519
-11.5522
-12.0129
-12.4278
-12.7921
-13.1024
-13.356
-13.5523
-13.6918
-13.7764
-13.8092
-13.7938
-13.7347
-8.10055
-8.66073
-9.21503
-9.75757
-10.282
-10.782
-11.2514
-11.6844
-12.076
-12.4221
-12.7195
-12.9662
-13.1613
-13.3051
-13.399
-13.4454
-13.4471
-13.4078
-8.00346
-8.53828
-9.06554
-9.58016
-10.0767
-10.5498
-10.9941
-11.4048
-11.7776
-12.1088
-12.3958
-12.6367
-12.8306
-12.9776
-13.0787
-13.1358
-13.1512
-13.1278
-7.91587
-8.43013
-8.93559
-9.4278
-9.90205
-10.3536
-10.778
-11.1708
-11.5285
-11.8478
-12.1264
-12.3624
-12.5551
-12.7045
-12.8112
-12.8767
-12.903
-12.8923
-7.83995
-8.3379
-8.82614
-9.30069
-9.75738
-10.1921
-10.6007
-10.9796
-11.3254
-11.6353
-11.9071
-12.1393
-12.331
-12.482
-12.593
-12.6651
-12.6997
-12.6991
-7.77746
-8.26288
-8.73792
-9.19899
-9.6423
-10.0641
-10.4608
-10.829
-11.1658
-11.4685
-11.7351
-11.9643
-12.1551
-12.3074
-12.4215
-12.4985
-12.5395
-12.5465
-7.72947
-8.20579
-8.67128
-9.12259
-9.55625
-9.96879
-10.3569
-10.7174
-11.0476
-11.3451
-11.608
-11.8349
-12.025
-12.1782
-12.2946
-12.375
-12.4207
-12.4331
-7.69707
-8.16747
-8.62675
-9.07174
-9.49914
-9.90567
-10.2882
-10.6437
-10.9696
-11.2637
-11.5241
-11.7496
-11.9393
-12.0929
-12.2108
-12.2934
-12.3421
-12.3581
-7.68032
-8.14781
-8.60406
-9.04597
-9.47032
-9.87392
-10.2537
-10.6068
-10.9307
-11.2231
-11.4823
-11.7071
-11.8965
-12.0505
-12.169
-12.2529
-12.303
-12.3208
-3.30461
-3.7653
-4.2317
-4.70373
-5.18071
-5.66142
-6.14422
-6.6272
-7.10814
-7.58447
-8.05324
-8.51135
-8.95558
-9.38276
-9.78972
-10.1735
-10.5311
-10.8602
-11.1586
-11.4243
-11.656
-11.8527
-12.014
-12.1397
-3.31012
-3.7703
-4.2366
-4.70895
-5.18666
-5.66854
-6.15294
-6.63792
-7.12121
-7.60019
-8.07188
-8.53309
-8.98051
-9.41081
-9.82077
-10.2072
-10.5674
-10.8985
-11.1985
-11.4655
-11.698
-11.8951
-12.0562
-12.1814
-3.31971
-3.77891
-4.24505
-4.71809
-5.19738
-5.68169
-6.16937
-6.65839
-7.14643
-7.63077
-8.10834
-8.57577
-9.02958
-9.46623
-9.88226
-10.2744
-10.6395
-10.975
-11.2785
-11.5482
-11.7824
-11.9801
-12.1411
-12.2652
-3.33316
-3.79078
-4.25664
-4.73072
-5.2124
-5.70043
-6.1931
-6.68831
-7.1836
-7.67613
-8.16264
-8.63958
-9.10314
-9.5495
-9.97488
-10.3757
-10.7487
-11.0909
-11.3998
-11.6735
-11.9103
-12.1092
-12.2698
-12.3921
-3.34895
-3.8043
-4.26968
-4.74512
-5.22999
-5.72305
-6.22251
-6.72616
-7.23138
-7.73513
-8.23392
-8.72388
-9.20085
-9.66059
-10.0989
-10.5118
-10.8956
-11.2471
-11.5637
-11.8431
-12.0835
-12.2838
-12.4438
-12.5637
-3.3656
-3.81782
-4.2824
-4.75942
-5.24829
-5.74771
-6.25584
-6.77033
-7.28838
-7.80667
-8.3214
-8.82831
-9.32276
-9.79998
-10.2552
-10.6839
-11.082
-11.4459
-11.7724
-12.0591
-12.3042
-12.5065
-12.6657
-12.7822
-3.38076
-3.8288
-4.29213
-4.7709
-5.26452
-5.77169
-6.29047
-6.8184
-7.35242
-7.88893
-8.42373
-8.95202
-9.46859
-9.96798
-10.4447
-10.8936
-11.3099
-11.6893
-12.0285
-12.3246
-12.5755
-12.7801
-12.9381
-13.0502
-3.39169
-3.83428
-4.29574
-4.77631
-5.27539
-5.7917
-6.32323
-6.86737
-7.42085
-7.9797
-8.53921
-9.094
-9.63806
-10.1651
-10.6687
-11.1428
-11.5818
-11.9807
-12.3357
-12.6433
-12.9014
-13.1086
-13.2649
-13.3713
-3.39485
-3.83045
-4.28924
-4.77149
-5.27668
-5.80352
-6.34997
-6.91333
-7.49009
-8.07591
-8.66551
-9.2527
-9.83057
-10.3917
-10.9285
-11.4337
-11.9008
-12.3239
-12.6982
-13.02
-13.2866
-13.4969
-13.6507
-13.7497
-3.38597
-3.81276
-4.26783
-4.7515
-5.2633
-5.80199
-6.3656
-6.95136
-7.55563
-8.17364
-8.79949
-9.42608
-10.0452
-10.6482
-11.2258
-11.7694
-12.2709
-12.7235
-13.1216
-13.4606
-13.7375
-13.9511
-14.1016
-14.1909
-3.35988
-3.77576
-4.22581
-4.71037
-5.22905
-5.78076
-6.36369
-6.97521
-7.61156
-8.26768
-8.93697
-9.61117
-10.2806
-10.9347
-11.5624
-12.153
-12.6968
-13.1856
-13.6125
-13.9723
-14.2616
-14.4787
-14.6245
-14.7014
-3.31052
-3.71311
-4.15655
-4.64114
-5.16662
-5.73219
-6.33643
-6.97702
-7.65039
-8.35127
-9.07233
-9.80403
-10.5348
-11.2515
-11.9406
-12.5888
-13.1844
-13.7172
-14.1792
-14.5644
-14.8683
-15.0894
-15.2285
-15.2894
-3.23078
-3.61747
-4.05239
-4.5357
-5.06734
-5.64702
-6.27401
-6.94675
-7.6622
-8.41521
-9.19781
-9.99889
-10.8044
-11.598
-12.3626
-13.0816
-13.7404
-14.3269
-14.8318
-15.2477
-15.5693
-15.7945
-15.9247
-15.9648
-3.11271
-3.48085
-3.90502
-4.38517
-4.92153
-5.51461
-6.1649
-6.8722
-7.63471
-8.44788
-9.30338
-10.1883
-11.0854
-11.9739
-12.8315
-13.6374
-14.3735
-15.0256
-15.5828
-16.0362
-16.3793
-16.609
-16.7271
-16.7399
-2.94712
-3.29399
-3.70474
-4.17893
-4.71723
-5.32141
-5.99387
-6.73677
-7.55059
-8.43242
-9.37411
-10.3608
-11.3709
-12.3771
-13.3502
-14.263
-15.0935
-15.8254
-16.4465
-16.9464
-17.3161
-17.551
-17.6526
-17.6297
-2.72602
-3.04948
-3.44395
-3.90839
-4.44408
-5.05463
-5.7454
-6.52233
-7.38999
-8.34879
-9.39196
-10.5028
-11.6536
-12.8076
-13.9247
-14.969
-15.914
-16.7425
-17.4419
-17.9999
-18.4038
-18.6451
-18.7245
-18.6541
-2.43623
-2.73461
-3.10955
-3.55904
-4.08508
-4.6938
-5.39487
-6.20017
-7.12103
-8.16424
-9.32679
-10.5907
-11.9198
-13.2623
-14.5608
-15.7667
-16.8495
-17.7941
-18.59
-19.2224
-19.6715
-19.9212
-19.97
-19.835
-2.08058
-2.35339
-2.70504
-3.13212
-3.6374
-4.23025
-4.92643
-5.74661
-6.71317
-7.8444
-9.14594
-10.6006
-12.1603
-13.7482
-15.2773
-16.6798
-17.9241
-19.0055
-19.9209
-20.6513
-21.1641
-21.4278
-21.4349
-21.2112
-1.63489
-1.88507
-2.21107
-2.6073
-3.07713
-3.63381
-4.30114
-5.11253
-6.10763
-7.32519
-8.78848
-10.486
-12.3526
-14.2684
-16.0937
-17.7307
-19.1565
-20.3948
-21.4597
-22.324
-22.9285
-23.2126
-23.1575
-22.807
-22.2448
-1.14086
-1.37369
-1.67103
-2.02434
-2.43681
-2.9255
-3.52389
-4.28235
-5.26614
-6.54799
-8.18804
-10.1975
-12.4885
-14.8592
-17.0699
-18.9765
-20.5921
-22.0073
-23.2693
-24.3299
-25.0751
-25.3896
-25.237
-24.6996
-23.9198
-0.563038
-0.792213
-1.06444
-1.36608
-1.69798
-2.0794
-2.55244
-3.18757
-4.08816
-5.38524
-7.213
-9.6462
-12.5704
-15.6165
-18.3296
-20.4945
-22.243
-23.8217
-25.3379
-26.6937
-27.6592
-28.0082
-27.6926
-26.8861
-25.8249
-0.0588773
-0.295448
-0.542807
-0.77959
-0.999192
-1.21682
-1.47755
-1.87281
-2.5567
-3.75445
-5.74568
-8.76098
-12.6577
-16.7968
-20.2268
-22.5841
-24.3086
-25.9863
-27.8429
-29.674
-30.9919
-31.3382
-30.7051
-29.4659
-28.0208
0.40541
0.128426
-0.111315
-0.285057
-0.378611
-0.394518
-0.360927
-0.369429
-0.623473
-1.48066
-3.5063
-7.36325
-12.6446
-18.4302
-22.7572
-25.0511
-26.4693
-28.1704
-30.5618
-33.2281
-35.1078
-35.3509
-34.3092
-32.5081
-30.5631
0.314257
0.00604334
-0.208474
-0.289554
-0.207886
0.0497882
0.468979
1.01192
1.51209
1.49972
0.0833263
-4.42711
-11.0406
-18.8436
-24.8047
-27.2183
-27.9589
-29.2159
-31.8559
-35.2219
-37.5901
-38.0316
-37.7008
-35.665
-33.4029
-31.1907
-0.770358
-0.957249
-0.930112
-0.641372
-0.0448876
0.896407
2.18199
3.76853
5.38757
3.57309
1.32875
-8.42096
-23.8903
-31.3061
-32.5891
-30.5782
-30.4283
-33.7458
-38.4009
-43.7837
-42.3464
-40.1103
-37.9799
-35.6849
-33.1502
-1.97796
-1.82236
-1.34891
-0.470427
0.916243
2.91126
5.56689
6.82701
10.6291
11.0779
0.852411
-32.2112
-53.0681
-52.0394
-42.1288
-41.2506
-40.1123
-38.7602
-35.6941
-3.16489
-2.88261
-2.26882
-1.2061
0.431831
2.79377
6.00608
9.25412
15.5062
18.8222
6.53836
-41.8718
-42.1214
-40.0098
-38.6842
-36.4454
-3.50202
-3.01579
-2.07949
-0.583935
1.56961
4.44087
8.66247
14.5831
19.0476
18.3618
-45.4489
-41.818
-38.7551
-35.6668
-45.3688
-48.1995
-45.1624
-38.7468
-34.7917
-44.5642
-46.7936
-41.4731
-36.9782
-42.1445
-40.1272
-38.2975
-35.1312
-38.0966
-37.0737
-35.0943
-32.521
-4.27428
-6.36548
-9.49423
-13.5265
-17.8183
-21.3827
-23.8072
-25.512
-27.0893
-28.7744
-30.3851
-31.4418
-31.4793
-30.5077
-28.9573
-27.2924
-25.6991
-5.85961
-7.76634
-10.287
-13.3063
-16.45
-19.2445
-21.4489
-23.1789
-24.6791
-26.0619
-27.2442
-28.0071
-28.1283
-27.5722
-26.5441
-25.311
-24.0398
-22.7887
-6.97546
-8.67697
-10.7516
-13.1093
-15.5432
-17.8029
-19.7302
-21.3272
-22.6808
-23.8404
-24.7672
-25.3558
-25.4977
-25.169
-24.4688
-23.5558
-22.5572
-21.5396
-7.70702
-9.21776
-10.9633
-12.8762
-14.8323
-16.6855
-18.3296
-19.7351
-20.9234
-21.9096
-22.6716
-23.1561
-23.3098
-23.1232
-22.6502
-21.9841
-21.2135
-20.3964
-8.18326
-9.52122
-11.0111
-12.6029
-14.2163
-15.7602
-17.1618
-18.3858
-19.4258
-20.2796
-20.9313
-21.3516
-21.5157
-21.4224
-21.1043
-20.6185
-20.0252
-19.3714
-8.46455
-9.65469
-10.9441
-12.295
-13.6533
-14.9586
-16.1595
-17.223
-18.1331
-18.8799
-19.4504
-19.8277
-20.0004
-19.9716
-19.763
-19.4115
-18.9581
-18.4381
-8.61462
-9.67856
-10.8077
-11.9731
-13.1362
-14.2553
-15.2924
-16.2197
-17.0193
-17.6791
-18.1881
-18.5356
-18.7167
-18.7353
-18.6068
-18.356
-18.0114
-17.5998
-8.66807
-9.62522
-10.6248
-11.6443
-12.6553
-13.6273
-14.532
-15.3464
-16.054
-16.6428
-17.1033
-17.4284
-17.6157
-17.669
-17.5998
-17.4253
-17.1658
-16.8413
-8.65719
-9.52409
-10.4179
-11.3208
-12.211
-13.0658
-13.8633
-14.5851
-15.2167
-15.7473
-16.1689
-16.4761
-16.6677
-16.7471
-16.7226
-16.6067
-16.4142
-16.1604
-8.6018
-9.39267
-10.1997
-11.0083
-11.8018
-12.5625
-13.2733
-13.9193
-14.4885
-14.9713
-15.3612
-15.6536
-15.8479
-15.9468
-15.9565
-15.8861
-15.7466
-15.5496
-8.51833
-9.24526
-9.98065
-10.7127
-11.428
-12.1127
-12.7532
-13.3374
-13.8553
-14.299
-14.6626
-14.9427
-15.1384
-15.2519
-15.2878
-15.253
-15.1556
-15.0048
-8.41809
-9.09138
-9.76764
-10.4371
-11.0889
-11.712
-12.2953
-12.8292
-13.3051
-13.7165
-14.0585
-14.3279
-14.5241
-14.6486
-14.7048
-14.6979
-14.6342
-14.5206
-8.3099
-8.93834
-9.56575
-10.184
-10.7841
-11.3571
-11.894
-12.3867
-12.8283
-13.2131
-13.537
-13.7973
-13.9934
-14.126
-14.198
-14.2132
-14.1763
-14.0931
-8.20024
-8.79132
-9.37845
-9.95473
-10.5128
-11.045
-11.544
-12.0032
-12.4167
-12.7797
-13.0886
-13.3412
-13.5366
-13.6754
-13.7596
-13.7922
-13.777
-13.7182
-8.09403
-8.65421
-9.20824
-9.75028
-10.274
-10.7732
-11.2415
-11.6735
-12.064
-12.4091
-12.7057
-12.9516
-13.1461
-13.2895
-13.3833
-13.4296
-13.4316
-13.3928
-7.99499
-8.5298
-9.05685
-9.57109
-10.0671
-10.5395
-10.9831
-11.393
-11.765
-12.0956
-12.382
-12.6223
-12.8158
-12.9626
-13.0638
-13.121
-13.1367
-13.1137
-7.90595
-8.42022
-8.92553
-9.41745
-9.89129
-10.3424
-10.7661
-11.1584
-11.5155
-11.8344
-12.1125
-12.3482
-12.5408
-12.69
-12.7969
-12.8626
-12.8891
-12.879
-7.82899
-8.32696
-8.81508
-9.28942
-9.7458
-10.1801
-10.5883
-10.9668
-11.3122
-11.6217
-11.8933
-12.1253
-12.3169
-12.468
-12.5791
-12.6514
-12.6865
-12.6863
-7.76575
-8.2512
-8.72617
-9.18707
-9.63015
-10.0517
-10.4481
-10.816
-11.1524
-11.4549
-11.7214
-11.9504
-12.1412
-12.2936
-12.408
-12.4852
-12.5266
-12.5341
-7.71724
-8.1936
-8.65904
-9.11024
-9.54372
-9.95604
-10.3439
-10.7042
-11.0341
-11.3315
-11.5942
-11.8212
-12.0114
-12.1646
-12.2812
-12.362
-12.408
-12.421
-7.68452
-8.15497
-8.61422
-9.05912
-9.48637
-9.89272
-10.275
-10.6304
-10.9561
-11.2501
-11.5105
-11.7359
-11.9257
-12.0795
-12.1976
-12.2806
-12.3296
-12.3461
-7.66761
-8.13515
-8.59138
-9.0332
-9.45743
-9.86088
-10.2405
-10.5934
-10.9172
-11.2095
-11.4687
-11.6934
-11.883
-12.0371
-12.1559
-12.2401
-12.2906
-12.3089
-3.27948
-3.7414
-4.20895
-4.68204
-5.15995
-5.64144
-6.12489
-6.60837
-7.08967
-7.56619
-8.03503
-8.49311
-8.93724
-9.36426
-9.77101
-10.1545
-10.5119
-10.8407
-11.1388
-11.4044
-11.636
-11.8328
-11.9942
-12.1202
-3.28495
-3.74643
-4.21393
-4.68738
-5.16606
-5.64877
-6.13384
-6.61933
-7.10299
-7.58218
-8.05394
-8.51511
-8.9624
-9.39252
-9.80223
-10.1884
-10.5482
-10.8791
-11.1788
-11.4456
-11.678
-11.8751
-12.0363
-12.1618
-3.29448
-3.75508
-4.22252
-4.69676
-5.17709
-5.66229
-6.15069
-6.64027
-7.1287
-7.61327
-8.0909
-8.55828
-9.01193
-9.44834
-9.86406
-10.2558
-10.6206
-10.9557
-11.2589
-11.5282