/*--------------------------------*- C++ -*----------------------------------*\
  =========                 |
  \\      /  F ield         | OpenFOAM: The Open Source CFD Toolbox
   \\    /   O peration     | Website:  https://openfoam.org
    \\  /    A nd           | Version:  13
     \\/     M anipulation  |
\*---------------------------------------------------------------------------*/
FoamFile
{
    format      ascii;
    class       volScalarField;
    location    "100";
    object      omega;
}
// * * * * * * * * * * * * * * * * * * * * * * * * * * * * * * * * * * * * * //

dimensions      [0 0 -1 0 0 0 0];

internalField   nonuniform List<scalar> 
169896
(
29.7488
29.4979
29.2511
29.0085
28.7698
28.535
28.304
28.0766
27.8529
27.6327
27.416
27.2026
26.9925
26.7857
26.5819
26.3813
26.1836
25.9889
25.797
25.608
25.4217
25.238
25.0571
24.8787
24.7028
24.5294
24.3584
24.1898
24.0235
23.8595
23.6977
23.5381
23.3807
23.2254
23.0721
22.9209
22.7716
22.6243
22.4789
22.3354
22.1938
22.054
21.9159
21.7796
21.645
21.5122
21.381
21.2514
21.1235
20.9971
20.8724
20.7491
20.6274
20.5072
20.3885
20.2713
20.1554
20.0411
19.9281
19.8165
19.7063
19.5974
19.49
19.3838
19.279
19.1755
19.0732
18.9723
18.8727
18.7743
18.6772
18.5813
18.4866
18.3932
29.7488
29.4979
29.2511
29.0085
28.7698
28.535
28.304
28.0766
27.8529
27.6327
27.416
27.2026
26.9925
26.7857
26.5819
26.3813
26.1836
25.9889
25.797
25.608
25.4217
25.238
25.0571
24.8787
24.7028
24.5294
24.3584
24.1898
24.0235
23.8595
23.6977
23.5381
23.3807
23.2253
23.0721
22.9208
22.7716
22.6243
22.4789
22.3354
22.1937
22.0539
21.9158
21.7795
21.6449
21.5121
21.3809
21.2513
21.1234
20.997
20.8722
20.749
20.6273
20.5071
20.3883
20.2711
20.1552
20.0408
19.9278
19.8162
19.706
19.5972
19.4897
19.3835
19.2787
19.1751
19.0729
18.972
18.8723
18.7739
18.6768
18.5809
18.4862
18.3928
29.7488
29.4979
29.2511
29.0085
28.7698
28.535
28.304
28.0766
27.8529
27.6327
27.416
27.2026
26.9925
26.7856
26.5819
26.3812
26.1836
25.9888
25.7969
25.6079
25.4216
25.2379
25.057
24.8785
24.7027
24.5292
24.3582
24.1896
24.0233
23.8593
23.6975
23.5379
23.3804
23.225
23.0717
22.9205
22.7712
22.6239
22.4785
22.3349
22.1932
22.0534
21.9153
21.779
21.6444
21.5115
21.3802
21.2506
21.1226
20.9962
20.8714
20.7481
20.6264
20.5061
20.3874
20.2701
20.1542
20.0397
19.9267
19.8151
19.7048
19.5959
19.4883
19.3821
19.2772
19.1736
19.0714
18.9704
18.8706
18.7722
18.675
18.5791
18.4843
18.3908
29.7488
29.4979
29.2511
29.0084
28.7697
28.5349
28.3039
28.0765
27.8528
27.6325
27.4158
27.2023
26.9922
26.7853
26.5815
26.3807
26.183
25.9882
25.7963
25.6071
25.4208
25.2371
25.056
24.8775
24.7015
24.528
24.3569
24.1882
24.0218
23.8577
23.6958
23.5361
23.3785
23.2231
23.0697
22.9183
22.7689
22.6215
22.476
22.3323
22.1905
22.0506
21.9124
21.7759
21.6412
21.5082
21.3768
21.2471
21.119
20.9925
20.8675
20.7441
20.6222
20.5019
20.383
20.2655
20.1495
20.0349
19.9217
19.81
19.6995
19.5905
19.4828
19.3764
19.2714
19.1676
19.0652
18.964
18.8641
18.7655
18.6681
18.572
18.4771
18.3834
29.7486
29.4975
29.2505
29.0076
28.7686
28.5335
28.3021
28.0744
27.8503
27.6298
27.4126
27.1989
26.9884
26.7811
26.5769
26.3758
26.1777
25.9825
25.7902
25.6007
25.4139
25.2299
25.0484
24.8696
24.6932
24.5194
24.3479
24.1789
24.0121
23.8476
23.6854
23.5254
23.3675
23.2117
23.058
22.9063
22.7566
22.6089
22.463
22.3191
22.177
22.0367
21.8983
21.7615
21.6265
21.4932
21.3616
21.2316
21.1032
20.9764
20.8512
20.7275
20.6053
20.4847
20.3655
20.2478
20.1315
20.0166
19.9031
19.791
19.6803
19.571
19.463
19.3563
19.2509
19.1469
19.0441
18.9426
18.8424
18.7435
18.6458
18.5493
18.4541
18.36
29.7458
29.4915
29.2416
28.9959
28.7543
28.5167
28.2831
28.0532
27.8271
27.6046
27.3856
27.1701
26.958
26.7492
26.5436
26.3411
26.1418
25.9454
25.752
25.5614
25.3737
25.1887
25.0064
24.8267
24.6496
24.475
24.3029
24.1332
23.9658
23.8008
23.638
23.4775
23.3191
23.1629
23.0088
22.8567
22.7067
22.5586
22.4124
22.2682
22.1258
21.9853
21.8465
21.7095
21.5743
21.4408
21.3089
21.1787
21.0501
20.9231
20.7977
20.6738
20.5515
20.4306
20.3112
20.1933
20.0768
19.9617
19.8481
19.7358
19.6249
19.5153
19.4071
19.3002
19.1946
19.0903
18.9873
18.8855
18.7851
18.6858
18.5879
18.4911
18.3956
18.3012
29.7396
29.4787
29.2224
28.9707
28.7234
28.4804
28.2417
28.007
27.7763
27.5495
27.3265
27.1072
26.8914
26.6792
26.4704
26.2649
26.0627
25.8636
25.6677
25.4748
25.2848
25.0977
24.9135
24.732
24.5532
24.377
24.2034
24.0324
23.8638
23.6976
23.5337
23.3722
23.2129
23.0559
22.901
22.7482
22.5976
22.4489
22.3023
22.1576
22.0148
21.8739
21.7349
21.5976
21.4622
21.3285
21.1965
21.0662
20.9375
20.8105
20.685
20.5612
20.4388
20.318
20.1987
20.0809
19.9645
19.8495
19.736
19.6238
19.5131
19.4037
19.2956
19.1888
19.0834
18.9793
18.8764
18.7748
18.6745
18.5755
18.4776
18.381
18.2856
18.1915
29.7346
29.4681
29.2064
28.9494
28.6971
28.4493
28.2059
27.9667
27.7317
27.5007
27.2736
27.0504
26.8309
26.6151
26.4028
26.194
25.9886
25.7865
25.5876
25.3918
25.1991
25.0094
24.8227
24.6388
24.4577
24.2793
24.1036
23.9305
23.76
23.5919
23.4263
23.2631
23.1022
22.9437
22.7873
22.6332
22.4812
22.3313
22.1834
22.0376
21.8938
21.7519
21.6119
21.4737
21.3374
21.2029
21.0702
20.9392
20.8099
20.6822
20.5562
20.4319
20.3091
20.1878
20.0681
19.9499
19.8332
19.7179
19.6041
19.4917
19.3807
19.2711
19.1629
19.0561
18.9505
18.8463
18.7434
18.6418
18.5415
18.4425
18.3447
18.2482
18.1528
18.0588
29.7316
29.4615
29.1964
28.9361
28.6806
28.4296
28.183
27.9408
27.7028
27.4689
27.239
27.013
26.7908
26.5724
26.3575
26.1462
25.9384
25.7339
25.5327
25.3347
25.1398
24.9479
24.7591
24.5732
24.3901
24.2098
24.0322
23.8573
23.685
23.5153
23.348
23.1832
23.0207
22.8606
22.7028
22.5472
22.3938
22.2425
22.0934
21.9463
21.8012
21.6582
21.517
21.3778
21.2404
21.1049
20.9711
20.8391
20.7089
20.5804
20.4535
20.3283
20.2047
20.0827
19.9623
19.8434
19.726
19.6101
19.4957
19.3827
19.2712
19.1611
19.0524
18.9451
18.8391
18.7345
18.6313
18.5293
18.4287
18.3294
18.2313
18.1346
18.0391
17.9448
29.7298
29.4576
29.1905
28.9282
28.6707
28.4178
28.1693
27.9252
27.6854
27.4497
27.218
26.9903
26.7664
26.5462
26.3297
26.1168
25.9073
25.7013
25.4985
25.299
25.1026
24.9093
24.719
24.5316
24.3472
24.1655
23.9866
23.8104
23.6368
23.4658
23.2973
23.1312
22.9676
22.8063
22.6473
22.4906
22.3361
22.1838
22.0336
21.8854
21.7394
21.5953
21.4532
21.313
21.1747
21.0383
20.9036
20.7708
20.6397
20.5104
20.3827
20.2567
20.1324
20.0097
19.8885
19.7689
19.6509
19.5344
19.4193
19.3058
19.1937
19.083
18.9738
18.8659
18.7595
18.6545
18.5508
18.4484
18.3474
18.2477
18.1493
18.0522
17.9564
17.8619
29.7287
29.4553
29.187
28.9235
28.6647
28.4106
28.161
27.9158
27.6748
27.438
27.2052
26.9764
26.7515
26.5303
26.3127
26.0988
25.8883
25.6812
25.4775
25.2769
25.0796
24.8854
24.6941
24.5059
24.3205
24.1379
23.9581
23.781
23.6066
23.4347
23.2653
23.0985
22.934
22.7719
22.6121
22.4546
22.2994
22.1463
21.9953
21.8465
21.6997
21.5549
21.4121
21.2712
21.1322
20.9951
20.8598
20.7263
20.5946
20.4646
20.3364
20.2098
20.0849
19.9615
19.8398
19.7197
19.6011
19.4841
19.3685
19.2545
19.1419
19.0308
18.9211
18.8128
18.706
18.6005
18.4965
18.3938
18.2924
18.1924
18.0937
17.9963
17.9003
17.8055
29.728
29.4539
29.1847
28.9205
28.661
28.4062
28.1558
27.9099
27.6682
27.4307
27.1973
26.9678
26.7421
26.5203
26.3021
26.0874
25.8763
25.6686
25.4642
25.2631
25.0651
24.8703
24.6785
24.4896
24.3036
24.1205
23.9401
23.7625
23.5874
23.415
23.2451
23.0777
22.9127
22.75
22.5897
22.4317
22.2759
22.1223
21.9709
21.8215
21.6742
21.5289
21.3856
21.2442
21.1048
20.9672
20.8315
20.6975
20.5654
20.435
20.3062
20.1792
20.0539
19.9301
19.808
19.6875
19.5685
19.4511
19.3352
19.2207
19.1078
18.9963
18.8863
18.7777
18.6706
18.5648
18.4605
18.3575
18.2559
18.1556
18.0567
17.9591
17.8629
17.7679
29.7276
29.4529
29.1833
28.9186
28.6586
28.4033
28.1525
27.9061
27.6639
27.426
27.1921
26.9621
26.7361
26.5138
26.2952
26.0801
25.8686
25.6605
25.4557
25.2541
25.0558
24.8605
24.6683
24.4791
24.2927
24.1092
23.9284
23.7504
23.575
23.4022
23.2319
23.0641
22.8988
22.7358
22.5751
22.4168
22.2606
22.1067
21.9549
21.8052
21.6575
21.5119
21.3683
21.2266
21.0868
20.9489
20.8128
20.6786
20.5461
20.4154
20.2864
20.159
20.0334
19.9094
19.7869
19.6661
19.5469
19.4292
19.313
19.1983
19.0851
18.9734
18.8631
18.7543
18.6469
18.5409
18.4364
18.3332
18.2314
18.131
18.0319
17.9342
17.8378
17.7427
29.7273
29.4523
29.1823
28.9173
28.657
28.4014
28.1502
27.9035
27.6611
27.4228
27.1886
26.9584
26.732
26.5094
26.2905
26.0752
25.8634
25.655
25.4499
25.2481
25.0495
24.854
24.6615
24.472
24.2854
24.1016
23.9206
23.7423
23.5667
23.3936
23.2231
23.0551
22.8895
22.7262
22.5653
22.4067
22.2503
22.0962
21.9441
21.7942
21.6463
21.5005
21.3566
21.2147
21.0747
20.9365
20.8003
20.6658
20.5331
20.4021
20.2729
20.1454
20.0195
19.8953
19.7726
19.6516
19.5321
19.4142
19.2978
19.183
19.0696
18.9577
18.8473
18.7383
18.6307
18.5246
18.4199
18.3166
18.2147
18.1141
18.015
17.9172
17.8207
17.7256
29.7271
29.4518
29.1817
28.9164
28.6559
28.4
28.1487
27.9018
27.6591
27.4206
27.1862
26.9558
26.7293
26.5065
26.2874
26.0718
25.8598
25.6513
25.446
25.244
25.0452
24.8495
24.6568
24.4672
24.2804
24.0964
23.9152
23.7367
23.5609
23.3877
23.217
23.0488
22.883
22.7196
22.5586
22.3998
22.2432
22.0889
21.9367
21.7866
21.6385
21.4925
21.3485
21.2064
21.0662
20.928
20.7915
20.6569
20.524
20.3929
20.2635
20.1358
20.0098
19.8854
19.7626
19.6414
19.5218
19.4038
19.2872
19.1722
19.0587
18.9467
18.8361
18.727
18.6193
18.5131
18.4083
18.3049
18.2029
18.1023
18.0031
17.9052
17.8087
17.7136
29.7269
29.4515
29.1812
28.9158
28.6551
28.3991
28.1476
27.9005
27.6577
27.4191
27.1846
26.954
26.7273
26.5044
26.2851
26.0695
25.8573
25.6486
25.4432
25.2411
25.0421
24.8463
24.6535
24.4637
24.2768
24.0927
23.9114
23.7328
23.5569
23.3835
23.2127
23.0444
22.8785
22.7149
22.5538
22.3949
22.2382
22.0837
21.9314
21.7812
21.633
21.4869
21.3427
21.2005
21.0602
20.9218
20.7852
20.6505
20.5175
20.3863
20.2567
20.1289
20.0028
19.8783
19.7554
19.6341
19.5143
19.3962
19.2795
19.1644
19.0508
18.9386
18.828
18.7188
18.611
18.5047
18.3998
18.2964
18.1943
18.0937
17.9945
17.8966
17.8001
17.705
29.7268
29.4513
29.1809
28.9153
28.6545
28.3984
28.1468
27.8996
27.6567
27.418
27.1833
26.9527
26.7259
26.5028
26.2835
26.0677
25.8555
25.6467
25.4412
25.239
25.0399
24.844
24.6511
24.4612
24.2742
24.09
23.9086
23.7299
23.5539
23.3804
23.2095
23.0411
22.8751
22.7115
22.5502
22.3912
22.2345
22.0799
21.9275
21.7772
21.6289
21.4827
21.3385
21.1962
21.0558
20.9173
20.7806
20.6457
20.5127
20.3813
20.2517
20.1238
19.9975
19.8729
19.7499
19.6285
19.5087
19.3905
19.2737
19.1585
19.0448
18.9326
18.8219
18.7126
18.6048
18.4984
18.3935
18.29
18.1879
18.0873
17.988
17.8902
17.7937
17.6987
29.7267
29.4512
29.1806
28.915
28.6541
28.3979
28.1462
27.8989
27.656
27.4172
27.1824
26.9517
26.7248
26.5017
26.2823
26.0665
25.8541
25.6453
25.4397
25.2374
25.0383
24.8423
24.6494
24.4594
24.2723
24.088
23.9066
23.7278
23.5517
23.3782
23.2072
23.0387
22.8726
22.709
22.5476
22.3885
22.2317
22.0771
21.9246
21.7742
21.6259
21.4796
21.3352
21.1929
21.0524
20.9138
20.7771
20.6421
20.509
20.3776
20.2479
20.1199
19.9935
19.8689
19.7458
19.6243
19.5044
19.3861
19.2693
19.154
19.0402
18.9279
18.8171
18.7078
18.5999
18.4935
18.3886
18.285
18.183
18.0823
17.9831
17.8853
17.7889
17.6939
29.7267
29.451
29.1804
28.9147
28.6538
28.3975
28.1458
27.8985
27.6554
27.4165
27.1818
26.951
26.724
26.5009
26.2814
26.0655
25.8531
25.6442
25.4386
25.2362
25.0371
24.841
24.648
24.458
24.2708
24.0865
23.905
23.7262
23.55
23.3764
23.2054
23.0369
22.8708
22.707
22.5456
22.3865
22.2296
22.0749
21.9223
21.7719
21.6235
21.4771
21.3327
21.1903
21.0498
20.9111
20.7743
20.6393
20.5061
20.3746
20.2449
20.1168
19.9904
19.8656
19.7425
19.6209
19.501
19.3826
19.2657
19.1503
19.0365
18.9242
18.8133
18.7039
18.596
18.4896
18.3846
18.2811
18.179
18.0784
17.9792
17.8815
17.7851
17.6902
29.7266
29.4509
29.1803
28.9145
28.6536
28.3972
28.1455
27.8981
27.655
27.4161
27.1812
26.9504
26.7234
26.5002
26.2807
26.0648
25.8524
25.6434
25.4377
25.2353
25.0361
24.84
24.647
24.4569
24.2697
24.0854
23.9038
23.7249
23.5487
23.3751
23.204
23.0354
22.8693
22.7055
22.544
22.3849
22.2279
22.0732
21.9206
21.7701
21.6216
21.4752
21.3308
21.1883
21.0477
20.909
20.7721
20.6371
20.5038
20.3722
20.2424
20.1143
19.9878
19.863
19.7398
19.6182
19.4982
19.3797
19.2628
19.1474
19.0335
18.9211
18.8102
18.7008
18.5929
18.4864
18.3814
18.2779
18.1758
18.0752
17.9761
17.8784
17.7822
17.6874
29.7266
29.4509
29.1802
28.9144
28.6534
28.397
28.1452
27.8978
27.6547
27.4157
27.1808
26.95
26.7229
26.4997
26.2802
26.0642
25.8517
25.6427
25.437
25.2346
25.0354
24.8392
24.6462
24.456
24.2688
24.0844
23.9028
23.7239
23.5477
23.374
23.2029
23.0343
22.8681
22.7043
22.5428
22.3836
22.2266
22.0718
21.9192
21.7686
21.6201
21.4737
21.3292
21.1866
21.046
20.9072
20.7703
20.6352
20.5019
20.3703
20.2404
20.1122
19.9857
19.8608
19.7376
19.6159
19.4958
19.3773
19.2603
19.1449
19.0309
18.9185
18.8076
18.6981
18.5902
18.4837
18.3787
18.2752
18.1732
18.0726
17.9735
17.8759
17.7798
17.6852
29.7266
29.4508
29.1801
28.9143
28.6532
28.3968
28.145
27.8975
27.6544
27.4154
27.1805
26.9496
26.7226
26.4993
26.2797
26.0637
25.8513
25.6422
25.4365
25.2341
25.0348
24.8386
24.6455
24.4554
24.2681
24.0837
23.9021
23.7232
23.5469
23.3732
23.2021
23.0334
22.8672
22.7033
22.5418
22.3825
22.2255
22.0707
21.918
21.7674
21.6189
21.4724
21.3279
21.1853
21.0446
20.9058
20.7688
20.6337
20.5003
20.3686
20.2387
20.1105
19.9839
19.859
19.7357
19.6139
19.4938
19.3752
19.2582
19.1427
19.0287
18.9163
18.8053
18.6958
18.5879
18.4814
18.3764
18.2729
18.1709
18.0704
17.9715
17.874
17.778
17.6835
29.7266
29.4508
29.18
28.9142
28.6531
28.3967
28.1448
27.8974
27.6542
27.4152
27.1803
26.9493
26.7223
26.499
26.2794
26.0634
25.8509
25.6418
25.4361
25.2336
25.0343
24.8381
24.645
24.4548
24.2676
24.0831
23.9015
23.7225
23.5462
23.3725
23.2013
23.0326
22.8664
22.7025
22.5409
22.3817
22.2246
22.0697
21.917
21.7664
21.6178
21.4713
21.3267
21.1841
21.0434
20.9046
20.7675
20.6323
20.4989
20.3672
20.2372
20.109
19.9823
19.8574
19.734
19.6122
19.4921
19.3734
19.2564
19.1408
19.0268
18.9143
18.8033
18.6938
18.5859
18.4794
18.3744
18.271
18.1691
18.0687
17.9698
17.8725
17.7767
17.6825
29.7265
29.4507
29.18
28.9141
28.653
28.3966
28.1447
27.8972
27.654
27.415
27.1801
26.9491
26.722
26.4987
26.2791
26.0631
25.8506
25.6415
25.4357
25.2332
25.0339
24.8377
24.6446
24.4544
24.2671
24.0826
23.901
23.722
23.5457
23.3719
23.2007
23.032
22.8657
22.7018
22.5402
22.3809
22.2238
22.069
21.9162
21.7656
21.617
21.4704
21.3258
21.1831
21.0424
20.9035
20.7664
20.6312
20.4977
20.366
20.236
20.1076
19.981
19.856
19.7325
19.6107
19.4905
19.3718
19.2547
19.1391
19.0251
18.9126
18.8016
18.6921
18.5841
18.4777
18.3727
18.2694
18.1675
18.0673
17.9686
17.8714
17.7758
17.6818
29.7265
29.4507
29.1799
28.914
28.653
28.3965
28.1446
27.8971
27.6539
27.4149
27.1799
26.9489
26.7218
26.4985
26.2789
26.0629
25.8503
25.6412
25.4354
25.2329
25.0336
24.8374
24.6442
24.454
24.2667
24.0822
23.9005
23.7215
23.5452
23.3714
23.2002
23.0315
22.8652
22.7012
22.5396
22.3803
22.2232
22.0683
21.9155
21.7648
21.6162
21.4696
21.325
21.1823
21.0415
20.9026
20.7655
20.6302
20.4967
20.3649
20.2348
20.1065
19.9798
19.8547
19.7313
19.6094
19.4891
19.3704
19.2533
19.1376
19.0236
18.911
18.8
18.6905
18.5826
18.4762
18.3713
18.268
18.1663
18.0661
17.9676
17.8706
17.7753
17.6816
29.7265
29.4507
29.1799
28.914
28.6529
28.3964
28.1445
27.897
27.6538
27.4147
27.1798
26.9488
26.7217
26.4984
26.2787
26.0627
25.8501
25.641
25.4352
25.2327
25.0333
24.8371
24.6439
24.4537
24.2664
24.0819
23.9002
23.7212
23.5448
23.371
23.1998
23.031
22.8647
22.7008
22.5391
22.3798
22.2226
22.0677
21.9149
21.7642
21.6155
21.4689
21.3242
21.1815
21.0407
20.9017
20.7646
20.6293
20.4958
20.3639
20.2338
20.1054
19.9787
19.8536
19.7301
19.6082
19.4879
19.3691
19.2519
19.1363
19.0222
18.9096
18.7986
18.6892
18.5812
18.4749
18.3701
18.2669
18.1653
18.0653
17.9669
17.8701
17.775
17.6816
29.7265
29.4507
29.1798
28.914
28.6528
28.3964
28.1444
27.8969
27.6537
27.4146
27.1797
26.9487
26.7216
26.4982
26.2786
26.0625
25.8499
25.6408
25.435
25.2325
25.0331
24.8369
24.6437
24.4534
24.2661
24.0816
23.8999
23.7208
23.5445
23.3707
23.1994
23.0307
22.8643
22.7003
22.5387
22.3793
22.2222
22.0672
21.9144
21.7636
21.615
21.4683
21.3236
21.1809
21.04
20.901
20.7639
20.6285
20.4949
20.3631
20.2329
20.1045
19.9777
19.8526
19.729
19.6071
19.4868
19.368
19.2508
19.1351
19.021
18.9084
18.7974
18.688
18.5801
18.4738
18.3691
18.2659
18.1644
18.0646
17.9664
17.8699
17.775
17.6819
29.7265
29.4506
29.1798
28.9139
28.6528
28.3963
28.1444
27.8969
27.6536
27.4146
27.1796
26.9486
26.7215
26.4981
26.2784
26.0624
25.8498
25.6407
25.4348
25.2323
25.0329
24.8367
24.6435
24.4532
24.2659
24.0814
23.8996
23.7206
23.5442
23.3704
23.1991
23.0303
22.864
22.7
22.5383
22.3789
22.2217
22.0668
21.9139
21.7632
21.6145
21.4678
21.3231
21.1803
21.0394
20.9004
20.7632
20.6278
20.4942
20.3623
20.2322
20.1037
19.9768
19.8517
19.7281
19.6061
19.4857
19.3669
19.2497
19.134
19.0199
18.9074
18.7964
18.6869
18.5791
18.4728
18.3682
18.2652
18.1638
18.0641
17.9661
17.8698
17.7753
17.6825
29.7265
29.4506
29.1798
28.9139
28.6528
28.3963
28.1443
27.8968
27.6536
27.4145
27.1795
26.9485
26.7214
26.498
26.2783
26.0623
25.8497
25.6405
25.4347
25.2322
25.0328
24.8365
24.6433
24.453
24.2657
24.0812
23.8994
23.7204
23.544
23.3701
23.1989
23.0301
22.8637
22.6997
22.538
22.3786
22.2214
22.0664
21.9135
21.7628
21.614
21.4673
21.3226
21.1798
21.0389
20.8998
20.7626
20.6272
20.4936
20.3617
20.2315
20.1029
19.9761
19.8509
19.7273
19.6053
19.4849
19.366
19.2488
19.1331
19.019
18.9064
18.7954
18.686
18.5782
18.472
18.3675
18.2645
18.1633
18.0638
17.966
17.87
17.7757
17.6833
29.7265
29.4506
29.1798
28.9139
28.6527
28.3963
28.1443
27.8968
27.6535
27.4144
27.1795
26.9484
26.7213
26.4979
26.2783
26.0622
25.8496
25.6404
25.4346
25.2321
25.0327
24.8364
24.6432
24.4529
24.2656
24.081
23.8993
23.7202
23.5438
23.37
23.1987
23.0299
22.8635
22.6994
22.5377
22.3783
22.2211
22.0661
21.9132
21.7624
21.6137
21.467
21.3222
21.1794
21.0385
20.8994
20.7621
20.6267
20.493
20.3611
20.2309
20.1023
19.9754
19.8502
19.7266
19.6046
19.4841
19.3653
19.248
19.1323
19.0182
18.9056
18.7947
18.6853
18.5775
18.4714
18.3669
18.2641
18.163
18.0636
17.9661
17.8703
17.7764
17.6843
29.7265
29.4506
29.1798
28.9139
28.6527
28.3963
28.1443
27.8968
27.6535
27.4144
27.1794
26.9484
26.7213
26.4979
26.2782
26.0621
25.8496
25.6404
25.4346
25.232
25.0326
24.8364
24.6431
24.4529
24.2655
24.081
23.8992
23.7201
23.5437
23.3699
23.1986
23.0297
22.8633
22.6993
22.5376
22.3782
22.2209
22.0659
21.913
21.7622
21.6135
21.4667
21.3219
21.1791
21.0381
20.899
20.7618
20.6263
20.4926
20.3607
20.2304
20.1018
19.9749
19.8497
19.726
19.604
19.4835
19.3646
19.2474
19.1316
19.0175
18.905
18.794
18.6846
18.5769
18.4708
18.3664
18.2637
18.1628
18.0636
17.9663
17.8708
17.7772
17.6856
29.7265
29.4506
29.1798
28.9139
28.6527
28.3963
28.1443
27.8967
27.6535
27.4144
27.1794
26.9484
26.7213
26.4979
26.2782
26.0621
25.8496
25.6404
25.4346
25.232
25.0326
24.8363
24.6431
24.4528
24.2654
24.0809
23.8991
23.7201
23.5436
23.3698
23.1985
23.0296
22.8632
22.6992
22.5375
22.378
22.2208
22.0658
21.9128
21.762
21.6133
21.4665
21.3217
21.1788
21.0379
20.8988
20.7615
20.626
20.4923
20.3603
20.23
20.1014
19.9745
19.8492
19.7255
19.6034
19.483
19.3641
19.2468
19.1311
19.0169
18.9044
18.7934
18.6841
18.5764
18.4704
18.366
18.2635
18.1627
18.0637
17.9666
17.8714
17.7781
17.6869
29.7265
29.4506
29.1798
28.9139
28.6527
28.3963
28.1443
27.8967
27.6535
27.4144
27.1794
26.9484
26.7213
26.4979
26.2782
26.0621
25.8495
25.6404
25.4345
25.232
25.0326
24.8363
24.6431
24.4528
24.2654
24.0809
23.8991
23.72
23.5436
23.3697
23.1984
23.0296
22.8631
22.6991
22.5374
22.3779
22.2207
22.0656
21.9127
21.7619
21.6131
21.4663
21.3215
21.1786
21.0376
20.8985
20.7612
20.6257
20.492
20.36
20.2297
20.101
19.9741
19.8488
19.7251
19.603
19.4825
19.3636
19.2463
19.1305
19.0164
18.9038
18.7929
18.6836
18.5759
18.47
18.3657
18.2633
18.1626
18.0638
17.9669
17.872
17.7791
17.6883
29.7265
29.4506
29.1798
28.9139
28.6527
28.3963
28.1443
27.8967
27.6535
27.4144
27.1794
26.9484
26.7213
26.4979
26.2782
26.0621
25.8495
25.6404
25.4345
25.232
25.0326
24.8363
24.643
24.4528
24.2654
24.0808
23.899
23.72
23.5435
23.3697
23.1983
23.0295
22.8631
22.699
22.5373
22.3778
22.2206
22.0655
21.9126
21.7617
21.6129
21.4661
21.3213
21.1784
21.0374
20.8983
20.761
20.6254
20.4917
20.3597
20.2293
20.1007
19.9737
19.8484
19.7247
19.6026
19.4821
19.3631
19.2458
19.1301
19.0159
18.9034
18.7924
18.6832
18.5755
18.4696
18.3655
18.2631
18.1626
18.064
17.9673
17.8727
17.7801
17.6897
29.7265
29.4506
29.1798
28.9139
28.6527
28.3963
28.1443
27.8967
27.6535
27.4144
27.1794
26.9484
26.7213
26.4979
26.2782
26.0621
25.8495
25.6404
25.4345
25.2319
25.0326
24.8363
24.643
24.4527
24.2653
24.0808
23.899
23.7199
23.5435
23.3696
23.1983
23.0294
22.863
22.6989
22.5372
22.3777
22.2205
22.0654
21.9125
21.7616
21.6128
21.466
21.3212
21.1783
21.0372
20.8981
20.7608
20.6252
20.4914
20.3594
20.2291
20.1004
19.9734
19.8481
19.7243
19.6022
19.4817
19.3628
19.2454
19.1297
19.0155
18.903
18.7921
18.6828
18.5752
18.4694
18.3653
18.263
18.1626
18.0642
17.9677
17.8733
17.7811
17.691
29.7265
29.4506
29.1798
28.9139
28.6527
28.3963
28.1443
27.8967
27.6535
27.4144
27.1794
26.9484
26.7213
26.4979
26.2782
26.0621
25.8495
25.6403
25.4345
25.2319
25.0325
24.8363
24.643
24.4527
24.2653
24.0808
23.899
23.7199
23.5434
23.3696
23.1982
23.0294
22.8629
22.6989
22.5371
22.3777
22.2204
22.0653
21.9124
21.7615
21.6127
21.4659
21.321
21.1781
21.0371
20.8979
20.7606
20.625
20.4912
20.3592
20.2288
20.1002
19.9732
19.8478
19.724
19.6019
19.4814
19.3624
19.2451
19.1293
19.0152
18.9026
18.7917
18.6825
18.5749
18.4691
18.3651
18.2629
18.1626
18.0643
17.9681
17.8739
17.782
17.6922
29.7265
29.4506
29.1798
28.9139
28.6527
28.3963
28.1443
27.8967
27.6535
27.4144
27.1794
26.9484
26.7213
26.4979
26.2782
26.0621
25.8495
25.6403
25.4345
25.2319
25.0325
24.8362
24.643
24.4527
24.2653
24.0807
23.8989
23.7199
23.5434
23.3695
23.1982
23.0293
22.8629
22.6988
22.5371
22.3776
22.2203
22.0652
21.9123
21.7614
21.6126
21.4658
21.3209
21.178
21.037
20.8978
20.7604
20.6249
20.4911
20.359
20.2287
20.1
19.973
19.8476
19.7238
19.6017
19.4811
19.3622
19.2448
19.1291
19.0149
18.9024
18.7915
18.6822
18.5747
18.4689
18.365
18.2629
18.1627
18.0645
17.9684
17.8745
17.7828
17.6934
29.7265
29.4506
29.1798
28.9139
28.6527
28.3962
28.1443
27.8967
27.6535
27.4144
27.1794
26.9484
26.7213
26.4979
26.2782
26.0621
25.8495
25.6403
25.4345
25.2319
25.0325
24.8362
24.643
24.4527
24.2653
24.0807
23.8989
23.7198
23.5434
23.3695
23.1982
23.0293
22.8629
22.6988
22.537
22.3775
22.2203
22.0652
21.9122
21.7614
21.6125
21.4657
21.3208
21.1779
21.0369
20.8977
20.7603
20.6248
20.491
20.3589
20.2285
20.0998
19.9728
19.8474
19.7236
19.6015
19.4809
19.362
19.2446
19.1289
19.0147
18.9022
18.7913
18.6821
18.5746
18.4688
18.3649
18.2628
18.1628
18.0647
17.9687
17.8749
17.7834
17.6942
29.7265
29.4506
29.1798
28.9139
28.6527
28.3962
28.1443
27.8967
27.6535
27.4144
27.1794
26.9484
26.7213
26.4979
26.2782
26.0621
25.8495
25.6403
25.4345
25.2319
25.0325
24.8362
24.643
24.4527
24.2653
24.0807
23.8989
23.7198
23.5434
23.3695
23.1982
23.0293
22.8628
22.6988
22.537
22.3775
22.2202
22.0652
21.9122
21.7613
21.6125
21.4657
21.3208
21.1779
21.0368
20.8976
20.7603
20.6247
20.4909
20.3588
20.2284
20.0997
19.9727
19.8473
19.7235
19.6014
19.4808
19.3619
19.2445
19.1287
19.0146
18.902
18.7911
18.6819
18.5745
18.4687
18.3648
18.2628
18.1628
18.0648
17.9689
17.8752
17.7839
17.6948
28.6527
28.3962
28.1443
27.8967
27.6535
27.4144
27.1794
26.9484
26.7213
26.4979
26.2782
26.0621
25.8495
25.6403
25.4345
25.2319
25.0325
24.8362
24.643
24.4527
24.2653
24.0807
23.8989
23.7198
23.5434
23.3695
23.1981
23.0293
22.8628
22.6988
22.537
22.3775
22.2202
22.0651
21.9122
21.7613
21.6125
21.4656
21.3208
21.1778
21.0368
20.8976
20.7602
20.6247
20.4908
20.3588
20.2284
20.0997
19.9726
19.8473
19.7235
19.6013
19.4808
19.3618
19.2444
19.1287
19.0145
18.902
18.7911
18.6819
18.5744
18.4687
18.3648
18.2628
18.1628
18.0648
17.969
17.8754
17.7841
17.6952
18.2628
18.1628
18.0648
17.969
17.8754
18.2628
18.1628
18.0647
17.9689
17.8752
29.7488
29.4979
29.2511
29.0085
28.7698
28.535
28.304
28.0766
27.8529
27.6327
27.416
27.2026
26.9926
26.7857
26.5819
26.3813
26.1836
25.9889
25.797
25.608
25.4217
25.2381
25.0571
24.8787
24.7029
24.5295
24.3585
24.1899
24.0236
23.8596
23.6979
23.5383
23.3809
23.2256
23.0723
22.9211
22.7719
22.6246
22.4792
22.3357
22.1941
22.0543
21.9163
21.78
21.6454
21.5126
21.3814
21.2519
21.124
20.9977
20.8729
20.7497
20.628
20.5078
20.3891
20.2719
20.1561
20.0417
19.9287
19.8172
19.707
19.5981
19.4906
19.3845
19.2796
19.1761
19.0738
18.9729
18.8732
18.7748
18.6776
18.5816
18.4869
18.3934
29.7488
29.4979
29.2511
29.0085
28.7698
28.535
28.304
28.0766
27.8529
27.6327
27.416
27.2026
26.9926
26.7857
26.5819
26.3813
26.1836
25.9889
25.797
25.608
25.4217
25.2381
25.0571
24.8787
24.7029
24.5295
24.3585
24.1899
24.0236
23.8596
23.6978
23.5383
23.3808
23.2255
23.0723
22.921
22.7718
22.6245
22.4791
22.3357
22.194
22.0542
21.9162
21.7799
21.6453
21.5125
21.3813
21.2518
21.1238
20.9975
20.8727
20.7495
20.6278
20.5076
20.3889
20.2717
20.1559
20.0415
19.9285
19.8169
19.7067
19.5978
19.4903
19.3842
19.2793
19.1758
19.0735
18.9725
18.8728
18.7744
18.6772
18.5812
18.4865
18.393
29.7488
29.4979
29.2511
29.0085
28.7698
28.535
28.304
28.0766
27.8529
27.6327
27.416
27.2026
26.9925
26.7857
26.5819
26.3812
26.1836
25.9888
25.797
25.6079
25.4216
25.238
25.057
24.8786
24.7027
24.5293
24.3583
24.1897
24.0234
23.8594
23.6976
23.538
23.3806
23.2252
23.072
22.9207
22.7714
22.6241
22.4787
22.3352
22.1936
22.0537
21.9157
21.7794
21.6448
21.5119
21.3807
21.2511
21.1231
20.9968
20.872
20.7487
20.627
20.5067
20.388
20.2707
20.1548
20.0404
19.9274
19.8157
19.7055
19.5966
19.489
19.3828
19.2779
19.1743
19.072
18.9709
18.8712
18.7727
18.6754
18.5794
18.4846
18.3911
29.7488
29.4979
29.2511
29.0084
28.7697
28.5349
28.3039
28.0765
27.8528
27.6326
27.4158
27.2024
26.9922
26.7853
26.5815
26.3808
26.183
25.9882
25.7963
25.6072
25.4208
25.2371
25.0561
24.8776
24.7016
24.5281
24.357
24.1883
24.0219
23.8578
23.6959
23.5362
23.3787
23.2233
23.0699
22.9185
22.7692
22.6217
22.4762
22.3326
22.1909
22.0509
21.9127
21.7763
21.6416
21.5086
21.3773
21.2476
21.1195
20.993
20.8681
20.7447
20.6228
20.5025
20.3836
20.2662
20.1502
20.0356
19.9224
19.8107
19.7003
19.5912
19.4835
19.3771
19.2721
19.1683
19.0658
18.9647
18.8647
18.7661
18.6686
18.5725
18.4775
18.3837
29.7486
29.4975
29.2505
29.0076
28.7686
28.5335
28.3021
28.0744
27.8504
27.6298
27.4126
27.1989
26.9884
26.7811
26.5769
26.3758
26.1777
25.9825
25.7902
25.6007
25.414
25.2299
25.0485
24.8696
24.6933
24.5195
24.348
24.179
24.0122
23.8478
23.6856
23.5255
23.3677
23.2119
23.0582
22.9065
22.7569
22.6092
22.4633
22.3194
22.1774
22.0371
21.8987
21.7619
21.627
21.4937
21.3621
21.2321
21.1037
20.977
20.8518
20.7281
20.606
20.4853
20.3662
20.2485
20.1322
20.0174
19.9039
19.7918
19.6811
19.5718
19.4638
19.3571
19.2518
19.1477
19.0449
18.9434
18.8432
18.7442
18.6465
18.5499
18.4547
18.3606
29.7458
29.4915
29.2416
28.9959
28.7543
28.5167
28.2831
28.0532
27.8271
27.6046
27.3856
27.1701
26.958
26.7492
26.5436
26.3412
26.1418
25.9454
25.752
25.5615
25.3737
25.1887
25.0064
24.8268
24.6497
24.4751
24.303
24.1333
23.966
23.8009
23.6382
23.4777
23.3193
23.1631
23.009
22.857
22.7069
22.5589
22.4128
22.2685
22.1262
21.9857
21.8469
21.71
21.5748
21.4413
21.3094
21.1793
21.0507
20.9237
20.7983
20.6745
20.5522
20.4313
20.312
20.1941
20.0777
19.9626
19.849
19.7367
19.6258
19.5163
19.4081
19.3012
19.1956
19.0913
18.9883
18.8866
18.7861
18.6868
18.5888
18.492
18.3965
18.3021
29.7396
29.4787
29.2224
28.9707
28.7234
28.4804
28.2417
28.007
27.7763
27.5495
27.3265
27.1072
26.8914
26.6792
26.4704
26.2649
26.0627
25.8637
25.6677
25.4748
25.2849
25.0978
24.9135
24.7321
24.5533
24.3771
24.2035
24.0325
23.8639
23.6977
23.5339
23.3724
23.2131
23.0561
22.9012
22.7485
22.5978
22.4492
22.3026
22.1579
22.0152
21.8743
21.7353
21.5981
21.4627
21.329
21.197
21.0668
20.9381
20.8111
20.6857
20.5619
20.4396
20.3188
20.1996
20.0818
19.9654
19.8505
19.737
19.6249
19.5141
19.4047
19.2967
19.1899
19.0845
18.9804
18.8776
18.776
18.6757
18.5766
18.4788
18.3821
18.2867
18.1925
29.7346
29.4681
29.2064
28.9494
28.6971
28.4493
28.2059
27.9667
27.7317
27.5007
27.2736
27.0504
26.8309
26.6151
26.4028
26.194
25.9886
25.7865
25.5876
25.3919
25.1992
25.0095
24.8228
24.6389
24.4578
24.2794
24.1037
23.9306
23.7601
23.5921
23.4265
23.2633
23.1025
22.9439
22.7876
22.6334
22.4814
22.3316
22.1838
22.038
21.8941
21.7523
21.6123
21.4742
21.3379
21.2035
21.0708
20.9398
20.8105
20.6829
20.5569
20.4326
20.3098
20.1886
20.0689
19.9508
19.8341
19.7189
19.6051
19.4927
19.3818
19.2722
19.164
19.0572
18.9517
18.8475
18.7446
18.643
18.5427
18.4436
18.3458
18.2493
18.1539
18.0598
29.7316
29.4615
29.1964
28.9361
28.6806
28.4296
28.183
27.9408
27.7028
27.4689
27.239
27.013
26.7909
26.5724
26.3576
26.1463
25.9384
25.7339
25.5327
25.3347
25.1398
24.948
24.7592
24.5733
24.3902
24.2099
24.0324
23.8575
23.6852
23.5154
23.3482
23.1833
23.0209
22.8608
22.703
22.5474
22.3941
22.2428
22.0937
21.9467
21.8016
21.6586
21.5174
21.3782
21.2409
21.1054
20.9717
20.8397
20.7095
20.581
20.4542
20.329
20.2054
20.0835
19.9631
19.8442
19.7269
19.611
19.4966
19.3837
19.2722
19.1621
19.0534
18.9461
18.8402
18.7356
18.6324
18.5304
18.4298
18.3304
18.2324
18.1356
18.04
17.9457
29.7298
29.4576
29.1905
28.9282
28.6707
28.4178
28.1693
27.9252
27.6854
27.4497
27.218
26.9903
26.7664
26.5463
26.3298
26.1168
25.9074
25.7013
25.4985
25.299
25.1026
24.9093
24.7191
24.5317
24.3473
24.1656
23.9867
23.8105
23.6369
23.4659
23.2974
23.1314
22.9678
22.8065
22.6475
22.4909
22.3364
22.1841
22.0339
21.8858
21.7397
21.5957
21.4536
21.3134
21.1752
21.0388
20.9042
20.7714
20.6403
20.511
20.3834
20.2574
20.1331
20.0104
19.8893
19.7698
19.6517
19.5352
19.4202
19.3067
19.1946
19.084
18.9748
18.867
18.7605
18.6555
18.5518
18.4494
18.3484
18.2487
18.1503
18.0531
17.9573
17.8627
29.7287
29.4553
29.187
28.9235
28.6647
28.4106
28.161