/*--------------------------------*- C++ -*----------------------------------*\
  =========                 |
  \\      /  F ield         | OpenFOAM: The Open Source CFD Toolbox
   \\    /   O peration     | Website:  https://openfoam.org
    \\  /    A nd           | Version:  13
     \\/     M anipulation  |
\*---------------------------------------------------------------------------*/
FoamFile
{
    format      ascii;
    class       volScalarField;
    location    "100";
    object      p;
}
// * * * * * * * * * * * * * * * * * * * * * * * * * * * * * * * * * * * * * //

dimensions      [0 2 -2 0 0 0 0];

internalField   nonuniform List<scalar> 
169896
(
14.5695
14.5693
14.5689
14.5682
14.5672
14.566
14.5645
14.5627
14.5606
14.5583
14.5556
14.5526
14.5492
14.5455
14.5414
14.5369
14.5319
14.5265
14.5205
14.514
14.5069
14.4992
14.4907
14.4816
14.4716
14.4608
14.4491
14.4363
14.4225
14.4075
14.3913
14.3738
14.3548
14.3342
14.312
14.2879
14.262
14.2339
14.2036
14.1708
14.1355
14.0974
14.0563
14.0121
13.9644
13.9131
13.8579
13.7985
13.7347
13.6662
13.5927
13.5138
13.4293
13.3388
13.242
13.1386
13.0282
12.9104
12.7849
12.6513
12.5093
12.3585
12.1986
12.0293
11.8504
11.6615
11.4624
11.253
11.0331
10.8026
10.5615
10.3096
10.0471
9.77392
14.5697
14.5696
14.5691
14.5684
14.5675
14.5663
14.5648
14.563
14.561
14.5586
14.5559
14.5529
14.5496
14.5459
14.5418
14.5373
14.5324
14.527
14.521
14.5146
14.5075
14.4998
14.4914
14.4823
14.4724
14.4617
14.45
14.4373
14.4236
14.4087
14.3926
14.3751
14.3562
14.3358
14.3137
14.2897
14.2639
14.236
14.2058
14.1732
14.1381
14.1002
14.0593
14.0152
13.9678
13.9167
13.8617
13.8026
13.7391
13.6708
13.5976
13.519
13.4349
13.3447
13.2483
13.1452
13.0351
12.9177
12.7925
12.6593
12.5176
12.3672
12.2076
12.0387
11.86
11.6714
11.4726
11.2634
11.0438
10.8135
10.5725
10.3207
10.0583
9.78518
14.5702
14.5701
14.5696
14.5689
14.568
14.5668
14.5653
14.5636
14.5615
14.5592
14.5566
14.5536
14.5503
14.5467
14.5426
14.5382
14.5333
14.528
14.5221
14.5157
14.5087
14.5011
14.4928
14.4838
14.4741
14.4634
14.4519
14.4394
14.4258
14.411
14.3951
14.3778
14.3591
14.3389
14.317
14.2933
14.2678
14.2401
14.2103
14.178
14.1432
14.1057
14.0652
14.0215
13.9745
13.9239
13.8694
13.8108
13.7478
13.6801
13.6074
13.5295
13.4459
13.3564
13.2607
13.1583
13.0489
12.9322
12.8077
12.6752
12.5342
12.3845
12.2257
12.0574
11.8794
11.6914
11.4932
11.2845
11.0653
10.8354
10.5948
10.3434
10.0812
9.80821
14.5709
14.5708
14.5704
14.5697
14.5688
14.5676
14.5661
14.5644
14.5624
14.5601
14.5576
14.5546
14.5514
14.5478
14.5439
14.5395
14.5347
14.5294
14.5237
14.5174
14.5106
14.5031
14.4949
14.4861
14.4765
14.466
14.4547
14.4424
14.429
14.4145
14.3989
14.3819
14.3635
14.3436
14.322
14.2987
14.2736
14.2463
14.2169
14.1852
14.1509
14.1139
14.074
14.031
13.9846
13.9346
13.8809
13.823
13.7608
13.694
13.6222
13.5452
13.4625
13.374
13.2793
13.1779
13.0696
12.9539
12.8305
12.6991
12.5592
12.4105
12.2527
12.0855
11.9084
11.7214
11.524
11.3162
11.0977
10.8685
10.6284
10.3775
10.1156
9.8429
14.5719
14.5717
14.5713
14.5707
14.5698
14.5686
14.5672
14.5655
14.5636
14.5614
14.5588
14.556
14.5528
14.5493
14.5455
14.5412
14.5365
14.5314
14.5258
14.5197
14.513
14.5057
14.4977
14.4891
14.4797
14.4695
14.4584
14.4464
14.4333
14.4192
14.4038
14.3872
14.3692
14.3497
14.3287
14.3059
14.2812
14.2546
14.2258
14.1947
14.1611
14.1248
14.0857
14.0434
13.9979
13.9489
13.8961
13.8393
13.7781
13.7124
13.6418
13.566
13.4846
13.3974
13.304
13.204
13.097
12.9828
12.8609
12.7309
12.5925
12.4452
12.2888
12.1229
11.9472
11.7614
11.5652
11.3585
11.1411
10.9127
10.6734
10.4231
10.1617
9.88941
14.5731
14.5729
14.5725
14.5719
14.571
14.5699
14.5685
14.5669
14.565
14.5629
14.5604
14.5577
14.5546
14.5512
14.5475
14.5433
14.5388
14.5338
14.5284
14.5225
14.516
14.5089
14.5012
14.4928
14.4837
14.4738
14.463
14.4513
14.4386
14.4249
14.41
14.3938
14.3763
14.3574
14.3369
14.3147
14.2907
14.2648
14.2367
14.2064
14.1737
14.1383
14.1001
14.0589
14.0145
13.9666
13.915
13.8594
13.7996
13.7353
13.6661
13.5918
13.512
13.4264
13.3347
13.2364
13.1312
13.0188
12.8987
12.7705
12.6339
12.4885
12.3339
12.1697
11.9957
11.8115
11.6168
11.4115
11.1953
10.9681
10.7298
10.4803
10.2196
9.94783
14.5745
14.5743
14.5739
14.5733
14.5725
14.5714
14.5701
14.5686
14.5668
14.5647
14.5623
14.5597
14.5567
14.5535
14.5499
14.5459
14.5415
14.5367
14.5315
14.5258
14.5195
14.5127
14.5053
14.4972
14.4884
14.4789
14.4685
14.4572
14.445
14.4317
14.4173
14.4017
14.3848
14.3665
14.3467
14.3252
14.302
14.2769
14.2498
14.2204
14.1887
14.1544
14.1173
14.0773
14.0342
13.9877
13.9375
13.8834
13.8252
13.7625
13.6951
13.6226
13.5447
13.4611
13.3713
13.2751
13.1721
13.0618
12.9439
12.8179
12.6835
12.5403
12.3878
12.2258
12.0538
11.8715
11.6787
11.4751
11.2605
11.0348
10.7977
10.5493
10.2895
10.0183
14.5761
14.5759
14.5756
14.575
14.5742
14.5732
14.5719
14.5705
14.5687
14.5667
14.5645
14.562
14.5591
14.556
14.5526
14.5488
14.5446
14.5401
14.5351
14.5296
14.5236
14.5171
14.51
14.5023
14.4939
14.4847
14.4748
14.464
14.4523
14.4395
14.4257
14.4108
14.3946
14.377
14.358
14.3374
14.3151
14.2909
14.2648
14.2365
14.2059
14.1729
14.1372
14.0986
14.057
14.012
13.9635
13.9112
13.8548
13.7941
13.7286
13.6583
13.5826
13.5012
13.4138
13.32
13.2195
13.1117
12.9964
12.873
12.7412
12.6005
12.4506
12.2911
12.1215
11.9416
11.751
11.5495
11.3368
11.1128
10.8772
10.6301
10.3714
10.101
14.5779
14.5778
14.5774
14.5769
14.5761
14.5752
14.574
14.5726
14.5709
14.5691
14.5669
14.5645
14.5619
14.5589
14.5557
14.5521
14.5481
14.5438
14.5391
14.5339
14.5282
14.522
14.5153
14.508
14.5
14.4913
14.4819
14.4716
14.4605
14.4484
14.4353
14.421
14.4056
14.3888
14.3707
14.351
14.3297
14.3067
14.2817
14.2547
14.2255
14.1938
14.1596
14.1226
14.0827
14.0395
13.9929
13.9426
13.8883
13.8297
13.7666
13.6986
13.6254
13.5467
13.462
13.371
13.2733
13.1684
13.056
12.9356
12.8068
12.6692
12.5222
12.3656
12.1989
12.0217
11.8337
11.6346
11.4242
11.2022
10.9685
10.723
10.4655
10.1963
14.5799
14.5798
14.5795
14.5789
14.5782
14.5773
14.5762
14.5749
14.5734
14.5716
14.5696
14.5674
14.5649
14.5621
14.5591
14.5557
14.552
14.5479
14.5435
14.5386
14.5333
14.5275
14.5212
14.5143
14.5068
14.4986
14.4897
14.4801
14.4696
14.4582
14.4458
14.4323
14.4178
14.4019
14.3848
14.3662
14.346
14.3242
14.3005
14.2749
14.2471
14.217
14.1845
14.1493
14.1112
14.07
14.0255
13.9774
13.9255
13.8694
13.8089
13.7436
13.6732
13.5974
13.5157
13.4278
13.3333
13.2318
13.1227
13.0057
12.8803
12.7461
12.6026
12.4493
12.2858
12.1118
11.9268
11.7306
11.5228
11.3033
11.0717
10.828
10.5722
10.3042
14.5821
14.582
14.5817
14.5812
14.5805
14.5797
14.5787
14.5775
14.5761
14.5744
14.5726
14.5705
14.5682
14.5656
14.5628
14.5597
14.5562
14.5525
14.5483
14.5438
14.5389
14.5335
14.5276
14.5212
14.5142
14.5066
14.4983
14.4893
14.4795
14.4688
14.4572
14.4447
14.431
14.4162
14.4001
14.3827
14.3638
14.3433
14.321
14.2969
14.2707
14.2424
14.2117
14.1784
14.1424
14.1034
14.0612
14.0156
13.9662
13.9129
13.8552
13.7929
13.7257
13.6531
13.5748
13.4904
13.3995
13.3016
13.1963
13.0831
12.9616
12.8312
12.6915
12.542
12.3822
12.2118
12.0303
11.8373
11.6326
11.4159
11.1869
10.9454
10.6915
10.425
14.5844
14.5843
14.5841
14.5836
14.583
14.5823
14.5813
14.5802
14.5789
14.5774
14.5757
14.5738
14.5717
14.5694
14.5668
14.5639
14.5608
14.5573
14.5535
14.5494
14.5448
14.5399
14.5345
14.5286
14.5221
14.5151
14.5075
14.4992
14.4901
14.4803
14.4696
14.458
14.4454
14.4316
14.4167
14.4005
14.383
14.3639
14.3432
14.3207
14.2963
14.2698
14.2411
14.2099
14.1762
14.1396
14.0999
14.0569
14.0104
13.96
13.9055
13.8464
13.7826
13.7136
13.639
13.5584
13.4715
13.3776
13.2765
13.1675
13.0502
12.9242
12.7888
12.6435
12.488
12.3216
12.144
11.9548
11.7536
11.5401
11.314
11.0752
10.8235
10.5589
14.5869
14.5868
14.5866
14.5862
14.5857
14.585
14.5842
14.5831
14.582
14.5806
14.5791
14.5774
14.5755
14.5734
14.571
14.5684
14.5656
14.5625
14.559
14.5553
14.5512
14.5467
14.5418
14.5364
14.5306
14.5242
14.5173
14.5097
14.5015
14.4925
14.4828
14.4722
14.4606
14.4481
14.4344
14.4196
14.4034
14.3859
14.3668
14.3461
14.3235
14.2991
14.2725
14.2436
14.2123
14.1783
14.1413
14.1012
14.0577
14.0105
13.9594
13.9039
13.8438
13.7786
13.708
13.6317
13.549
13.4597
13.3631
13.2588
13.1462
13.0249
12.8942
12.7537
12.6028
12.4411
12.2679
12.0829
11.8857
11.6759
11.4532
11.2174
10.9684
10.7061
14.5896
14.5895
14.5893
14.5889
14.5885
14.5879
14.5871
14.5862
14.5852
14.584
14.5826
14.5811
14.5794
14.5776
14.5755
14.5732
14.5707
14.5679
14.5649
14.5615
14.5579
14.5539
14.5495
14.5448
14.5395
14.5339
14.5277
14.5209
14.5135
14.5055
14.4967
14.4871
14.4767
14.4654
14.4531
14.4397
14.425
14.4091
14.3918
14.3729
14.3524
14.3301
14.3058
14.2793
14.2506
14.2193
14.1853
14.1482
14.108
14.0643
14.0167
13.965
13.9089
13.8479
13.7817
13.7099
13.6319
13.5474
13.4558
13.3565
13.2491
13.133
13.0076
12.8724
12.7267
12.57
12.4018
12.2216
12.0289
11.8233
11.6045
11.3722
11.1263
10.8666
14.5923
14.5922
14.5921
14.5918
14.5914
14.5908
14.5902
14.5894
14.5886
14.5875
14.5864
14.585
14.5836
14.582
14.5802
14.5782
14.576
14.5736
14.571
14.5681
14.5649
14.5614
14.5576
14.5535
14.5489
14.5439
14.5385
14.5326
14.5261
14.519
14.5113
14.5028
14.4936
14.4836
14.4727
14.4607
14.4477
14.4335
14.418
14.4011
14.3827
14.3626
14.3407
14.3169
14.2908
14.2624
14.2315
14.1977
14.161
14.1209
14.0772
14.0296
13.9777
13.9212
13.8597
13.7927
13.7198
13.6405
13.5542
13.4605
13.3587
13.2483
13.1286
12.9991
12.8591
12.7081
12.5454
12.3705
12.1829
11.9821
11.7677
11.5395
11.2972
11.0407
14.5952
14.5951
14.5949
14.5947
14.5944
14.594
14.5934
14.5928
14.592
14.5912
14.5902
14.5891
14.5879
14.5865
14.585
14.5834
14.5815
14.5795
14.5773
14.5749
14.5722
14.5692
14.566
14.5625
14.5586
14.5544
14.5498
14.5447
14.5391
14.5331
14.5264
14.5191
14.5112
14.5025
14.493
14.4826
14.4713
14.4589
14.4453
14.4305
14.4143
14.3966
14.3772
14.356
14.3328
14.3075
14.2798
14.2495
14.2164
14.1801
14.1405
14.0972
14.0499
13.9981
13.9416
13.8798
13.8123
13.7385
13.6581
13.5703
13.4746
13.3703
13.2569
13.1337
12.9999
12.8551
12.6984
12.5294
12.3475
12.1521
11.9427
11.7191
11.481
11.2282
14.5981
14.598
14.5979
14.5977
14.5975
14.5971
14.5967
14.5962
14.5956
14.5949
14.5942
14.5933
14.5923
14.5912
14.59
14.5887
14.5872
14.5856
14.5838
14.5819
14.5797
14.5773
14.5747
14.5718
14.5686
14.5652
14.5614
14.5572
14.5526
14.5476
14.542
14.536
14.5293
14.522
14.5141
14.5053
14.4957
14.4851
14.4736
14.4609
14.447
14.4317
14.4149
14.3966
14.3764
14.3542
14.3299
14.3032
14.2739
14.2417
14.2064
14.1676
14.1251
14.0783
14.027
13.9707
13.909
13.8412
13.7669
13.6854
13.5962
13.4986
13.392
13.2755
13.1486
13.0105
12.8606
12.6981
12.5224
12.333
12.1293
11.911
11.6777
11.4292
14.6011
14.601
14.601
14.6008
14.6007
14.6004
14.6001
14.5997
14.5993
14.5988
14.5982
14.5975
14.5968
14.596
14.5951
14.5941
14.593
14.5918
14.5905
14.589
14.5874
14.5855
14.5835
14.5813
14.5789
14.5762
14.5733
14.57
14.5664
14.5624
14.558
14.5532
14.5479
14.5421
14.5356
14.5285
14.5207
14.5121
14.5026
14.4921
14.4805
14.4678
14.4538
14.4383
14.4212
14.4023
14.3815
14.3586
14.3333
14.3053
14.2745
14.2405
14.2029
14.1614
14.1157
14.0651
14.0094
13.9479
13.8802
13.8055
13.7232
13.6328
13.5333
13.4242
13.3047
13.174
13.0313
12.8759
12.7072
12.5245
12.3271
12.1147
11.8869
11.6434
14.6041
14.6041
14.6041
14.604
14.6039
14.6037
14.6035
14.6033
14.603
14.6027
14.6023
14.6019
14.6014
14.6009
14.6003
14.5997
14.5989
14.5981
14.5973
14.5963
14.5952
14.5939
14.5925
14.591
14.5893
14.5874
14.5853
14.583
14.5804
14.5775
14.5743
14.5708
14.5668
14.5625
14.5576
14.5522
14.5462
14.5395
14.5321
14.5239
14.5148
14.5047
14.4934
14.4809
14.467
14.4516
14.4344
14.4153
14.3941
14.3706
14.3444
14.3153
14.2829
14.2469
14.2069
14.1625
14.1131
14.0583
13.9974
13.9299
13.855
13.7721
13.6804
13.5792
13.4676
13.3448
13.21
13.0625
12.9014
12.726
12.5357
12.3299
12.1083
11.8705
14.6072
14.6072
14.6072
14.6072
14.6071
14.6071
14.607
14.6069
14.6068
14.6066
14.6065
14.6063
14.6061
14.6058
14.6055
14.6053
14.6049
14.6045
14.6041
14.6036
14.603
14.6024
14.6016
14.6008
14.5999
14.5988
14.5976
14.5962
14.5946
14.5928
14.5908
14.5885
14.586
14.5831
14.5798
14.5762
14.572
14.5674
14.5621
14.5562
14.5496
14.5421
14.5337
14.5242
14.5136
14.5016
14.4882
14.4731
14.4562
14.4371
14.4157
14.3917
14.3647
14.3344
14.3004
14.2623
14.2196
14.1717
14.1181
14.058
13.991
13.9161
13.8326
13.7397
13.6366
13.5224
13.3961
13.257
13.1042
12.9369
12.7543
12.556
12.3413
12.11
14.6103
14.6103
14.6103
14.6103
14.6104
14.6104
14.6105
14.6105
14.6105
14.6106
14.6106
14.6107
14.6107
14.6108
14.6108
14.6109
14.6109
14.6109
14.611
14.611
14.6109
14.6109
14.6108
14.6106
14.6104
14.6102
14.6098
14.6094
14.6089
14.6082
14.6074
14.6064
14.6052
14.6039
14.6022
14.6003
14.598
14.5954
14.5923
14.5888
14.5846
14.5799
14.5743
14.568
14.5607
14.5523
14.5426
14.5316
14.519
14.5045
14.488
14.4692
14.4478
14.4234
14.3956
14.3641
14.3282
14.2875
14.2414
14.1893
14.1304
14.0639
13.9891
13.9051
13.811
13.7059
13.5888
13.4588
13.3149
13.1564
12.9824
12.7921
12.5852
12.3612
14.6133
14.6134
14.6134
14.6135
14.6136
14.6138
14.6139
14.6141
14.6143
14.6145
14.6148
14.615
14.6153
14.6157
14.616
14.6164
14.6169
14.6173
14.6178
14.6183
14.6188
14.6194
14.6199
14.6205
14.621
14.6216
14.6221
14.6226
14.6231
14.6236
14.6239
14.6243
14.6245
14.6246
14.6246
14.6244
14.6241
14.6235
14.6226
14.6214
14.6198
14.6177
14.6151
14.6119
14.6079
14.6031
14.5973
14.5904
14.5822
14.5724
14.561
14.5475
14.5317
14.5133
14.4919
14.4671
14.4383
14.4051
14.3668
14.3229
14.2724
14.2148
14.1491
14.0744
13.9899
13.8944
13.787
13.6668
13.5326
13.3835
13.2188
13.0375
12.8391
12.6232
14.6164
14.6164
14.6165
14.6167
14.6168
14.6171
14.6174
14.6177
14.618
14.6184
14.6189
14.6194
14.6199
14.6206
14.6212
14.622
14.6228
14.6237
14.6246
14.6256
14.6266
14.6278
14.6289
14.6302
14.6315
14.6329
14.6343
14.6357
14.6373
14.6388
14.6404
14.642
14.6436
14.6453
14.6469
14.6484
14.65
14.6514
14.6527
14.6538
14.6547
14.6554
14.6557
14.6556
14.655
14.6539
14.652
14.6492
14.6454
14.6404
14.634
14.6259
14.6159
14.6037
14.5888
14.5708
14.5493
14.5237
14.4935
14.458
14.4164
14.3679
14.3117
14.2468
14.1722
14.0869
13.9899
13.8799
13.7561
13.6172
13.4624
13.2909
13.1018
12.895
14.6194
14.6194
14.6195
14.6197
14.62
14.6203
14.6207
14.6212
14.6217
14.6223
14.6229
14.6236
14.6245
14.6254
14.6264
14.6274
14.6286
14.6299
14.6313
14.6328
14.6344
14.636
14.6379
14.6398
14.6418
14.644
14.6463
14.6487
14.6512
14.6538
14.6566
14.6595
14.6625
14.6656
14.6688
14.6721
14.6755
14.679
14.6824
14.6859
14.6894
14.6927
14.696
14.699
14.7018
14.7042
14.7062
14.7076
14.7082
14.708
14.7067
14.7041
14.6999
14.6938
14.6855
14.6745
14.6604
14.6427
14.6207
14.5938
14.5613
14.5222
14.4758
14.4211
14.3569
14.2823
14.1961
14.0971
13.9842
13.8562
13.7121
13.551
13.3721
13.175
14.6223
14.6223
14.6225
14.6228
14.6231
14.6235
14.624
14.6246
14.6253
14.626
14.6269
14.6278
14.6289
14.6301
14.6314
14.6328
14.6343
14.636
14.6378
14.6398
14.6419
14.6442
14.6466
14.6492
14.6519
14.6549
14.658
14.6613
14.6648
14.6686
14.6725
14.6766
14.681
14.6856
14.6904
14.6954
14.7006
14.7061
14.7117
14.7175
14.7234
14.7294
14.7355
14.7417
14.7478
14.7538
14.7596
14.7652
14.7703
14.7748
14.7786
14.7814
14.7831
14.7832
14.7815
14.7776
14.771
14.7611
14.7475
14.7295
14.7062
14.6768
14.6405
14.5962
14.5429
14.4793
14.4044
14.3168
14.2154
14.0988
13.9661
13.8162
13.6483
13.4619
14.6251
14.6252
14.6254
14.6257
14.6261
14.6266
14.6272
14.6279
14.6287
14.6297
14.6307
14.6319
14.6332
14.6346
14.6362
14.638
14.6399
14.6419
14.6442
14.6466
14.6492
14.652
14.655
14.6583
14.6618
14.6655
14.6694
14.6736
14.6781
14.6829
14.688
14.6933
14.699
14.705
14.7114
14.7181
14.7251
14.7325
14.7402
14.7482
14.7566
14.7653
14.7742
14.7834
14.7928
14.8023
14.812
14.8216
14.8311
14.8403
14.8492
14.8574
14.8648
14.8712
14.8761
14.8792
14.8801
14.8783
14.8731
14.8639
14.85
14.8305
14.8045
14.7709
14.7287
14.6766
14.6133
14.5376
14.4482
14.3437
14.2229
14.0848
13.9285
13.7535
14.6278
14.6279
14.6281
14.6285
14.629
14.6296
14.6303
14.6311
14.6321
14.6332
14.6344
14.6358
14.6373
14.639
14.6409
14.6429
14.6452
14.6476
14.6503
14.6532
14.6563
14.6596
14.6632
14.6671
14.6712
14.6757
14.6805
14.6855
14.691
14.6968
14.7029
14.7095
14.7164
14.7238
14.7317
14.74
14.7488
14.758
14.7678
14.778
14.7888
14.8
14.8117
14.8239
14.8365
14.8495
14.8628
14.8764
14.8902
14.9041
14.9179
14.9315
14.9447
14.9571
14.9686
14.9787
14.9871
14.9932
14.9965
14.9963
14.9918
14.9823
14.9667
14.9439
14.913
14.8725
14.8213
14.7578
14.6807
14.5887
14.4804
14.3547
14.2107
14.0478
14.6304
14.6305
14.6308
14.6312
14.6317
14.6324
14.6332
14.6342
14.6353
14.6365
14.6379
14.6395
14.6413
14.6432
14.6454
14.6477
14.6503
14.6531
14.6562
14.6595
14.663
14.6669
14.671
14.6755
14.6803
14.6855
14.691
14.6969
14.7033
14.71
14.7172
14.7249
14.7331
14.7419
14.7512
14.761
14.7715
14.7826
14.7943
14.8066
14.8197
14.8334
14.8477
14.8628
14.8785
14.8949
14.9118
14.9293
14.9473
14.9657
14.9844
15.0032
15.0219
15.0404
15.0583
15.0754
15.0911
15.1051
15.1167
15.1254
15.1304
15.1307
15.1256
15.1138
15.0943
15.0656
15.0266
14.9756
14.9112
14.8321
14.7367
14.6238
14.4926
14.3424
14.6329
14.633
14.6333
14.6338
14.6344
14.6351
14.636
14.6371
14.6383
14.6397
14.6413
14.643
14.645
14.6472
14.6496
14.6522
14.6551
14.6583
14.6617
14.6654
14.6695
14.6738
14.6785
14.6835
14.6889
14.6948
14.701
14.7077
14.7149
14.7226
14.7308
14.7396
14.749
14.759
14.7697
14.781
14.7931
14.8059
14.8195
14.8339
14.8491
14.8652
14.8821
14.8999
14.9186
14.9382
14.9586
14.9799
15.0019
15.0247
15.048
15.0719
15.0961
15.1204
15.1446
15.1683
15.1913
15.2129
15.2328
15.2503
15.2645
15.2747
15.28
15.2791
15.271
15.2542
15.2274
15.189
15.1376
15.0714
14.9892
14.8896
14.7715
14.6344
14.6352
14.6353
14.6356
14.6361
14.6368
14.6376
14.6386
14.6398
14.6412
14.6427
14.6444
14.6464
14.6485
14.6509
14.6536
14.6565
14.6597
14.6632
14.6669
14.671
14.6755
14.6803
14.6855
14.691
14.697
14.7035
14.7105
14.7179
14.7259
14.7345
14.7437
14.7535
14.764
14.7752
14.7871
14.7999
14.8135
14.8279
14.8433
14.8596
14.8769
14.8952
14.9146
14.935
14.9565
14.9792
15.0029
15.0277
15.0536
15.0805
15.1084
15.1371
15.1665
15.1964
15.2266
15.2569
15.2868
15.3159
15.3438
15.3697
15.3931
15.4129
15.4284
15.4383
15.4414
15.4364
15.4218
15.396
15.3575
15.3045
15.2356
15.1493
15.0446
14.9209
14.6373
14.6375
14.6378
14.6384
14.6391
14.64
14.6411
14.6423
14.6438
14.6455
14.6473
14.6494
14.6518
14.6544
14.6573
14.6604
14.6639
14.6677
14.6718
14.6762
14.6811
14.6863
14.6919
14.698
14.7046
14.7116
14.7192
14.7274
14.7361
14.7455
14.7556
14.7663
14.7779
14.7902
14.8034
14.8174
14.8324
14.8484
14.8655
14.8836
14.9028
14.9232
14.9449
14.9678
14.992
15.0175
15.0443
15.0725
15.102
15.1329
15.165
15.1982
15.2326
15.2678
15.3038
15.3403
15.3768
15.4131
15.4486
15.4828
15.5149
15.5441
15.5694
15.5897
15.6039
15.6104
15.6078
15.5945
15.5687
15.5288
15.473
15.4001
15.3089
15.1986
14.6393
14.6394
14.6398
14.6404
14.6412
14.6421
14.6433
14.6446
14.6462
14.648
14.65
14.6523
14.6548
14.6576
14.6607
14.6641
14.6678
14.6718
14.6762
14.681
14.6862
14.6918
14.6979
14.7044
14.7115
14.7191
14.7273
14.7361
14.7455
14.7557
14.7665
14.7782
14.7907
14.804
14.8183
14.8336
14.8499
14.8673
14.8859
14.9057
14.9267
14.9491
14.9728
14.998
15.0246
15.0528
15.0826
15.1139
15.1468
15.1813
15.2173
15.2549
15.2938
15.3341
15.3755
15.4177
15.4606
15.5036
15.5464
15.5883
15.6287
15.6668
15.7015
15.7319
15.7566
15.7743
15.7833
15.782
15.7687
15.7415
15.6987
15.6389
15.5608
15.4639
14.6411
14.6412
14.6416
14.6422
14.643
14.6441
14.6453
14.6467
14.6484
14.6503
14.6524
14.6548
14.6575
14.6604
14.6637
14.6673
14.6713
14.6756
14.6802
14.6853
14.6908
14.6968
14.7033
14.7102
14.7177
14.7258
14.7346
14.7439
14.754
14.7648
14.7764
14.7889
14.8022
14.8165
14.8318
14.8482
14.8657
14.8844
14.9044
14.9257
14.9484
14.9725
14.9982
15.0254
15.0543
15.0849
15.1173
15.1515
15.1875
15.2254
15.265
15.3065
15.3497
15.3946
15.4409
15.4886
15.5372
15.5865
15.636
15.6852
15.7334
15.7798
15.8234
15.8632
15.898
15.9261
15.9462
15.9564
15.955
15.94
15.9097
15.8625
15.7971
15.713
14.6426
14.6428
14.6432
14.6438
14.6447
14.6458
14.647
14.6486
14.6503
14.6523
14.6545
14.657
14.6599
14.663
14.6664
14.6702
14.6744
14.6789
14.6838
14.6892
14.695
14.7012
14.708
14.7154
14.7233
14.7318
14.741
14.7509
14.7615
14.773
14.7852
14.7984
14.8125
14.8277
14.8439
14.8612
14.8798
14.8997
14.9209
14.9435
14.9676
14.9934
15.0208
15.0499
15.0808
15.1136
15.1483
15.1851
15.2239
15.2647
15.3077
15.3527
15.3998
15.4488
15.4996
15.5521
15.606
15.661
15.7167
15.7725
15.8278
15.8818
15.9336
15.9821
16.0261
16.064
16.0943
16.1153
16.1249
16.1214
16.1028
16.0674
16.0141
15.9421
14.644
14.6441
14.6446
14.6452
14.6461
14.6472
14.6486
14.6501
14.652
14.654
14.6564
14.659
14.6619
14.6652
14.6688
14.6727
14.677
14.6817
14.6869
14.6925
14.6985
14.7051
14.7122
14.7198
14.7281
14.737
14.7466
14.757
14.7681
14.78
14.7929
14.8067
14.8214
14.8373
14.8543
14.8725
14.892
14.9129
14.9352
14.959
14.9844
15.0115
15.0404
15.0712
15.1038
15.1386
15.1754
15.2144
15.2556
15.2991
15.3449
15.3931
15.4435
15.4962
15.551
15.6078
15.6664
15.7264
15.7875
15.8492
15.9108
15.9717
16.0308
16.0871
16.1394
16.1861
16.2257
16.2564
16.2761
16.283
16.2751
16.2505
16.2081
16.1472
14.6451
14.6453
14.6457
14.6464
14.6473
14.6484
14.6498
14.6515
14.6533
14.6555
14.6579
14.6606
14.6636
14.667
14.6707
14.6748
14.6793
14.6841
14.6895
14.6952
14.7015
14.7083
14.7156
14.7236
14.7321
14.7414
14.7513
14.762
14.7736
14.786
14.7993
14.8136
14.829
14.8454
14.8631
14.882
14.9023
14.924
14.9472
14.972
14.9985
15.0268
15.057
15.0891
15.1233
15.1596
15.1982
15.2391
15.2824
15.3282
15.3764
15.4272
15.4805
15.5363
15.5945
15.655
15.7176
15.7819
15.8477
15.9144
15.9815
16.0483
16.1137
16.1768
16.2363
16.2907
16.3384
16.3775
16.4061
16.4221
16.4236
16.4086
16.3758
16.3245
14.646
14.6461
14.6466
14.6473
14.6482
14.6494
14.6508
14.6525
14.6544
14.6566
14.6591
14.6619
14.665
14.6685
14.6723
14.6765
14.681
14.6861
14.6915
14.6974
14.7039
14.7109
14.7184
14.7266
14.7354
14.7449
14.7551
14.7661
14.778
14.7907
14.8045
14.8192
14.835
14.852
14.8702
14.8897
14.9106
14.933
14.9569
14.9826
15.0099
15.0392
15.0703
15.1036
15.139
15.1766
15.2166
15.2591
15.3041
15.3517
15.4019
15.4549
15.5105
15.5689
15.6298
15.6933
15.7591
15.827
15.8966
15.9675
16.0391
16.1106
16.1813
16.25
16.3154
16.3762
16.4306
16.4768
16.5128
16.5364
16.5457
16.5386
16.5138
16.4706
14.6466
14.6468
14.6473
14.648
14.6489
14.6501
14.6516
14.6533
14.6552
14.6575
14.66
14.6628
14.666
14.6695
14.6734
14.6777
14.6824
14.6875
14.693
14.6991
14.7057
14.7128
14.7205
14.7288
14.7378
14.7475
14.7579
14.7692
14.7813
14.7943
14.8083
14.8234
14.8395
14.8569
14.8755
14.8954
14.9168
14.9397
14.9642
14.9905
15.0185
15.0484
15.0804
15.1145
15.1508
15.1894
15.2305
15.2741
15.3204
15.3694
15.4211
15.4757
15.5331
15.5934
15.6565
15.7222
15.7905
15.8611
15.9336
16.0077
16.0827
16.158
16.2326
16.3056
16.3757
16.4413
16.5009
16.5525
16.5941
16.6237
16.6389
16.638
16.6194
16.5823
14.647
14.6472
14.6477
14.6484
14.6494
14.6506
14.652
14.6538
14.6557
14.658
14.6606
14.6635
14.6667
14.6702
14.6742
14.6785
14.6832
14.6884
14.694
14.7002
14.7068
14.714
14.7218
14.7302
14.7393
14.7492
14.7598
14.7712
14.7834
14.7967
14.8109
14.8261
14.8425
14.8601
14.879
14.8992
14.9209
14.9442
14.9691
14.9957
15.0242
15.0546
15.0871
15.1217
15.1586
15.1979
15.2397
15.2842
15.3313
15.3812
15.4339
15.4896
15.5482
15.6098
15.6743
15.7416
15.8115
15.8839
15.9584
16.0346
16.1119
16.1897
16.267
16.3429
16.416
16.485
16.548
16.6034
16.6488
16.6823
16.7017
16.7049
16.6905
16.6575
14.6495
14.6508
14.6522
14.654
14.656
14.6582
14.6608
14.6637
14.6669
14.6705
14.6745
14.6788
14.6836
14.6888
14.6945
14.7006
14.7073
14.7146
14.7224
14.7309
14.7401
14.7499
14.7606
14.7721
14.7845
14.7978
14.8121
14.8274
14.8439
14.8616
14.8806
14.901
14.9229
14.9463
14.9714
14.9982
15.0269
15.0576
15.0903
15.1252
15.1624
15.2021
15.2442
15.289
15.3366
15.3869
15.4402
15.4964
15.5556
15.6178
15.683
15.751
15.8218
15.8951
15.9706
16.0478
16.1263
16.2053
16.2839
16.3612
16.4358
16.5064
16.5712
16.6282
16.6756
16.711
16.7323
16.7375
16.725
16.6941
16.6273
16.6747
16.71
16.7313
16.7364
16.6007
16.646
16.6793
16.6985
16.7014
14.5562
14.556
14.5555
14.5547
14.5536
14.5522
14.5505
14.5485
14.5462
14.5436
14.5406
14.5372
14.5334
14.5293
14.5247
14.5197
14.5142
14.5082
14.5017
14.4945
14.4867
14.4783
14.4691
14.4591
14.4483
14.4366
14.424
14.4103
14.3955
14.3795
14.3622
14.3435
14.3234
14.3017
14.2782
14.2529
14.2257
14.1963
14.1646
14.1305
14.0938
14.0544
14.0119
13.9662
13.9172
13.8645
13.8079
13.7472
13.6821
13.6123
13.5376
13.4576
13.372
13.2806
13.183
13.0789
12.968
12.8498
12.7241
12.5906
12.4488
12.2985
12.1394
11.9712
11.7935
11.6063
11.4092
11.202
10.9847
10.7572
10.5193
10.271
10.0124
9.74335
14.5564
14.5562
14.5557
14.5549
14.5539
14.5525
14.5508
14.5488
14.5465
14.5439
14.5409
14.5375
14.5338
14.5297
14.5251
14.5202
14.5147
14.5087
14.5022
14.4951
14.4873
14.4789
14.4698
14.4599
14.4491
14.4375
14.4249
14.4113
14.3966
14.3806
14.3634
14.3449
14.3248
14.3032
14.2798
14.2547
14.2275
14.1983
14.1668
14.1329
14.0963
14.057
14.0147
13.9693
13.9204
13.8679
13.8116
13.7511
13.6862
13.6167
13.5423
13.4626
13.3773
13.2862
13.189
13.0852
12.9745
12.8567
12.7314
12.5981
12.4567
12.3068
12.148
11.98
11.8027
11.6157
11.4189
11.212
10.9949
10.7676
10.5298
10.2817
10.0231
9.75421
14.5569
14.5567
14.5562
14.5554
14.5544
14.553
14.5513
14.5494
14.5471
14.5445
14.5415
14.5382
14.5345
14.5304
14.5259
14.521
14.5156
14.5097
14.5032
14.4962
14.4885
14.4802
14.4711
14.4613
14.4507
14.4392
14.4267
14.4132
14.3987
14.3829
14.3659
14.3475
14.3276
14.3062
14.2831
14.2581
14.2313
14.2023
14.1711
14.1375
14.1013
14.0623
14.0204
13.9753
13.9269
13.8748
13.8189
13.7589
13.6946
13.6256
13.5517
13.4726
13.3879
13.2974
13.2008
13.0977
12.9877
12.8705
12.7459
12.6133
12.4726
12.3233
12.1651
11.9978
11.8211
11.6347
11.4385
11.2321
11.0155
10.7886
10.5512
10.3034
10.0451
9.77639
14.5576
14.5574
14.5569
14.5562
14.5551
14.5538
14.5521
14.5502
14.548
14.5454
14.5425
14.5392
14.5356
14.5316
14.5271
14.5223
14.5169
14.5111
14.5048
14.4978
14.4903
14.4821
14.4732
14.4635
14.4531
14.4417
14.4294
14.4162
14.4018
14.3863
14.3695
14.3514
14.3318
14.3107
14.2879
14.2633
14.2368
14.2083
14.1775
14.1443
14.1086
14.0702
14.0288
13.9843
13.9365
13.8851
13.8299
13.7706
13.7071
13.6389
13.5658
13.4875
13.4038
13.3142
13.2185
13.1164
13.0074
12.8912
12.7676
12.6361
12.4963
12.348
12.1909
12.0246
11.8488
11.6633
11.4679
11.2623
11.0465
10.8202
10.5834
10.3361
10.0782
9.8098
14.5585
14.5583
14.5579
14.5571
14.5561
14.5548
14.5532
14.5513
14.5491
14.5466
14.5437
14.5405
14.537
14.533
14.5287
14.5239
14.5187
14.513
14.5068
14.5
14.4926
14.4846
14.4759
14.4664
14.4562
14.4451
14.4331
14.42
14.406
14.3907
14.3743
14.3565
14.3374
14.3167
14.2943
14.2702
14.2442
14.2162
14.186
14.1535
14.1184
14.0807
14.04
13.9963
13.9493
13.8988
13.8445
13.7862
13.7236
13.6565
13.5845
13.5074
13.4248
13.3365
13.2421
13.1412
13.0336
12.9188
12.7965
12.6663
12.5279
12.381
12.2252
12.0602
11.8857
11.7014
11.5072
11.3027
11.0878
10.8624
10.6265
10.3798
10.1225
9.85456
14.5597
14.5595
14.559
14.5583
14.5573
14.556
14.5545
14.5527
14.5505
14.5481
14.5453
14.5422
14.5387
14.5349
14.5307
14.526
14.521
14.5154
14.5093
14.5027
14.4955
14.4877
14.4792
14.47
14.46
14.4492
14.4375
14.4248
14.4111
14.3963
14.3803
14.363
14.3442
14.3241
14.3023
14.2788
14.2534
14.226
14.1966
14.1648
14.1305
14.0936
14.0539
14.0112
13.9652
13.9158
13.8626
13.8055
13.7442
13.6784
13.6078
13.5321
13.451
13.3642
13.2714
13.1721
13.0661
12.953
12.8324
12.704
12.5674
12.4222
12.2681
12.1047
11.9318
11.7491
11.5562
11.3531
11.1395
10.9153
10.6804
10.4346
10.1781
9.91074
14.5611
14.5609
14.5604
14.5597
14.5588
14.5575
14.556
14.5543
14.5522
14.5498
14.5471
14.5441
14.5408
14.5371
14.533
14.5285
14.5236
14.5182
14.5124
14.506
14.499
14.4914
14.4832
14.4743
14.4646
14.4542
14.4428
14.4305
14.4173
14.4029
14.3873
14.3706
14.3524
14.3329
14.3117
14.2889
14.2643
14.2377
14.2091
14.1782
14.1449
14.1091
14.0704
14.0289
13.9841
13.9359
13.8841
13.8285
13.7686
13.7044
13.6354
13.5615
13.4822
13.3972
13.3063
13.209
13.105
12.9939
12.8754
12.7491
12.6145
12.4714
12.3193
12.158
11.987
11.8062
11.6152
11.4137
11.2017
10.9789
10.7453
10.5006
10.245
9.97846
14.5626
14.5625
14.562
14.5614
14.5604
14.5593
14.5578
14.5561
14.5541
14.5518
14.5492
14.5464
14.5431
14.5396
14.5356
14.5313
14.5266
14.5215
14.5158
14.5097
14.503
14.4957
14.4878
14.4792
14.4699
14.4598
14.4489
14.4371
14.4243
14.4105
14.3955
14.3793
14.3619
14.343
14.3226
14.3006
14.2768
14.2512
14.2236
14.1937
14.1616
14.1269
14.0895
14.0493
14.0059
13.9592
13.909
13.855
13.7969
13.7345
13.6675
13.5955
13.5183
13.4355
13.3468
13.2518
13.1501
13.0414
12.9253
12.8014
12.6693
12.5286
12.379
12.22
12.0514
11.8728
11.6839
11.4845
11.2744
11.0533
10.8212
10.5779
10.3235
10.0579
14.5644
14.5643
14.5639
14.5632
14.5623
14.5612
14.5598
14.5582
14.5563
14.5541
14.5516
14.5489
14.5458
14.5424
14.5387
14.5345
14.53
14.5251
14.5197
14.5139
14.5075
14.5005
14.493
14.4848
14.4759
14.4662
14.4558
14.4445
14.4323
14.419
14.4047
14.3892
14.3725
14.3544
14.3349
14.3138
14.291
14.2664
14.2399
14.2112
14.1803
14.147
14.111
14.0723
14.0306
13.9856
13.9372
13.885
13.8289
13.7686
13.7037
13.634
13.5592
13.4788
13.3926
13.3003
13.2013
13.0953
12.982
12.8609
12.7317
12.5938
12.447
12.2908
12.1249
11.9489
11.7625
11.5654
11.3575
11.1385
10.9082
10.6666
10.4136
10.1491
14.5664
14.5662
14.5658
14.5652
14.5644
14.5633
14.562
14.5605
14.5587
14.5566
14.5543
14.5517
14.5487
14.5455
14.542
14.5381
14.5338
14.5291
14.524
14.5185
14.5124
14.5058
14.4987
14.4909
14.4825
14.4733
14.4634
14.4527
14.4411
14.4285
14.4149
14.4002
14.3842
14.367
14.3485
14.3284
14.3067
14.2832
14.2579
14.2306
14.2011
14.1693
14.1349
14.0979
14.0579
14.0148
13.9684
13.9184
13.8645
13.8065
13.7441
13.6769
13.6047
13.5271
13.4438
13.3543
13.2584
13.1555
13.0454
12.9275
12.8014
12.6668
12.5232
12.3701
12.2073
12.0343
11.8508
11.6566
11.4512
11.2346
11.0065
10.7668
10.5155
10.2524
14.5685
14.5684
14.568
14.5674
14.5667
14.5657
14.5644
14.563
14.5613
14.5593
14.5571
14.5547