/*--------------------------------*- C++ -*----------------------------------*\
  =========                 |
  \\      /  F ield         | OpenFOAM: The Open Source CFD Toolbox
   \\    /   O peration     | Website:  https://openfoam.org
    \\  /    A nd           | Version:  13
     \\/     M anipulation  |
\*---------------------------------------------------------------------------*/
FoamFile
{
    format      ascii;
    class       volScalarField;
    location    "400";
    object      k;
}
// * * * * * * * * * * * * * * * * * * * * * * * * * * * * * * * * * * * * * //

dimensions      [0 2 -2 0 0 0 0];

internalField   nonuniform List<scalar> 
173327
(
0.275214
0.274017
0.272835
0.271668
0.270517
0.269382
0.268262
0.267157
0.266067
0.264992
0.263931
0.262883
0.261848
0.260825
0.259814
0.258814
0.257824
0.256845
0.255875
0.254914
0.253961
0.253017
0.25208
0.251151
0.250229
0.249313
0.248403
0.247499
0.246601
0.245708
0.24482
0.243937
0.243058
0.242183
0.241313
0.240445
0.239581
0.238721
0.237863
0.237008
0.236156
0.235306
0.234458
0.233611
0.232767
0.231925
0.231084
0.230245
0.229408
0.228572
0.227737
0.226903
0.226071
0.225241
0.224412
0.223585
0.222759
0.221936
0.221115
0.220297
0.219481
0.218668
0.217859
0.217052
0.216249
0.21545
0.214655
0.213864
0.213079
0.212298
0.211522
0.210751
0.209987
0.209227
0.208474
0.207728
0.206999
0.275275
0.27408
0.2729
0.271735
0.270586
0.269452
0.268334
0.267231
0.266143
0.265069
0.264009
0.262962
0.261928
0.260906
0.259895
0.258896
0.257907
0.256928
0.255959
0.254998
0.254046
0.253101
0.252165
0.251236
0.250313
0.249397
0.248488
0.247584
0.246686
0.245793
0.244905
0.244022
0.243143
0.242269
0.241398
0.240532
0.239668
0.238808
0.237951
0.237097
0.236246
0.235396
0.234549
0.233704
0.232861
0.23202
0.231181
0.230344
0.229508
0.228673
0.227841
0.227009
0.226179
0.225351
0.224525
0.2237
0.222877
0.222056
0.221238
0.220422
0.219609
0.218799
0.217992
0.217188
0.216387
0.215591
0.214799
0.214011
0.213227
0.212449
0.211675
0.210906
0.210143
0.209386
0.208634
0.207889
0.207164
0.275405
0.274214
0.273039
0.271878
0.270733
0.269603
0.268489
0.267389
0.266305
0.265234
0.264177
0.263134
0.262102
0.261083
0.260075
0.259077
0.258091
0.257113
0.256145
0.255186
0.254235
0.253292
0.252357
0.251429
0.250507
0.249592
0.248684
0.247781
0.246883
0.245991
0.245104
0.244221
0.243343
0.242469
0.241599
0.240733
0.239871
0.239011
0.238155
0.237301
0.23645
0.235602
0.234756
0.233911
0.233069
0.232229
0.23139
0.230553
0.229718
0.228884
0.228052
0.227221
0.226392
0.225564
0.224738
0.223914
0.223092
0.222271
0.221453
0.220638
0.219825
0.219015
0.218208
0.217405
0.216605
0.215808
0.215016
0.214228
0.213444
0.212666
0.211892
0.211123
0.21036
0.209602
0.20885
0.208105
0.207379
0.27561
0.274426
0.273257
0.272103
0.270964
0.26984
0.268731
0.267638
0.266558
0.265493
0.264441
0.263401
0.262374
0.261359
0.260354
0.25936
0.258377
0.257402
0.256437
0.25548
0.254531
0.25359
0.252657
0.25173
0.25081
0.249897
0.248989
0.248087
0.247191
0.2463
0.245414
0.244532
0.243655
0.242781
0.241912
0.241047
0.240185
0.239326
0.23847
0.237617
0.236766
0.235918
0.235072
0.234228
0.233386
0.232546
0.231707
0.23087
0.230035
0.229201
0.228368
0.227537
0.226708
0.22588
0.225054
0.224229
0.223406
0.222586
0.221767
0.220951
0.220138
0.219328
0.21852
0.217716
0.216915
0.216118
0.215325
0.214536
0.213752
0.212972
0.212197
0.211428
0.210664
0.209905
0.209152
0.208406
0.207677
0.275906
0.274731
0.27357
0.272424
0.271294
0.270178
0.269077
0.267991
0.266919
0.26586
0.264814
0.263781
0.262759
0.261749
0.26075
0.25976
0.258781
0.25781
0.256848
0.255895
0.254949
0.254011
0.25308
0.252156
0.251238
0.250326
0.249421
0.24852
0.247625
0.246735
0.24585
0.24497
0.244093
0.243221
0.242352
0.241487
0.240626
0.239767
0.238911
0.238058
0.237208
0.23636
0.235513
0.234669
0.233827
0.232986
0.232147
0.231309
0.230473
0.229638
0.228805
0.227973
0.227142
0.226313
0.225486
0.22466
0.223836
0.223014
0.222194
0.221377
0.220562
0.21975
0.218941
0.218135
0.217333
0.216534
0.21574
0.214949
0.214164
0.213383
0.212607
0.211836
0.21107
0.21031
0.209556
0.208809
0.208078
0.276313
0.275149
0.274
0.272865
0.271745
0.27064
0.269548
0.268471
0.267408
0.266357
0.265319
0.264293
0.263279
0.262275
0.261281
0.260297
0.259323
0.258357
0.257399
0.25645
0.255507
0.254572
0.253644
0.252723
0.251807
0.250897
0.249993
0.249095
0.248201
0.247313
0.246428
0.245549
0.244673
0.243801
0.242933
0.242069
0.241207
0.240349
0.239493
0.238639
0.237788
0.23694
0.236093
0.235248
0.234404
0.233563
0.232722
0.231883
0.231046
0.230209
0.229374
0.228541
0.227708
0.226877
0.226048
0.22522
0.224394
0.22357
0.222748
0.221929
0.221112
0.220297
0.219486
0.218678
0.217873
0.217073
0.216276
0.215484
0.214696
0.213913
0.213135
0.212362
0.211594
0.210833
0.210076
0.209327
0.208595
0.276866
0.275716
0.27458
0.273458
0.272351
0.271258
0.270178
0.269112
0.268059
0.267018
0.265989
0.264971
0.263964
0.262968
0.26198
0.261003
0.260033
0.259072
0.258119
0.257173
0.256235
0.255303
0.254378
0.253458
0.252545
0.251637
0.250735
0.249838
0.248945
0.248057
0.247174
0.246295
0.24542
0.244548
0.24368
0.242815
0.241953
0.241094
0.240237
0.239383
0.238531
0.237681
0.236833
0.235986
0.235141
0.234298
0.233455
0.232614
0.231775
0.230936
0.230098
0.229262
0.228427
0.227593
0.226761
0.225931
0.225102
0.224275
0.22345
0.222627
0.221807
0.22099
0.220175
0.219364
0.218557
0.217753
0.216953
0.216158
0.215367
0.214581
0.2138
0.213025
0.212255
0.211491
0.210732
0.209981
0.209247
0.277612
0.276479
0.275359
0.274252
0.27316
0.27208
0.271014
0.26996
0.268918
0.267887
0.266868
0.265859
0.264861
0.263871
0.262891
0.261918
0.260954
0.259998
0.259049
0.258107
0.257171
0.256242
0.255318
0.254401
0.253489
0.252582
0.251681
0.250784
0.249892
0.249004
0.24812
0.247241
0.246365
0.245493
0.244623
0.243757
0.242894
0.242034
0.241175
0.240319
0.239465
0.238613
0.237762
0.236913
0.236065
0.235219
0.234373
0.233529
0.232686
0.231844
0.231003
0.230163
0.229324
0.228486
0.22765
0.226816
0.225983
0.225151
0.224322
0.223495
0.222671
0.22185
0.221031
0.220216
0.219405
0.218597
0.217793
0.216994
0.2162
0.21541
0.214626
0.213847
0.213074
0.212306
0.211544
0.21079
0.210053
0.278622
0.277508
0.276407
0.275317
0.274241
0.273176
0.272123
0.271082
0.270051
0.269032
0.268022
0.267021
0.26603
0.265047
0.264072
0.263104
0.262144
0.261191
0.260244
0.259304
0.25837
0.257441
0.256519
0.255601
0.254689
0.253782
0.252879
0.251981
0.251088
0.250199
0.249313
0.248431
0.247553
0.246679
0.245807
0.244938
0.244072
0.243208
0.242346
0.241487
0.240629
0.239773
0.238918
0.238065
0.237213
0.236361
0.235511
0.234662
0.233814
0.232967
0.232121
0.231276
0.230431
0.229588
0.228747
0.227907
0.227068
0.226231
0.225397
0.224564
0.223735
0.222908
0.222084
0.221264
0.220447
0.219634
0.218825
0.218021
0.217222
0.216428
0.215639
0.214855
0.214078
0.213306
0.21254
0.211782
0.211041
0.280001
0.278907
0.277825
0.276753
0.275692
0.274642
0.273602
0.272572
0.271552
0.270541
0.269538
0.268544
0.267557
0.266578
0.265606
0.26464
0.263681
0.262728
0.261781
0.260839
0.259904
0.258973
0.258048
0.257127
0.256212
0.255301
0.254395
0.253493
0.252595
0.251701
0.250811
0.249925
0.249041
0.248161
0.247284
0.24641
0.245538
0.244669
0.243801
0.242936
0.242072
0.241209
0.240348
0.239488
0.238629
0.237771
0.236914
0.236058
0.235203
0.234348
0.233495
0.232642
0.23179
0.23094
0.230091
0.229243
0.228397
0.227553
0.226711
0.225871
0.225034
0.2242
0.223369
0.222542
0.221719
0.220899
0.220084
0.219274
0.218468
0.217668
0.216873
0.216084
0.2153
0.214523
0.213752
0.212988
0.212243
0.281894
0.280821
0.279756
0.2787
0.277652
0.276613
0.275582
0.27456
0.273545
0.272537
0.271537
0.270544
0.269557
0.268576
0.267601
0.266632
0.265668
0.26471
0.263756
0.262808
0.261865
0.260927
0.259994
0.259066
0.258142
0.257223
0.256308
0.255397
0.25449
0.253587
0.252688
0.251792
0.2509
0.250011
0.249124
0.24824
0.247359
0.24648
0.245603
0.244727
0.243854
0.242981
0.24211
0.24124
0.240371
0.239503
0.238636
0.23777
0.236904
0.236039
0.235175
0.234312
0.23345
0.232589
0.23173
0.230872
0.230016
0.229162
0.22831
0.227461
0.226615
0.225771
0.224931
0.224095
0.223263
0.222435
0.221611
0.220792
0.219979
0.219171
0.218368
0.217572
0.216781
0.215997
0.215219
0.214449
0.213698
0.284508
0.283451
0.282399
0.281352
0.28031
0.279274
0.278244
0.277219
0.2762
0.275187
0.274178
0.273176
0.272178
0.271185
0.270197
0.269214
0.268236
0.267263
0.266295
0.265331
0.264372
0.263418
0.262469
0.261524
0.260584
0.259648
0.258717
0.25779
0.256867
0.255948
0.255033
0.254122
0.253214
0.252309
0.251407
0.250508
0.249611
0.248717
0.247825
0.246934
0.246046
0.245158
0.244272
0.243388
0.242504
0.241621
0.240739
0.239858
0.238978
0.238099
0.23722
0.236343
0.235467
0.234593
0.233719
0.232848
0.231979
0.231112
0.230247
0.229385
0.228526
0.227671
0.226819
0.225971
0.225128
0.224289
0.223455
0.222625
0.221802
0.220984
0.220172
0.219366
0.218566
0.217773
0.216987
0.216208
0.215449
0.28812
0.28707
0.286019
0.284968
0.283918
0.282869
0.281822
0.280778
0.279737
0.2787
0.277666
0.276636
0.27561
0.274588
0.273571
0.272557
0.271549
0.270545
0.269546
0.268552
0.267563
0.266579
0.265601
0.264627
0.263658
0.262695
0.261736
0.260782
0.259832
0.258887
0.257947
0.25701
0.256078
0.255148
0.254223
0.2533
0.25238
0.251463
0.250548
0.249635
0.248725
0.247815
0.246908
0.246002
0.245097
0.244194
0.243291
0.24239
0.24149
0.240591
0.239694
0.238798
0.237903
0.23701
0.236119
0.23523
0.234343
0.233459
0.232578
0.231699
0.230825
0.229954
0.229087
0.228224
0.227366
0.226513
0.225665
0.224823
0.223987
0.223156
0.222332
0.221514
0.220703
0.219899
0.219102
0.218312
0.217544
0.293095
0.292036
0.290966
0.289887
0.288802
0.287714
0.286623
0.285531
0.284439
0.283349
0.282261
0.281175
0.280093
0.279015
0.277942
0.276873
0.275809
0.274751
0.273698
0.272651
0.271611
0.270576
0.269548
0.268526
0.267511
0.266501
0.265498
0.264501
0.263509
0.262523
0.261543
0.260567
0.259597
0.258631
0.257669
0.256711
0.255757
0.254806
0.253859
0.252914
0.251972
0.251032
0.250095
0.249159
0.248225
0.247294
0.246364
0.245435
0.244508
0.243583
0.24266
0.241739
0.24082
0.239903
0.238988
0.238076
0.237167
0.236261
0.235358
0.234459
0.233565
0.232674
0.231788
0.230906
0.23003
0.22916
0.228295
0.227436
0.226583
0.225737
0.224897
0.224065
0.223239
0.222421
0.22161
0.220807
0.220026
0.299961
0.298862
0.297737
0.29659
0.295428
0.294253
0.293071
0.291883
0.290693
0.289503
0.288314
0.287128
0.285946
0.284769
0.283598
0.282434
0.281277
0.280127
0.278986
0.277852
0.276728
0.275612
0.274505
0.273407
0.272317
0.271237
0.270164
0.2691
0.268044
0.266996
0.265955
0.264921
0.263894
0.262873
0.261858
0.260849
0.259845
0.258846
0.257852
0.256862
0.255875
0.254893
0.253913
0.252937
0.251964
0.250994
0.250026
0.249061
0.248099
0.24714
0.246183
0.245229
0.244278
0.243329
0.242385
0.241443
0.240506
0.239572
0.238642
0.237717
0.236797
0.235881
0.234971
0.234066
0.233167
0.232275
0.231388
0.230509
0.229635
0.228769
0.227911
0.227059
0.226215
0.225379
0.22455
0.22373
0.222933
0.309526
0.308347
0.307115
0.305841
0.304534
0.303202
0.301849
0.300486
0.299118
0.29775
0.296384
0.295023
0.29367
0.292325
0.290991
0.289667
0.288355
0.287056
0.285769
0.284496
0.283236
0.28199
0.280757
0.279538
0.278331
0.277138
0.275958
0.27479
0.273633
0.272489
0.271355
0.270233
0.26912
0.268017
0.266923
0.265838
0.264761
0.263691
0.262629
0.261574
0.260525
0.259482
0.258444
0.257412
0.256384
0.255362
0.254344
0.25333
0.252321
0.251316
0.250315
0.249318
0.248326
0.247338
0.246354
0.245376
0.244402
0.243433
0.24247
0.241511
0.240559
0.239613
0.238673
0.237739
0.236812
0.235891
0.234978
0.234072
0.233173
0.232282
0.231399
0.230524
0.229656
0.228797
0.227946
0.227103
0.226285
0.323299
0.321931
0.320465
0.318923
0.317326
0.315691
0.31403
0.312356
0.310678
0.309002
0.307334
0.305679
0.304035
0.302404
0.300792
0.299202
0.297633
0.296087
0.294563
0.293063
0.291584
0.290128
0.288695
0.287282
0.285891
0.284521
0.283171
0.28184
0.280528
0.279235
0.277959
0.2767
0.275457
0.274229
0.273016
0.271817
0.270631
0.269458
0.268297
0.267147
0.266007
0.264878
0.263758
0.262647
0.261544
0.26045
0.259363
0.258284
0.257212
0.256147
0.255088
0.254036
0.252991
0.251952
0.25092
0.249895
0.248876
0.247863
0.246858
0.245859
0.244868
0.243883
0.242906
0.241937
0.240975
0.240021
0.239074
0.238136
0.237206
0.236284
0.23537
0.234465
0.233568
0.23268
0.2318
0.230929
0.230083
0.343414
0.341611
0.339653
0.337581
0.33543
0.33323
0.331006
0.328776
0.326554
0.32435
0.322172
0.320025
0.317912
0.315834
0.313794
0.311791
0.309825
0.307898
0.306009
0.304157
0.302341
0.300562
0.298818
0.297108
0.295427
0.293777
0.292159
0.290574
0.289019
0.287494
0.285998
0.28453
0.283089
0.281672
0.280281
0.278912
0.277566
0.27624
0.274935
0.273649
0.27238
0.271129
0.269894
0.268674
0.267469
0.266277
0.265099
0.263933
0.262779
0.261637
0.260505
0.259384
0.258273
0.257171
0.25608
0.254998
0.253925
0.252861
0.251806
0.25076
0.249723
0.248694
0.247675
0.246664
0.245663
0.24467
0.243686
0.24271
0.241744
0.240787
0.239838
0.238898
0.237967
0.237045
0.236131
0.235226
0.234346
0.367983
0.36519
0.362261
0.359252
0.356207
0.35316
0.350135
0.347149
0.344211
0.341329
0.338509
0.335752
0.333059
0.330427
0.327857
0.325346
0.322894
0.3205
0.318161
0.315877
0.313647
0.311469
0.309343
0.307267
0.305239
0.303259
0.301325
0.299437
0.297592
0.295791
0.294031
0.292311
0.290631
0.288988
0.287382
0.285809
0.284267
0.282756
0.281273
0.279821
0.278399
0.277004
0.275635
0.27429
0.27297
0.271671
0.270393
0.269135
0.267896
0.266674
0.26547
0.264281
0.263108
0.261949
0.260804
0.259672
0.258553
0.257447
0.256353
0.25527
0.254199
0.253138
0.252089
0.25105
0.250021
0.249002
0.247994
0.246995
0.246005
0.245025
0.244054
0.243092
0.242139
0.241194
0.240257
0.239344
0.393829
0.390314
0.386724
0.383118
0.379511
0.375937
0.372417
0.36896
0.365571
0.362252
0.359002
0.355818
0.352698
0.349639
0.34664
0.343698
0.340812
0.337981
0.335206
0.332485
0.329818
0.327205
0.324647
0.322143
0.319694
0.3173
0.314961
0.312676
0.310446
0.30827
0.306148
0.304079
0.302062
0.300098
0.298185
0.296322
0.294507
0.29274
0.291019
0.289341
0.287707
0.286114
0.28456
0.283043
0.281562
0.280116
0.278702
0.277318
0.275964
0.274638
0.273338
0.272063
0.270811
0.26958
0.268371
0.267182
0.266012
0.264861
0.263729
0.262613
0.261514
0.26043
0.259361
0.258306
0.257264
0.256235
0.255218
0.254212
0.253217
0.252232
0.251257
0.250291
0.249333
0.248382
0.247439
0.246513
0.395305
0.392138
0.389097
0.386225
0.383537
0.381025
0.378667
0.376438
0.374308
0.372247
0.370227
0.368222
0.366215
0.364192
0.362142
0.36006
0.357942
0.355788
0.353597
0.351373
0.349117
0.346834
0.344529
0.342206
0.339871
0.337529
0.335187
0.33285
0.330524
0.328214
0.325926
0.323663
0.321431
0.319233
0.317072
0.314953
0.312877
0.310847
0.308865
0.30693
0.305044
0.303204
0.301411
0.299659
0.29795
0.296284
0.29466
0.293079
0.291541
0.290045
0.28859
0.287177
0.285803
0.284468
0.28317
0.281908
0.280681
0.279488
0.278326
0.277194
0.276091
0.275014
0.273963
0.272935
0.271928
0.27094
0.269969
0.269014
0.268072
0.267143
0.266224
0.265313
0.26441
0.263511
0.262613
0.261717
0.391587
0.389042
0.386887
0.385451
0.384707
0.384587
0.385017
0.385918
0.387205
0.388752
0.390266
0.391711
0.393051
0.394259
0.395309
0.39618
0.396856
0.397326
0.39758
0.397616
0.39743
0.397025
0.396403
0.395571
0.394537
0.393312
0.391906
0.390334
0.38861
0.386748
0.384765
0.382676
0.380496
0.37824
0.375922
0.373556
0.371153
0.368727
0.366288
0.363841
0.361388
0.358926
0.356457
0.353953
0.351442
0.348949
0.346492
0.344089
0.341751
0.339488
0.337306
0.335212
0.333208
0.331296
0.329476
0.327748
0.326109
0.324557
0.32309
0.321703
0.320392
0.319151
0.317976
0.316855
0.315776
0.314726
0.3137
0.312702
0.311727
0.310772
0.309835
0.30891
0.307993
0.307078
0.306161
0.305212
0.542908
0.560639
0.573898
0.583281
0.593889
0.60538
0.617332
0.629264
0.640976
0.652137
0.662524
0.671984
0.680388
0.687643
0.693684
0.69847
0.70198
0.704221
0.705222
0.705036
0.703734
0.701398
0.698117
0.693986
0.689098
0.683564
0.677479
0.67093
0.663988
0.656718
0.649176
0.641416
0.63349
0.62544
0.61731
0.609139
0.600971
0.592843
0.584791
0.576848
0.569043
0.561406
0.553962
0.546741
0.539756
0.533019
0.526539
0.520324
0.51438
0.508711
0.503321
0.498208
0.493374
0.488813
0.48452
0.480489
0.47671
0.473173
0.469868
0.466783
0.463903
0.461214
0.458695
0.456318
0.454044
0.45182
0.44963
0.447486
0.445392
0.443349
0.441353
0.439398
0.437476
0.435578
0.433693
0.431734
1.30998
1.43356
1.54668
1.64453
1.72618
1.79246
1.84424
1.88266
1.91011
1.92804
1.93794
1.94109
1.93844
1.93083
1.91894
1.90337
1.88469
1.8634
1.83997
1.81482
1.78831
1.76078
1.73248
1.70365
1.67424
1.64404
1.61296
1.58105
1.54839
1.51513
1.48145
1.44755
1.41374
1.38022
1.34716
1.31466
1.28284
1.25183
1.2217
1.19254
1.1644
1.1373
1.11129
1.08636
1.06253
1.03979
1.01812
0.997524
0.977972
0.959444
0.941918
0.925362
0.909745
0.895027
0.881171
0.868133
0.855871
0.844342
0.833501
0.823304
0.813705
0.80466
0.796124
0.788056
0.780421
0.773173
0.766262
0.759641
0.753268
0.747102
0.74111
0.735259
0.729523
0.723887
0.718178
3.36933
2.59064
2.05438
1.86885
1.7809
1.73593
1.71911
1.69275
1.68334
1.68571
1.69677
1.7099
1.724
1.73915
1.75545
1.77354
1.79414
1.81783
1.84502
1.87605
1.91129
1.95116
1.99611
2.04676
2.08882
2.11562
2.13013
2.13505
2.13279
2.12522
2.11359
2.09853
2.07982
2.05794
2.03406
2.00872
1.98209
1.9541
1.92476
1.89422
1.8627
1.83051
1.79803
1.76555
1.73332
1.70157
1.67047
1.64017
1.61076
1.58233
1.55492
1.52854
1.5032
1.47888
1.45556
1.43323
1.41184
1.39137
1.37178
1.35304
1.33509
1.31789
1.30138
1.2855
1.27022
1.25546
1.24118
1.22733
1.21385
1.2007
1.18784
1.17524
1.16288
1.15078
1.13882
1.55835
1.4347
1.39822
1.3834
1.38307
1.3763
1.36543
1.36182
1.32993
1.31582
1.30469
1.2965
1.29039
1.28613
1.28331
1.28191
1.28196
1.2833
1.28542
1.28809
1.29129
1.29528
1.30037
1.30693
1.31496
1.32358
1.3326
1.3427
1.35739
1.3806
1.41129
1.45019
1.4981
1.55277
1.6091
1.66501
1.72171
1.77978
1.82343
1.8556
1.87864
1.89425
1.90346
1.90681
1.9057
1.90153
1.89529
1.88762
1.87889
1.86918
1.85847
1.84674
1.83409
1.82063
1.8065
1.79182
1.77671
1.76131
1.74569
1.72995
1.71413
1.69829
1.68244
1.66662
1.65083
1.6351
1.6194
1.60375
1.58814
1.57256
1.557
1.54148
1.52599
1.51063
1.4954
1.13207
1.1634
1.19091
1.21243
1.22182
1.21405
1.20269
1.19207
1.18303
1.17536
1.1688
1.16355
1.15958
1.15806
1.15867
1.16076
1.16388
1.16733
1.16856
1.16831
1.16735
1.16675
1.167
1.1684
1.1712
1.17557
1.18107
1.18735
1.19452
1.20267
1.21179
1.22217
1.23384
1.24648
1.25949
1.27243
1.28521
1.29785
1.30961
1.32038
1.33052
1.34064
1.35188
1.36617
1.38491
1.41102
1.4437
1.48182
1.52346
1.56508
1.60057
1.62835
1.64957
1.66549
1.6772
1.68549
1.69096
1.69409
1.69521
1.69462
1.69255
1.68925
1.68487
1.67957
1.67345
1.66659
1.65906
1.65092
1.64219
1.63287
1.62297
1.61252
1.60156
1.59023
1.57861
1.18253
1.24021
1.26902
1.28956
1.29764
1.29442
1.2875
1.28009
1.27326
1.26672
1.26017
1.25368
1.24738
1.2414
1.23585
1.2308
1.22571
1.21996
1.21401
1.20832
1.20316
1.1987
1.19507
1.19243
1.19081
1.19015
1.19031
1.19117
1.19279
1.19536
1.19888
1.20306
1.20769
1.21247
1.21696
1.22047
1.22169
1.22
1.2168
1.21342
1.21147
1.21142
1.21266
1.21475
1.21776
1.22182
1.22702
1.23331
1.24052
1.24827
1.25606
1.26362
1.27107
1.27814
1.2846
1.29037
1.29544
1.29985
1.30354
1.3062
1.30843
1.31213
1.31707
1.32299
1.32965
1.33678
1.34417
1.35154
1.35812
1.36257
1.36525
1.36641
1.36624
1.36502
1.363
1.22551
1.26578
1.32249
1.37246
1.39765
1.39895
1.392
1.38466
1.37923
1.37379
1.36751
1.36068
1.35377
1.34714
1.341
1.3354
1.32927
1.32308
1.31736
1.31238
1.30823
1.30487
1.30225
1.30035
1.29899
1.29803
1.29734
1.2968
1.29629
1.29571
1.29504
1.29423
1.29322
1.29193
1.29019
1.28768
1.28419
1.2798
1.27485
1.26983
1.2652
1.26102
1.25719
1.25362
1.25025
1.24706
1.24403
1.24113
1.2383
1.23537
1.23192
1.22718
1.21979
1.21082
1.20108
1.19142
1.18265
1.17567
1.17028
1.16593
1.16214
1.15866
1.1556
1.1529
1.15051
1.14837
1.14643
1.14466
1.143
1.14134
1.13961
1.13777
1.13579
1.13372
1.1321
1.19635
1.26215
1.52784
1.63251
1.6196
1.61807
1.61693
1.61604
1.61977
1.62629
1.61754
1.601
1.58262
1.56513
1.54952
1.53598
1.52431
1.51412
1.50527
1.49766
1.4912
1.48573
1.48106
1.47699
1.47335
1.47004
1.46694
1.46395
1.46098
1.45755
1.4538
1.44986
1.44578
1.4416
1.4373
1.43284
1.4282
1.42341
1.41843
1.41327
1.40794
1.40244
1.3968
1.39103
1.38516
1.3792
1.37315
1.36701
1.36084
1.35462
1.34833
1.34194
1.33534
1.32843
1.32115
1.31351
1.30554
1.2973
1.28886
1.28023
1.27137
1.26227
1.25293
1.24333
1.23362
1.22392
1.21428
1.20473
1.19531
1.18602
1.17688
1.16788
1.15904
1.15036
1.14189
1.13289
1.56684
1.67417
1.77492
1.85698
1.92152
1.96938
2.00279
2.02363
2.03409
2.03651
2.03248
2.02374
2.01114
1.99563
1.97883
1.96104
1.94296
1.92515
1.90625
1.8867
1.86687
1.847
1.82731
1.80794
1.78899
1.77053
1.75262
1.73533
1.71867
1.70262
1.68718
1.67233
1.65805
1.64433
1.63117
1.61856
1.60649
1.59495
1.58377
1.57287
1.56234
1.5522
1.54244
1.53306
1.52403
1.5153
1.50684
1.49861
1.49058
1.4827
1.47489
1.46713
1.45938
1.45159
1.44374
1.43581
1.42779
1.41964
1.41135
1.4029
1.39431
1.38554
1.37659
1.36744
1.3581
1.34859
1.33893
1.32912
1.3192
1.30918
1.29909
1.28896
1.27881
1.26868
1.25865
1.24839
0.869157
0.918588
0.968186
1.01798
1.06831
1.11861
1.1682
1.21629
1.26226
1.30543
1.34529
1.38147
1.41378
1.44182
1.46553
1.48529
1.5015
1.51462
1.52596
1.53571
1.54405
1.55119
1.55734
1.56267
1.56735
1.5715
1.57517
1.57765
1.57912
1.57971
1.57954
1.5787
1.57724
1.57522
1.57267
1.56964
1.56618
1.56233
1.55813
1.5536
1.54876
1.54366
1.5383
1.53273
1.52698
1.52107
1.51501
1.50885
1.5026
1.49618
1.48964
1.48301
1.47631
1.46956
1.46277
1.45596
1.44912
1.44225
1.43535
1.4284
1.42138
1.41428
1.40708
1.39977
1.39235
1.3848
1.37713
1.36932
1.36138
1.35331
1.34513
1.33684
1.32848
1.32007
1.31166
1.30337
0.560141
0.57121
0.582798
0.595126
0.608203
0.622297
0.637542
0.654011
0.671637
0.690377
0.710148
0.730405
0.750884
0.771335
0.791506
0.811179
0.830161
0.848302
0.865551
0.881898
0.897359
0.911975
0.92581
0.938922
0.95141
0.963341
0.974827
0.986537
0.998417
1.01043
1.02253
1.03469
1.04687
1.05904
1.07118
1.08325
1.0951
1.10652
1.11751
1.12804
1.13809
1.14765
1.15668
1.16518
1.17314
1.18054
1.18737
1.19362
1.19932
1.20445
1.20903
1.21309
1.21663
1.21968
1.22226
1.2244
1.22613
1.22747
1.22844
1.22907
1.22937
1.22934
1.229
1.22838
1.22749
1.22635
1.22499
1.2234
1.22162
1.21965
1.21751
1.21523
1.21283
1.21035
1.20783
1.20532
0.454983
0.457169
0.458832
0.460792
0.46317
0.466067
0.46948
0.473437
0.477986
0.483138
0.48889
0.495145
0.501857
0.508959
0.516385
0.524068
0.531941
0.539932
0.547971
0.55602
0.564024
0.57195
0.579775
0.587481
0.595057
0.602503
0.60985
0.61713
0.624368
0.631591
0.638822
0.646081
0.653391
0.660772
0.668239
0.675912
0.683793
0.691838
0.700033
0.70837
0.716842
0.725446
0.734177
0.742986
0.751753
0.760477
0.769157
0.777791
0.786378
0.794912
0.803387
0.811789
0.820105
0.828324
0.836434
0.844433
0.852324
0.860088
0.86771
0.875173
0.882463
0.889569
0.896479
0.903185
0.909681
0.915965
0.922035
0.927895
0.933551
0.939012
0.944291
0.949406
0.954377
0.959209
0.963787
0.409343
0.409561
0.409573
0.409482
0.409366
0.409285
0.409285
0.4094
0.409658
0.410081
0.410685
0.411478
0.412468
0.413654
0.415035
0.416608
0.418367
0.420303
0.422405
0.424664
0.427066
0.429598
0.432248
0.435004
0.437853
0.440783
0.443784
0.44684
0.449941
0.453088
0.456271
0.459483
0.462718
0.465974
0.469247
0.472535
0.475827
0.479125
0.482435
0.485763
0.489122
0.492522
0.495977
0.499543
0.503344
0.507388
0.511682
0.516232
0.521039
0.526084
0.531315
0.536742
0.542371
0.548203
0.554229
0.560408
0.566665
0.573008
0.579441
0.585967
0.592586
0.599298
0.606098
0.612984
0.619948
0.626984
0.634084
0.64124
0.648446
0.655696
0.662983
0.670304
0.677655
0.685026
0.692257
0.390657
0.390389
0.38994
0.389358
0.388686
0.387958
0.387203
0.386443
0.385697
0.384977
0.384295
0.383658
0.383073
0.382545
0.382077
0.381674
0.381338
0.38107
0.380872
0.380748
0.380697
0.380723
0.380823
0.381
0.38125
0.381574
0.381968
0.38243
0.382959
0.383549
0.384193
0.384889
0.385632
0.386419
0.387245
0.388108
0.389003
0.389929
0.390885
0.391875
0.392896
0.393941
0.395012
0.396111
0.397246
0.398426
0.399659
0.400956
0.402328
0.403806
0.405453
0.407278
0.409286
0.41148
0.413846
0.416375
0.419064
0.421924
0.424961
0.428182
0.431588
0.435184
0.438972
0.442951
0.447122
0.451485
0.456037
0.460777
0.465702
0.470807
0.476088
0.481538
0.487149
0.4929
0.498637
0.382595
0.382303
0.381837
0.381231
0.380516
0.379717
0.378858
0.377955
0.377025
0.376076
0.375117
0.374156
0.373195
0.372239
0.371291
0.370353
0.369427
0.368514
0.367616
0.366736
0.365877
0.365041
0.36423
0.363447
0.362691
0.361965
0.361268
0.360601
0.359965
0.359357
0.358778
0.358227
0.357701
0.357201
0.356724
0.35627
0.355838
0.355427
0.355039
0.354671
0.354323
0.353996
0.353691
0.353408
0.35315
0.352917
0.352714
0.352543
0.352408
0.352315
0.35227
0.352284
0.352368
0.352532
0.352802
0.353198
0.353725
0.354387
0.355185
0.35612
0.357201
0.358435
0.359826
0.361377
0.363082
0.364942
0.366956
0.369125
0.371447
0.373924
0.376553
0.379332
0.382256
0.385312
0.388418
0.378269
0.378145
0.377844
0.377395
0.376824
0.376153
0.375402
0.374589
0.373727
0.372825
0.371892
0.370933
0.369953
0.368956
0.367944
0.366919
0.365882
0.364837
0.363783
0.362724
0.36166
0.360592
0.359523
0.358453
0.357383
0.35631
0.355245
0.354186
0.353129
0.352074
0.351021
0.34997
0.348919
0.34787
0.34682
0.34577
0.34472
0.343668
0.342616
0.341564
0.340512
0.339462
0.338414
0.337369
0.336331
0.3353
0.33428
0.333272
0.332281
0.331308
0.33036
0.329439
0.32855
0.327696
0.326884
0.32612
0.325409
0.324761
0.324192
0.323713
0.323329
0.323044
0.322864
0.322789
0.322824
0.322974
0.323241
0.323627
0.324135
0.324765
0.325519
0.326394
0.327388
0.328494
0.329674
0.375403
0.375436
0.375291
0.374992
0.374563
0.374024
0.373394
0.372689
0.371922
0.371104
0.370241
0.369342
0.36841
0.367451
0.366467
0.36546
0.364433
0.363388
0.362327
0.361251
0.360162
0.35906
0.357948
0.356825
0.355693
0.354552
0.3534
0.352235
0.351058
0.349869
0.348669
0.347456
0.346231
0.344994
0.343742
0.342475
0.341192
0.339892
0.338574
0.337234
0.335873
0.334493
0.333095
0.331681
0.330253
0.328812
0.327363
0.325907
0.324449
0.322992
0.32154
0.320097
0.318667
0.317256
0.315866
0.314503
0.313173
0.311879
0.310626
0.309417
0.308259
0.30716
0.306125
0.305163
0.304278
0.303473
0.302752
0.302118
0.301574
0.301121
0.300761
0.300494
0.300318
0.300229
0.300217
0.373752
0.373814
0.373699
0.373432
0.373033
0.372522
0.371918
0.371234
0.370484
0.369679
0.368826
0.367932
0.367004
0.366045
0.365058
0.364048
0.363016
0.361965
0.360897
0.359813
0.358715
0.357604
0.356481
0.355347
0.354201
0.353044
0.351875
0.350693
0.349495
0.348282
0.347053
0.345806
0.344542
0.343257
0.341952
0.340624
0.339271
0.337894
0.336489
0.335057
0.333598
0.332111
0.330598
0.32906
0.327496
0.32591
0.324304
0.322682
0.321046
0.319401
0.317751
0.316101
0.314453
0.312814
0.311188
0.309579
0.307992
0.306433
0.304905
0.303414
0.301963
0.300557
0.2992
0.297897
0.296654
0.295473
0.294357
0.293308
0.292328
0.291421
0.290588
0.289831
0.289149
0.288541
0.288007
0.37321
0.373225
0.373068
0.372759
0.372319
0.371767
0.371121
0.370395
0.369602
0.368753
0.367856
0.366918
0.365946
0.364943
0.363913
0.362861
0.361788
0.360698
0.359592
0.358473
0.357341
0.356198
0.355045
0.353882
0.35271
0.351528
0.350336
0.349131
0.347912
0.34668
0.345433
0.344171
0.342892
0.341594
0.340278
0.33894
0.33758
0.336196
0.334788
0.333355
0.331897
0.330414
0.328908
0.327381
0.325832
0.324264
0.322679
0.321081
0.319473
0.31786
0.316245
0.314634
0.31303
0.311439
0.309867
0.308317
0.306796
0.305308
0.303858
0.302451
0.30109
0.299781
0.298529
0.297339
0.296215
0.295161
0.29418
0.293273
0.292441
0.291686
0.29101
0.290414
0.289896
0.289454
0.289083
0.373549
0.373436
0.373155
0.372728
0.372176
0.371516
0.370767
0.369942
0.369055
0.368115
0.367132
0.366112
0.365061
0.363984
0.362885
0.361768
0.360634
0.359488
0.358331
0.357164
0.35599
0.354809
0.353623
0.352432
0.351236
0.350035
0.348825
0.347608
0.346383
0.345152
0.343913
0.342666
0.34141
0.340144
0.338867
0.337577
0.336275
0.33496
0.333633
0.332292
0.330939
0.329575
0.328202
0.32682
0.325432
0.32404
0.322647
0.321255
0.31987
0.318497
0.317141
0.315808
0.314504
0.313235
0.312006
0.31082
0.309682
0.308599
0.307576
0.306619
0.305735
0.30493
0.304208
0.303574
0.303031
0.302585
0.302237
0.30199
0.301846
0.301806
0.301869
0.302033
0.302296
0.302651
0.303069
0.374803
0.374432
0.373911
0.373261
0.372502
0.371652
0.370729
0.369746
0.368716
0.367647
0.366549
0.365427
0.364287
0.363133
0.361969
0.360798
0.359623
0.358445
0.357266
0.356088
0.354912
0.35374
0.352574
0.351413
0.350253
0.349093
0.347936
0.346788
0.34565
0.344521
0.343402
0.34229
0.341185
0.340086
0.338991
0.337896
0.336801
0.335706
0.334614
0.333526
0.332444
0.331371
0.330308
0.329259
0.328228
0.327217
0.326232
0.325277
0.324359
0.323487
0.322668
0.321906
0.321207
0.320576
0.320022
0.319554
0.319176
0.318896
0.31872
0.318653
0.3187
0.318867
0.319157
0.319574
0.320122
0.320801
0.321614
0.322561
0.323642
0.324854
0.326194
0.327659
0.329243
0.330934
0.332667
0.376994
0.3764
0.375676
0.374844
0.373925
0.372937
0.371897
0.370819
0.369713
0.36859
0.367456
0.366318
0.365182
0.364051
0.362928
0.361816
0.360716
0.359631
0.358563
0.357514
0.356486
0.355479
0.354495
0.353534
0.352596
0.35168
0.350787
0.34992
0.349074
0.348248
0.347442
0.346655
0.345889
0.345141
0.344413
0.343706
0.343019
0.342354
0.341713
0.341098
0.340512
0.339959
0.339445
0.338975
0.338554
0.33819
0.337893
0.337686
0.337575
0.337565
0.337659
0.337867
0.338199
0.338663
0.339265
0.340015
0.340917
0.341979
0.343204
0.344596
0.34616
0.347896
0.349807
0.351892
0.354152
0.356583
0.359183
0.361935
0.364831
0.367863
0.371025
0.374311
0.377717
0.381228
0.384728
0.382263
0.381642
0.380897
0.380059
0.379152
0.3782
0.37722
0.376228
0.375237
0.374255
0.37329
0.372349
0.371437
0.370557
0.369712
0.368903
0.368135
0.367408
0.366725
0.366093
0.365505
0.364962
0.364465
0.364012
0.363603
0.363237
0.362912
0.362627
0.362384
0.362183
0.362022
0.361901
0.36182
0.36178