/*--------------------------------*- C++ -*----------------------------------*\
  =========                 |
  \\      /  F ield         | OpenFOAM: The Open Source CFD Toolbox
   \\    /   O peration     | Website:  https://openfoam.org
    \\  /    A nd           | Version:  13
     \\/     M anipulation  |
\*---------------------------------------------------------------------------*/
FoamFile
{
    format      ascii;
    class       volScalarField;
    location    "400";
    object      nut;
}
// * * * * * * * * * * * * * * * * * * * * * * * * * * * * * * * * * * * * * //

dimensions      [0 2 -1 0 0 0 0];

internalField   nonuniform List<scalar> 
173327
(
0.0184127
0.0184001
0.0183876
0.0183753
0.0183633
0.0183516
0.0183401
0.0183289
0.0183179
0.0183072
0.0182967
0.0182865
0.0182765
0.0182667
0.0182571
0.0182477
0.0182385
0.0182294
0.0182204
0.0182116
0.0182029
0.0181943
0.0181858
0.0181774
0.0181691
0.0181608
0.0181526
0.0181444
0.0181362
0.0181281
0.01812
0.0181119
0.0181038
0.0180957
0.0180876
0.0180794
0.0180712
0.018063
0.0180547
0.0180463
0.0180379
0.0180294
0.0180209
0.0180122
0.0180035
0.0179947
0.0179858
0.0179768
0.0179677
0.0179585
0.0179492
0.0179398
0.0179303
0.0179207
0.0179111
0.0179013
0.0178915
0.0178816
0.0178716
0.0178616
0.0178516
0.0178415
0.0178314
0.0178212
0.0178111
0.0178009
0.0177908
0.0177807
0.0177706
0.0177606
0.0177506
0.0177406
0.0177308
0.017721
0.0177113
0.0177017
0.0176926
0.0184148
0.0184022
0.0183898
0.0183776
0.0183656
0.018354
0.0183425
0.0183314
0.0183205
0.0183098
0.0182994
0.0182893
0.0182793
0.0182696
0.01826
0.0182506
0.0182414
0.0182323
0.0182234
0.0182146
0.018206
0.0181974
0.0181889
0.0181805
0.0181722
0.018164
0.0181558
0.0181476
0.0181395
0.0181314
0.0181233
0.0181152
0.0181071
0.018099
0.0180909
0.0180828
0.0180746
0.0180664
0.0180581
0.0180498
0.0180414
0.0180329
0.0180244
0.0180158
0.0180071
0.0179983
0.0179894
0.0179805
0.0179714
0.0179623
0.017953
0.0179437
0.0179343
0.0179248
0.0179152
0.0179055
0.0178957
0.0178859
0.017876
0.0178661
0.0178562
0.0178462
0.0178361
0.0178261
0.017816
0.017806
0.017796
0.017786
0.017776
0.017766
0.0177561
0.0177463
0.0177365
0.0177268
0.0177172
0.0177077
0.0176988
0.0184191
0.0184066
0.0183944
0.0183823
0.0183705
0.018359
0.0183477
0.0183367
0.0183259
0.0183154
0.0183051
0.0182951
0.0182852
0.0182756
0.0182661
0.0182568
0.0182477
0.0182387
0.0182299
0.0182212
0.0182126
0.0182041
0.0181957
0.0181874
0.0181791
0.0181709
0.0181628
0.0181547
0.0181466
0.0181386
0.0181305
0.0181225
0.0181145
0.0181064
0.0180984
0.0180903
0.0180822
0.018074
0.0180658
0.0180575
0.0180492
0.0180408
0.0180323
0.0180237
0.0180151
0.0180064
0.0179975
0.0179886
0.0179796
0.0179705
0.0179613
0.0179521
0.0179427
0.0179332
0.0179237
0.0179141
0.0179044
0.0178946
0.0178848
0.0178749
0.017865
0.017855
0.0178451
0.0178351
0.0178251
0.0178151
0.0178051
0.0177951
0.0177852
0.0177753
0.0177654
0.0177556
0.0177459
0.0177362
0.0177266
0.0177172
0.0177083
0.018426
0.0184137
0.0184016
0.0183898
0.0183782
0.0183669
0.0183559
0.018345
0.0183345
0.0183241
0.018314
0.0183042
0.0182945
0.018285
0.0182757
0.0182666
0.0182576
0.0182488
0.0182401
0.0182315
0.018223
0.0182146
0.0182063
0.0181981
0.01819
0.0181819
0.0181738
0.0181658
0.0181578
0.0181499
0.0181419
0.018134
0.018126
0.0181181
0.0181101
0.0181021
0.018094
0.0180859
0.0180778
0.0180696
0.0180613
0.018053
0.0180446
0.0180361
0.0180275
0.0180188
0.0180101
0.0180012
0.0179923
0.0179832
0.0179741
0.0179648
0.0179555
0.0179461
0.0179366
0.017927
0.0179174
0.0179076
0.0178979
0.017888
0.0178782
0.0178682
0.0178583
0.0178483
0.0178384
0.0178284
0.0178184
0.0178085
0.0177986
0.0177887
0.0177789
0.0177691
0.0177594
0.0177498
0.0177402
0.0177308
0.0177219
0.0184358
0.0184238
0.0184121
0.0184005
0.0183893
0.0183782
0.0183674
0.0183569
0.0183466
0.0183365
0.0183267
0.0183171
0.0183076
0.0182984
0.0182893
0.0182804
0.0182716
0.0182629
0.0182544
0.018246
0.0182377
0.0182295
0.0182213
0.0182133
0.0182052
0.0181973
0.0181894
0.0181815
0.0181736
0.0181658
0.0181579
0.0181501
0.0181422
0.0181344
0.0181265
0.0181186
0.0181106
0.0181026
0.0180946
0.0180865
0.0180783
0.01807
0.0180617
0.0180532
0.0180447
0.0180361
0.0180274
0.0180186
0.0180097
0.0180007
0.0179916
0.0179824
0.0179731
0.0179638
0.0179543
0.0179448
0.0179351
0.0179255
0.0179157
0.0179059
0.0178961
0.0178862
0.0178763
0.0178663
0.0178564
0.0178464
0.0178365
0.0178266
0.0178167
0.0178069
0.0177971
0.0177873
0.0177777
0.017768
0.0177585
0.0177491
0.0177402
0.0184493
0.0184377
0.0184263
0.0184152
0.0184043
0.0183936
0.0183832
0.018373
0.0183631
0.0183533
0.0183438
0.0183345
0.0183253
0.0183163
0.0183075
0.0182989
0.0182903
0.0182819
0.0182736
0.0182654
0.0182573
0.0182493
0.0182413
0.0182334
0.0182256
0.0182178
0.01821
0.0182023
0.0181946
0.0181869
0.0181792
0.0181714
0.0181637
0.018156
0.0181482
0.0181404
0.0181326
0.0181246
0.0181167
0.0181087
0.0181006
0.0180924
0.0180841
0.0180758
0.0180673
0.0180588
0.0180501
0.0180414
0.0180325
0.0180236
0.0180145
0.0180054
0.0179961
0.0179868
0.0179774
0.0179679
0.0179583
0.0179486
0.0179389
0.0179291
0.0179193
0.0179094
0.0178995
0.0178896
0.0178797
0.0178698
0.0178599
0.01785
0.0178401
0.0178303
0.0178206
0.0178109
0.0178012
0.0177916
0.0177821
0.0177727
0.0177639
0.0184675
0.0184564
0.0184455
0.0184349
0.0184244
0.0184142
0.0184042
0.0183945
0.0183849
0.0183756
0.0183664
0.0183575
0.0183487
0.01834
0.0183315
0.0183231
0.0183149
0.0183067
0.0182987
0.0182907
0.0182829
0.018275
0.0182673
0.0182596
0.0182519
0.0182443
0.0182367
0.0182292
0.0182216
0.0182141
0.0182065
0.0181989
0.0181913
0.0181837
0.0181761
0.0181684
0.0181606
0.0181528
0.018145
0.018137
0.018129
0.0181209
0.0181127
0.0181045
0.0180961
0.0180876
0.018079
0.0180703
0.0180615
0.0180526
0.0180436
0.0180345
0.0180253
0.018016
0.0180066
0.0179971
0.0179875
0.0179779
0.0179682
0.0179584
0.0179486
0.0179388
0.0179289
0.017919
0.0179091
0.0178992
0.0178894
0.0178795
0.0178697
0.0178599
0.0178502
0.0178405
0.0178309
0.0178213
0.0178119
0.0178025
0.0177937
0.018492
0.0184816
0.0184713
0.0184612
0.0184513
0.0184416
0.0184321
0.0184229
0.0184138
0.0184049
0.0183961
0.0183876
0.0183792
0.0183709
0.0183627
0.0183547
0.0183467
0.0183388
0.0183311
0.0183234
0.0183157
0.0183081
0.0183006
0.0182931
0.0182857
0.0182782
0.0182708
0.0182634
0.018256
0.0182486
0.0182412
0.0182338
0.0182263
0.0182188
0.0182113
0.0182037
0.0181961
0.0181884
0.0181806
0.0181728
0.0181648
0.0181568
0.0181487
0.0181405
0.0181321
0.0181237
0.0181152
0.0181065
0.0180978
0.0180889
0.0180799
0.0180708
0.0180616
0.0180523
0.018043
0.0180335
0.0180239
0.0180143
0.0180046
0.0179949
0.0179851
0.0179753
0.0179654
0.0179555
0.0179456
0.0179358
0.0179259
0.0179161
0.0179063
0.0178965
0.0178868
0.0178772
0.0178676
0.0178581
0.0178486
0.0178393
0.0178306
0.0185252
0.0185155
0.0185059
0.0184964
0.0184872
0.0184781
0.0184692
0.0184604
0.0184519
0.0184434
0.0184352
0.018427
0.018419
0.0184111
0.0184033
0.0183955
0.0183879
0.0183803
0.0183728
0.0183653
0.0183579
0.0183505
0.0183432
0.0183359
0.0183286
0.0183213
0.0183141
0.0183068
0.0182996
0.0182923
0.018285
0.0182777
0.0182703
0.018263
0.0182555
0.018248
0.0182405
0.0182329
0.0182251
0.0182174
0.0182095
0.0182015
0.0181934
0.0181853
0.018177
0.0181686
0.01816
0.0181514
0.0181427
0.0181338
0.0181248
0.0181157
0.0181065
0.0180972
0.0180879
0.0180784
0.0180688
0.0180592
0.0180495
0.0180397
0.0180299
0.0180201
0.0180103
0.0180004
0.0179905
0.0179806
0.0179708
0.017961
0.0179512
0.0179414
0.0179317
0.0179221
0.0179126
0.0179031
0.0178937
0.0178844
0.0178758
0.0185705
0.0185615
0.0185527
0.0185439
0.0185354
0.0185269
0.0185186
0.0185104
0.0185023
0.0184944
0.0184866
0.0184788
0.0184711
0.0184635
0.018456
0.0184486
0.0184412
0.0184338
0.0184265
0.0184192
0.018412
0.0184048
0.0183976
0.0183904
0.0183832
0.0183761
0.0183689
0.0183617
0.0183546
0.0183474
0.0183401
0.0183329
0.0183256
0.0183183
0.0183109
0.0183034
0.0182959
0.0182883
0.0182806
0.0182728
0.018265
0.018257
0.0182489
0.0182407
0.0182324
0.018224
0.0182155
0.0182068
0.018198
0.0181891
0.0181801
0.018171
0.0181618
0.0181524
0.018143
0.0181335
0.0181239
0.0181142
0.0181045
0.0180947
0.0180848
0.018075
0.0180651
0.0180552
0.0180453
0.0180354
0.0180256
0.0180157
0.0180059
0.0179962
0.0179865
0.0179769
0.0179674
0.0179579
0.0179486
0.0179393
0.0179307
0.0186324
0.0186243
0.0186163
0.0186082
0.0186003
0.0185925
0.0185847
0.018577
0.0185694
0.0185618
0.0185543
0.0185468
0.0185394
0.018532
0.0185247
0.0185174
0.0185101
0.0185029
0.0184957
0.0184884
0.0184813
0.0184741
0.0184669
0.0184597
0.0184526
0.0184454
0.0184382
0.018431
0.0184238
0.0184166
0.0184094
0.0184021
0.0183948
0.0183874
0.0183799
0.0183724
0.0183649
0.0183572
0.0183494
0.0183416
0.0183337
0.0183256
0.0183175
0.0183092
0.0183008
0.0182923
0.0182836
0.0182749
0.018266
0.018257
0.0182479
0.0182387
0.0182293
0.0182199
0.0182104
0.0182007
0.018191
0.0181813
0.0181715
0.0181616
0.0181517
0.0181418
0.0181318
0.0181219
0.0181119
0.018102
0.0180921
0.0180823
0.0180724
0.0180627
0.018053
0.0180434
0.0180338
0.0180244
0.018015
0.0180058
0.0179972
0.0187169
0.0187096
0.0187023
0.0186949
0.0186875
0.0186801
0.0186727
0.0186653
0.0186579
0.0186504
0.0186431
0.0186357
0.0186283
0.0186209
0.0186135
0.0186061
0.0185988
0.0185914
0.018584
0.0185767
0.0185693
0.018562
0.0185546
0.0185473
0.01854
0.0185326
0.0185252
0.0185179
0.0185105
0.0185031
0.0184956
0.0184882
0.0184806
0.0184731
0.0184654
0.0184577
0.01845
0.0184421
0.0184342
0.0184261
0.018418
0.0184098
0.0184014
0.0183929
0.0183843
0.0183756
0.0183668
0.0183579
0.0183488
0.0183396
0.0183303
0.0183209
0.0183114
0.0183018
0.0182921
0.0182823
0.0182724
0.0182625
0.0182526
0.0182426
0.0182326
0.0182225
0.0182125
0.0182024
0.0181924
0.0181824
0.0181724
0.0181625
0.0181526
0.0181428
0.0181331
0.0181234
0.0181139
0.0181044
0.018095
0.0180858
0.0180772
0.0188297
0.0188231
0.0188163
0.0188093
0.0188021
0.0187948
0.0187874
0.0187799
0.0187724
0.0187648
0.0187571
0.0187494
0.0187416
0.0187339
0.0187261
0.0187183
0.0187104
0.0187026
0.0186948
0.018687
0.0186792
0.0186713
0.0186635
0.0186557
0.0186479
0.0186402
0.0186324
0.0186246
0.0186168
0.0186089
0.0186011
0.0185932
0.0185853
0.0185774
0.0185694
0.0185613
0.0185532
0.018545
0.0185367
0.0185283
0.0185198
0.0185113
0.0185026
0.0184938
0.0184849
0.0184758
0.0184667
0.0184574
0.0184481
0.0184386
0.018429
0.0184193
0.0184095
0.0183997
0.0183897
0.0183797
0.0183696
0.0183595
0.0183493
0.0183392
0.0183289
0.0183187
0.0183085
0.0182983
0.0182881
0.018278
0.0182679
0.0182579
0.0182479
0.018238
0.0182282
0.0182185
0.0182089
0.0181993
0.0181899
0.0181806
0.018172
0.0189729
0.0189667
0.0189601
0.0189531
0.0189457
0.018938
0.0189301
0.0189221
0.0189138
0.0189055
0.0188971
0.0188885
0.0188799
0.0188713
0.0188626
0.018854
0.0188453
0.0188366
0.0188279
0.0188192
0.0188106
0.0188019
0.0187933
0.0187847
0.0187762
0.0187677
0.0187592
0.0187507
0.0187422
0.0187337
0.0187253
0.0187168
0.0187083
0.0186998
0.0186912
0.0186826
0.0186739
0.0186652
0.0186564
0.0186475
0.0186386
0.0186295
0.0186204
0.0186112
0.0186018
0.0185924
0.0185828
0.0185731
0.0185634
0.0185535
0.0185436
0.0185335
0.0185234
0.0185132
0.018503
0.0184926
0.0184823
0.0184719
0.0184615
0.018451
0.0184406
0.0184301
0.0184197
0.0184093
0.018399
0.0183887
0.0183784
0.0183683
0.0183582
0.0183481
0.0183382
0.0183284
0.0183187
0.0183091
0.0182996
0.0182902
0.0182815
0.0191356
0.0191295
0.0191227
0.0191151
0.0191071
0.0190985
0.0190897
0.0190805
0.0190711
0.0190616
0.0190519
0.0190421
0.0190323
0.0190224
0.0190126
0.0190027
0.0189928
0.0189829
0.0189731
0.0189634
0.0189537
0.018944
0.0189344
0.0189249
0.0189154
0.018906
0.0188967
0.0188874
0.0188781
0.0188689
0.0188597
0.0188505
0.0188414
0.0188322
0.018823
0.0188138
0.0188046
0.0187953
0.0187859
0.0187766
0.0187671
0.0187576
0.018748
0.0187383
0.0187285
0.0187186
0.0187087
0.0186986
0.0186885
0.0186783
0.018668
0.0186576
0.0186472
0.0186366
0.0186261
0.0186155
0.0186049
0.0185942
0.0185835
0.0185729
0.0185622
0.0185515
0.0185409
0.0185304
0.0185198
0.0185094
0.018499
0.0184887
0.0184784
0.0184683
0.0184583
0.0184483
0.0184385
0.0184288
0.0184192
0.0184097
0.018401
0.0192677
0.0192616
0.0192544
0.0192463
0.0192375
0.0192281
0.0192181
0.0192078
0.0191973
0.0191867
0.0191761
0.0191654
0.0191546
0.0191439
0.0191332
0.0191226
0.0191121
0.0191016
0.0190912
0.0190808
0.0190706
0.0190605
0.0190504
0.0190405
0.0190307
0.0190209
0.0190113
0.0190017
0.0189922
0.0189827
0.0189733
0.018964
0.0189546
0.0189453
0.018936
0.0189268
0.0189174
0.0189081
0.0188988
0.0188894
0.0188799
0.0188704
0.0188608
0.0188511
0.0188414
0.0188315
0.0188216
0.0188116
0.0188015
0.0187914
0.0187811
0.0187708
0.0187604
0.0187499
0.0187394
0.0187289
0.0187183
0.0187077
0.0186971
0.0186864
0.0186758
0.0186652
0.0186546
0.0186441
0.0186336
0.0186232
0.0186128
0.0186025
0.0185923
0.0185822
0.0185722
0.0185623
0.0185525
0.0185428
0.0185332
0.0185238
0.0185151
0.0191881
0.0191814
0.019174
0.0191659
0.0191576
0.0191492
0.0191407
0.0191325
0.0191243
0.0191164
0.0191086
0.019101
0.0190935
0.019086
0.0190787
0.0190714
0.0190643
0.0190573
0.0190504
0.0190436
0.0190369
0.0190302
0.0190235
0.0190169
0.0190103
0.0190038
0.0189973
0.0189908
0.0189843
0.0189778
0.0189713
0.0189648
0.0189583
0.0189517
0.0189451
0.0189384
0.0189317
0.0189249
0.018918
0.0189109
0.0189038
0.0188966
0.0188892
0.0188817
0.0188741
0.0188663
0.0188583
0.0188502
0.018842
0.0188336
0.0188251
0.0188164
0.0188076
0.0187987
0.0187897
0.0187805
0.0187713
0.018762
0.0187526
0.0187431
0.0187336
0.018724
0.0187145
0.0187049
0.0186953
0.0186858
0.0186762
0.0186667
0.0186573
0.0186479
0.0186386
0.0186294
0.0186203
0.0186112
0.0186023
0.0185935
0.0185854
0.0182761
0.0182755
0.0182773
0.0182814
0.0182877
0.018296
0.0183062
0.0183178
0.0183307
0.0183445
0.0183591
0.0183741
0.0183894
0.0184048
0.0184202
0.0184353
0.0184501
0.0184646
0.0184787
0.0184922
0.0185053
0.0185179
0.0185299
0.0185414
0.0185522
0.0185624
0.0185722
0.0185814
0.0185902
0.0185985
0.0186063
0.0186137
0.0186206
0.018627
0.018633
0.0186384
0.0186435
0.018648
0.0186521
0.0186557
0.0186588
0.0186615
0.0186636
0.0186653
0.0186665
0.0186673
0.0186675
0.0186673
0.0186667
0.0186656
0.018664
0.018662
0.0186596
0.0186568
0.0186536
0.01865
0.0186461
0.0186419
0.0186373
0.0186325
0.0186274
0.0186221
0.0186166
0.0186109
0.018605
0.018599
0.0185928
0.0185866
0.0185803
0.018574
0.0185676
0.0185613
0.0185549
0.0185486
0.0185423
0.0185361
0.0185306
0.0153199
0.0153706
0.0154301
0.0154972
0.0155703
0.0156484
0.0157302
0.0158146
0.0159006
0.0159874
0.0160744
0.0161609
0.0162465
0.0163307
0.0164133
0.016494
0.0165727
0.0166492
0.0167235
0.0167955
0.0168652
0.0169328
0.0169981
0.0170612
0.0171221
0.0171808
0.0172374
0.0172919
0.0173444
0.0173948
0.0174433
0.0174899
0.0175347
0.0175775
0.0176186
0.0176579
0.0176954
0.0177312
0.0177652
0.0177977
0.0178286
0.0178579
0.0178858
0.0179121
0.0179369
0.0179603
0.0179823
0.0180029
0.0180221
0.01804
0.0180567
0.0180721
0.0180863
0.0180994
0.0181113
0.0181223
0.0181322
0.0181412
0.0181493
0.0181566
0.0181632
0.018169
0.0181742
0.0181787
0.0181828
0.0181863
0.0181894
0.0181922
0.0181946
0.0181968
0.0181987
0.0182005
0.0182021
0.0182036
0.0182051
0.018207
0.0104015
0.0105056
0.0106255
0.010759
0.0109038
0.0110577
0.011219
0.0113859
0.011557
0.0117308
0.0119063
0.0120824
0.0122583
0.0124334
0.0126069
0.0127786
0.0129479
0.0131146
0.0132784
0.0134391
0.0135965
0.0137506
0.0139012
0.0140482
0.0141916
0.0143313
0.0144674
0.0145998
0.0147285
0.0148535
0.0149749
0.0150925
0.0152065
0.015317
0.0154239
0.0155273
0.0156273
0.0157237
0.0158167
0.0159062
0.0159923
0.0160751
0.0161544
0.0162305
0.0163033
0.0163728
0.0164393
0.0165026
0.0165628
0.0166202
0.0166746
0.0167263
0.0167753
0.0168216
0.0168655
0.016907
0.0169463
0.0169834
0.0170186
0.0170518
0.0170833
0.0171131
0.0171414
0.0171683
0.0171939
0.0172183
0.0172417
0.0172641
0.0172856
0.0173065
0.0173267
0.0173463
0.0173655
0.0173843
0.0174028
0.0174213
0.0062655
0.00634995
0.00645164
0.00656894
0.00670011
0.00684344
0.00699731
0.0071602
0.00733074
0.00750769
0.00769005
0.0078768
0.0080671
0.0082602
0.00845547
0.00865235
0.00885038
0.0090491
0.00924815
0.00944716
0.0096458
0.00984377
0.0100408
0.0102366
0.0104309
0.0106236
0.0108143
0.011003
0.0111893
0.0113731
0.0115542
0.0117324
0.0119076
0.0120796
0.0122483
0.0124135
0.0125752
0.0127332
0.0128873
0.0130376
0.0131838
0.013326
0.013464
0.0135978
0.0137274
0.0138526
0.0139736
0.0140902
0.0142025
0.0143106
0.0144146
0.0145145
0.0146103
0.0147022
0.0147904
0.0148749
0.0149558
0.0150334
0.0151078
0.0151792
0.0152476
0.0153134
0.0153768
0.0154377
0.0154966
0.0155534
0.0156085
0.0156619
0.0157139
0.0157646
0.0158142
0.0158628
0.0159106
0.0159578
0.0160043
0.01605
0.00417329
0.00421447
0.00427335
0.0043466
0.00443307
0.00453153
0.0046409
0.00476015
0.00488831
0.00502394
0.00508654
0.00513362
0.00519339
0.00526441
0.00534556
0.0054358
0.00553411
0.0056397
0.005752
0.00587068
0.00599555
0.00612652
0.00626352
0.00640645
0.00655514
0.00670959
0.00687053
0.00703813
0.00721209
0.00739285
0.00758069
0.00777577
0.00797854
0.00818971
0.00840983
0.00863892
0.00887682
0.00911977
0.00936995
0.00962965
0.0099019
0.0101822
0.0104701
0.010763
0.0110167
0.0111753
0.0113296
0.0114796
0.0116255
0.0117673
0.0119051
0.0120389
0.0121688
0.0122949
0.0124172
0.0125359
0.012651
0.0127627
0.0128711
0.0129762
0.0130784
0.0131777
0.0132742
0.013368
0.0134593
0.0135481
0.0136345
0.013719
0.0138017
0.0138828
0.0139626
0.0140413
0.0141191
0.0141961
0.0142725
0.0143474
0.0036408
0.00367782
0.00352256
0.00336951
0.00326393
0.00320634
0.00318979
0.00321113
0.00324327
0.00329242
0.00335707
0.00343059
0.00351107
0.00359684
0.00368668
0.00377974
0.00387531
0.00397279
0.00407169
0.00417171
0.00427269
0.00437461
0.00447754
0.00458157
0.00468674
0.00479146
0.00489613
0.00500124
0.00510738
0.00521518
0.00532499
0.00543689
0.00555121
0.00566868
0.00578979
0.00591455
0.00604291
0.00617511
0.00631157
0.00645258
0.00659827
0.00674879
0.00690436
0.00706533
0.0072321
0.00740492
0.007584
0.00776951
0.00796157
0.00816019
0.00836527
0.00857674
0.00879463
0.00901897
0.0092497
0.00948669
0.00972972
0.00997853
0.0102328
0.0104921
0.010756
0.0110243
0.0112963
0.0115716
0.0118488
0.0121253
0.0123997
0.0125108
0.0126132
0.0127124
0.012809
0.0129035
0.0129962
0.0130874
0.0131775
0.0132651
0.00315619
0.0033043
0.00358128
0.00387738
0.00417276
0.00445776
0.00472982
0.00498139
0.00520893
0.00541902
0.00561009
0.00578232
0.00593768
0.00607709
0.00620214
0.0063141
0.0064147
0.00650581
0.00658927
0.0066669
0.00674048
0.00681179
0.00688275
0.00695516
0.00703159
0.00710978
0.00718844
0.00726685
0.00734514
0.00742335
0.00750148
0.00757844
0.00765124
0.00772168
0.0077919
0.00786363
0.00793724
0.00801092
0.00808565
0.00816207
0.00824078
0.00832235
0.00840761
0.0084973
0.00859195
0.00869191
0.00879744
0.00890883
0.00902623
0.00914955
0.00927883
0.00941434
0.00955627
0.0097047
0.00985958
0.0100208
0.0101882
0.0103615
0.0105404
0.0107246
0.0109141
0.0111085
0.0113075
0.0115105
0.0117172
0.0119267
0.0121384
0.0123515
0.012565
0.0127778
0.0129886
0.0131953
0.0133941
0.0135742
0.01385
0.00847709
0.0104573
0.0111395
0.0117012
0.0122887
0.0126579
0.0129182
0.0131192
0.0133127
0.0134292
0.013375
0.0132722
0.0131014
0.0128829
0.0126245
0.0123353
0.0120287
0.0117162
0.0114086
0.0111138
0.0108364
0.0105791
0.0103439
0.0101317
0.0102932
0.0105367
0.0107263
0.010873
0.0109881
0.0110828
0.0111639
0.0112359
0.0112995
0.0113543
0.011404
0.0114509
0.0114983
0.0115506
0.0116054
0.0116623
0.0117202
0.0117784
0.0118328
0.0118856
0.0119382
0.0119919
0.012048
0.0121078
0.0121717
0.0122397
0.0123123
0.0123904
0.0124746
0.012565
0.0126615
0.012764
0.0128721
0.0129856
0.0131042
0.0132274
0.0133554
0.0134881
0.0136252
0.0137663
0.013911
0.0140589
0.0142094
0.014362
0.0145158
0.0146697
0.0148224
0.0149717
0.0151136
0.0152336
0.0154457
0.0119323
0.0124152
0.0123302
0.0123775
0.012555
0.0127593
0.0129716
0.0132397
0.0133773
0.0135686
0.0137682
0.0139752
0.0141854
0.0143976
0.0146094
0.0148198
0.0150277
0.0152313
0.0154268
0.0156121
0.0157863
0.0159497
0.0161041
0.0162518
0.0163938
0.0165282
0.0166562
0.0167843
0.0169323
0.0171174
0.0173282
0.0175547
0.0177652
0.0179266
0.0180166
0.0175983
0.0166701
0.0158267
0.0160218
0.0161581
0.016241
0.0162859
0.0163035
0.0162945
0.0162726
0.0162506
0.0162355
0.0162319
0.0162429
0.0162668
0.0162986
0.016333
0.0163696
0.0164086
0.0164503
0.0164952
0.0165433
0.0165947
0.0166489
0.0167062
0.0167679
0.0168347
0.0169061
0.0169814
0.0170602
0.0171423
0.0172274
0.0173154
0.0174057
0.0174972
0.017589
0.0176797
0.0177658
0.0178295
0.017986
0.00949297
0.00973032
0.00997967
0.0102614
0.0105542
0.0108021
0.0110566
0.011299
0.0115437
0.0117951
0.0120515
0.012314
0.0125826
0.0128644
0.0131577
0.0134585
0.0137639
0.014069
0.0143603
0.0146403
0.014911
0.015176
0.0154382
0.0156997
0.0159623
0.0162274
0.0164916
0.016753
0.017013
0.017273
0.0175331
0.0177936
0.0180517
0.0183018
0.0185372
0.0187536
0.0189501
0.0191268
0.0192799
0.0194104
0.0195213
0.0196155
0.019695
0.0197582
0.0198173
0.0198957
0.0199923
0.0201032
0.0202185
0.0203209
0.0203856
0.0204152
0.0204259
0.0204275
0.0204261
0.0204252
0.0204269
0.0204323
0.0204418
0.0204555
0.0204737
0.0204963
0.0205232
0.020554
0.0205883
0.0206254
0.0206648
0.0207058
0.0207479
0.0207899
0.0208313
0.0208716
0.02091
0.020947
0.0209812
0.00806456
0.00850098
0.00886897
0.00923485
0.00958673
0.00988199
0.0101584
0.0104287
0.0106973
0.0109632
0.0112258
0.0114856
0.0117437
0.0120013
0.0122591
0.0125178
0.0127746
0.013025
0.0132717
0.0135174
0.0137642
0.0140132
0.0142654
0.014522
0.0147838
0.0150505
0.0153213
0.0155956
0.0158734
0.0161559
0.0164426
0.0167309
0.0170185
0.0173023
0.0175779
0.0178393
0.0180781
0.018292
0.0184903
0.0186816
0.0188751
0.0190722
0.0192682
0.0194598
0.019648
0.0198347
0.0200209
0.0202066
0.0203904
0.0205683
0.020735
0.0208859
0.021016
0.0211247
0.0212138
0.0212865
0.0213458
0.021395
0.0214359
0.0214689
0.0215005
0.0215441
0.0215985
0.0216621
0.0217335
0.021811
0.021893
0.0219779
0.0220604
0.0221318
0.0221949
0.0222515
0.0223026
0.0223497
0.0223927
0.00719324
0.00753037
0.0080137
0.00823445
0.00878705
0.00921715
0.00949613
0.00976435
0.0100321
0.0102951
0.0105511
0.0108018
0.0110496
0.0112961
0.0115427
0.0117898
0.0120336
0.0122754
0.0125174
0.0127603
0.0130044
0.0132498
0.0134959
0.0137427
0.0139896
0.0142358
0.014481
0.0147247
0.0149663
0.0152058
0.0154429
0.0156776
0.0159094
0.0161376
0.0163606
0.0165754
0.0167799
0.0169749
0.0171635
0.0173504
0.0175392
0.0177301
0.0179216
0.0181128
0.0183029
0.0184915
0.0186785
0.0188636
0.0190463
0.0192248
0.0193955
0.019553
0.019689
0.0198109
0.0199243
0.0200351
0.0201485
0.0202701
0.0203974
0.020526
0.0206525
0.0207756
0.0208963
0.0210145
0.0211302
0.0212434
0.0213542
0.0214624
0.0215679
0.02167
0.0217683
0.0218626
0.021953
0.0220401
0.0221262
0.0077966
0.0081552
0.00873383
0.00905158
0.00911431
0.0092436
0.00940328
0.0095776
0.00976025
0.00988166
0.0101261
0.0102871
0.0104535
0.0106317
0.0108233
0.0110276
0.0112425
0.0114655
0.0116949
0.0119284
0.0121645
0.0124019
0.012639
0.0128747
0.013108
0.0133381
0.0135648
0.0137877
0.0140068
0.0142201
0.0144286
0.0146329
0.0148333
0.0150301
0.0152233
0.0154127
0.0155982
0.0157798
0.0159576
0.0161317
0.0163024
0.0164703
0.0166357
0.0167987
0.0169597
0.0171189
0.0172764
0.0174326
0.0175886
0.0177442
0.0178987
0.0180515
0.0182014
0.0183473
0.0184888
0.0186258
0.0187589
0.0188884
0.0190149
0.0191383
0.0192579
0.0193734
0.0194849
0.0195922
0.0196969
0.0197996
0.019901
0.0200013
0.0201006
0.0201989
0.0202963
0.0203929
0.0204886
0.0205837
0.0206787
0.0207673
0.00327739
0.00367301
0.00420299
0.00476463
0.00529264
0.00583901
0.00637877
0.00689845
0.00739292
0.00787585
0.00834704
0.00880031
0.00922623
0.00958201
0.00992105
0.0102445
0.010555
0.0108552
0.0111371
0.0114022
0.0116521
0.0118883
0.0121126
0.0123264
0.0125311
0.012728
0.0129183
0.0131034
0.0132838
0.0134601
0.013633
0.0138028
0.0139699
0.0141347
0.0142974
0.0144584
0.014618
0.0147764
0.0149331
0.0150881
0.0152419
0.0153948
0.0155469
0.0156985
0.0158496
0.016
0.0161497
0.0162987
0.016447
0.0165944
0.0167409
0.0168863
0.0170306
0.0171737
0.0173155
0.0174566
0.0175972
0.0177367
0.017875
0.0180119
0.0181472
0.0182805
0.0184116
0.0185403
0.0186664
0.01879
0.0189109
0.0190294
0.0191454
0.0192589
0.0193701
0.019479
0.019586
0.0196911
0.019795
0.0198938
0.00481595
0.00452429
0.00439143
0.00439258
0.00446194
0.00458915
0.00475944
0.00496968
0.00520952
0.00547553
0.0057608
0.00605862
0.00636276
0.00666612
0.00696349
0.00725143
0.00752869
0.00779407
0.00806172
0.00833107
0.00860396
0.00887663
0.00914833
0.0094183
0.0096858
0.00995073
0.010212
0.0104678
0.0107193
0.0109669
0.011211
0.0114526
0.0116919
0.0119284
0.0121621
0.0123934
0.0126222
0.0128462
0.0130657
0.0132803
0.01349
0.013695
0.013895
0.0140899
0.0142797
0.0144646
0.0146446
0.0148199
0.0149921
0.0151737
0.0153473
0.0155138
0.0156742
0.0158298
0.0159813
0.0161286
0.0162726
0.0164137
0.0165518
0.0166889
0.0168253
0.0169613
0.0170976
0.0172344
0.0173725
0.017512
0.0176529
0.0177955
0.0179396
0.0180854
0.0182327
0.0183812
0.0185276
0.0186686
0.018802
0.0190379
0.00946164
0.00923598
0.00908013
0.00855925
0.00800344
0.00760997
0.00732827
0.00711748
0.00698028
0.00687519
0.00679553
0.00685072
0.0069524
0.00707897
0.00722756
0.0073932
0.00757471
0.00776798
0.00795251
0.00812843
0.00829502
0.00845164
0.00859773
0.00873617
0.00886227
0.00897994
0.00909088
0.00920793
0.0093337
0.00946575
0.00960374
0.00974745
0.00989637
0.0100496
0.0102069
0.0103682
0.0105321
0.0106982
0.0108661
0.0110355
0.0112063
0.0113783
0.0115509
0.011724
0.0118971
0.0120691
0.0122396
0.0124087
0.0125767
0.0127433
0.0129084
0.0130721
0.0132344
0.0133952
0.0135547
0.0137131
0.0138705
0.0140274
0.0141841
0.0143409
0.0144977
0.0146616
0.0148237
0.0149845
0.0151443
0.0153035
0.0154628
0.0156225
0.015783
0.0159447
0.0161069
0.0162687
0.0164296
0.0165881
0.016741
0.0169544
0.0135583
0.0133347
0.0131346
0.0129573
0.0127954
0.0126444
0.0125008
0.012363
0.0122308
0.0121047
0.0119855
0.0118737
0.0117706
0.0116774
0.0115948
0.0115234
0.0114636
0.0114151
0.0113778
0.0113515
0.0113356
0.0113295
0.0113326
0.0113444
0.0113643
0.0113921
0.0114274
0.0114702
0.0115203
0.0115778
0.0116426
0.0117146
0.0117939
0.0118803
0.0119739
0.0120495
0.0120292
0.0120154
0.0120091
0.0120109
0.0120208
0.012039
0.0120656
0.0120998
0.0121396
0.0121854
0.0122375
0.0122965
0.0123623
0.0124346
0.0125128
0.0125974
0.0126882
0.0127851
0.0128881
0.012997
0.0131116
0.0132317
0.0133571
0.0134875
0.0136225
0.0137614
0.0139037
0.0140492
0.0141975
0.014348
0.0145001
0.0146532
0.0148063
0.0149586
0.0151093
0.0152581
0.0154036
0.0155551
0.0157762
0.0168501
0.0167005
0.0165567
0.0164167
0.0162789
0.0161417
0.0160043
0.0158659
0.0157266
0.0155864
0.0154457
0.0153053
0.0151659
0.0150285
0.0148942
0.0147637
0.0146382
0.0145183
0.0144049
0.0142985
0.0141997
0.0141088
0.014026
0.0139516
0.0138856
0.013828
0.0137788
0.013738
0.0137054
0.0136809
0.0136642
0.0136555
0.0136546
0.0136614
0.0136759
0.013698
0.0137274
0.0137639
0.0138075
0.013858
0.0139154
0.0139796
0.0140505
0.0141278
0.0142104
0.0142979
0.0143902
0.014487
0.0145881
0.0146933
0.014803
0.0149169
0.0150348
0.0151563
0.0152809
0.0154074
0.0154459
0.0154447
0.0154507
0.0154644
0.0154857
0.0155146
0.0155508
0.0155942
0.0156439
0.0156993
0.0157599
0.015825
0.0158934
0.0159644
0.0160374
0.0161123
0.0161905
0.0162797
0.0164031
0.0186589
0.0185831
0.0185057
0.0184264
0.0183452
0.0182619
0.0181765
0.0180887
0.0179988
0.0179066
0.0178124
0.0177163
0.0176186
0.0175195
0.0174196
0.0173191
0.0172185
0.0171183
0.0170188
0.0169207
0.0168244
0.0167304
0.0166392
0.016551
0.0164664
0.0163857
0.0163093
0.0162373
0.0161701
0.016108
0.0160511
0.0159995
0.0159536
0.0159133
0.0158789
0.0158504
0.0158278
0.0158113
0.0158008
0.0157963
0.0157977
0.015805
0.0158182
0.0158371
0.0158617
0.015892
0.0159279
0.0159693
0.0160161
0.0160677
0.0161232
0.0161822
0.0162447
0.0163105
0.0163797
0.0164524
0.0165282
0.016607
0.0166884
0.0167722
0.0168583
0.0169464
0.0170363
0.0171279
0.0172209
0.0173152
0.0174105
0.0175068
0.017604
0.0177018
0.0178001
0.0178989
0.017998
0.0180971
0.0181929
0.0194352
0.0194075
0.0193757
0.0193405
0.0193023
0.0192613
0.019218
0.0191725
0.0191251
0.0190758
0.0190248
0.0189722
0.0189182
0.0188628
0.0188062
0.0187484
0.0186896
0.01863
0.0185697
0.0185088
0.0184476
0.0183863
0.0183251
0.0182642
0.0182039
0.0181443
0.0180856
0.0180281
0.0179719
0.0179174
0.0178646
0.0178137
0.017765
0.0177187
0.0176748
0.0176335
0.017595
0.0175594
0.0175269
0.0174975
0.0174712
0.0174483
0.0174287
0.0174124
0.0173995
0.0173901
0.0173841
0.0173816
0.0173826
0.0173871
0.0173951
0.0174065
0.0174214
0.0174395
0.0174604
0.0174837
0.0175095
0.0175378
0.0175688
0.0176026
0.0176392
0.0176785
0.0177206
0.0177654
0.0178126
0.0178622
0.0179141
0.0179681
0.0180242
0.0180824
0.0181424
0.0182042
0.0182677
0.0183327
0.0183969
0.0195663
0.019568
0.0195649
0.0195577
0.019547
0.0195333
0.0195171
0.0194987
0.0194784
0.0194566
0.0194332
0.0194086
0.0193828
0.019356
0.0193281
0.0192993
0.0192696
0.0192391
0.0192078
0.0191759
0.0191433
0.0191102
0.0190767
0.0190427
0.0190084
0.0189738
0.018939
0.0189043
0.0188694
0.0188346
0.0187998
0.0187652
0.0187308
0.0186967
0.0186629
0.0186296
0.0185968
0.0185646
0.0185331
0.0185023
0.0184724
0.0184435
0.0184156
0.0183888
0.0183632
0.0183389
0.018316
0.0182946
0.0182747
0.0182565
0.01824
0.0182254
0.0182125
0.0182017
0.0181928
0.018186
0.0181813
0.0181787
0.0181778
0.0181788
0.0181815
0.0181862
0.0181928
0.0182015
0.0182123
0.0182252
0.0182403
0.0182575
0.0182769
0.0182984
0.0183221
0.0183481
0.0183762
0.0184064
0.0184375
0.0190796
0.0193804
0.0193913
0.019398
0.0194011
0.0194011
0.0193985
0.0193938
0.0193872
0.019379
0.0193695
0.0193588
0.0193471
0.0193346
0.0193212
0.0193072
0.0192925
0.0192772
0.0192615
0.0192453
0.0192286
0.0192116
0.0191942
0.0191765
0.0191584
0.0191401
0.0191214
0.0191023
0.0190828
0.019063
0.0190428
0.0190221
0.0190011
0.0189798
0.0189579
0.0189357
0.0189129
0.0188897
0.0188661