/*--------------------------------*- C++ -*----------------------------------*\
  =========                 |
  \\      /  F ield         | OpenFOAM: The Open Source CFD Toolbox
   \\    /   O peration     | Website:  https://openfoam.org
    \\  /    A nd           | Version:  13
     \\/     M anipulation  |
\*---------------------------------------------------------------------------*/
FoamFile
{
    format      ascii;
    class       volScalarField;
    location    "400";
    object      p;
}
// * * * * * * * * * * * * * * * * * * * * * * * * * * * * * * * * * * * * * //

dimensions      [0 2 -2 0 0 0 0];

internalField   nonuniform List<scalar> 
173327
(
-10.9125
-10.9714
-10.9971
-10.9913
-10.9554
-10.8913
-10.8008
-10.6862
-10.5498
-10.3941
-10.2214
-10.0338
-9.83304
-9.62102
-9.39945
-9.17008
-8.93449
-8.69411
-8.45011
-8.20359
-7.95559
-7.70715
-7.45922
-7.21264
-6.96811
-6.72635
-6.48795
-6.25342
-6.02302
-5.79696
-5.57547
-5.35881
-5.14724
-4.9409
-4.73985
-4.54429
-4.3543
-4.17
-3.99122
-3.81771
-3.64931
-3.48598
-3.32786
-3.17494
-3.0271
-2.88407
-2.74551
-2.61116
-2.48078
-2.35444
-2.232
-2.11356
-1.99884
-1.88781
-1.7801
-1.67571
-1.57447
-1.4764
-1.3813
-1.28884
-1.19874
-1.11079
-1.02516
-0.941866
-0.861159
-0.782896
-0.707104
-0.633466
-0.561927
-0.492186
-0.424266
-0.357999
-0.293502
-0.2307
-0.169621
-0.110019
-0.053049
-10.9533
-11.0107
-11.0347
-11.0268
-10.9888
-10.9223
-10.8295
-10.7124
-10.5735
-10.4153
-10.2402
-10.0502
-9.84725
-9.63319
-9.40975
-9.17861
-8.94139
-8.69947
-8.45409
-8.20632
-7.95721
-7.70777
-7.45896
-7.21156
-6.96631
-6.72388
-6.4849
-6.24984
-6.01902
-5.79264
-5.5709
-5.35408
-5.14238
-4.93593
-4.73483
-4.53919
-4.34916
-4.1648
-3.986
-3.81253
-3.64421
-3.48101
-3.32299
-3.17014
-3.02235
-2.87938
-2.74093
-2.60671
-2.47654
-2.35033
-2.22807
-2.10968
-1.99509
-1.88409
-1.77651
-1.67217
-1.57102
-1.47298
-1.37789
-1.28548
-1.19545
-1.10769
-1.02219
-0.939078
-0.858433
-0.78028
-0.704508
-0.630985
-0.55951
-0.489944
-0.422157
-0.35611
-0.291778
-0.229177
-0.168242
-0.10897
-0.0519177
-11.0356
-11.0902
-11.1108
-11.099
-11.0565
-10.9855
-10.8878
-10.7658
-10.6221
-10.459
-10.2791
-10.0845
-9.87728
-9.65919
-9.43201
-9.1974
-8.95693
-8.71199
-8.46383
-8.21355
-7.96219
-7.71074
-7.46011
-7.2111
-6.96441
-6.7207
-6.48056
-6.24447
-6.01275
-5.78564
-5.56335
-5.34611
-5.13408
-4.9274
-4.72613
-4.53038
-4.34024
-4.15579
-3.97692
-3.80347
-3.63528
-3.47227
-3.31444
-3.16175
-3.01408
-2.87124
-2.73296
-2.59898
-2.46909
-2.34319
-2.2212
-2.10306
-1.98866
-1.87785
-1.77044
-1.66629
-1.56528
-1.46733
-1.3723
-1.27997
-1.1901
-1.10258
-1.01738
-0.934563
-0.854196
-0.776269
-0.700709
-0.627378
-0.556126
-0.486805
-0.419317
-0.353608
-0.289653
-0.227402
-0.166829
-0.107909
-0.0514114
-11.1604
-11.2108
-11.226
-11.2081
-11.159
-11.0807
-10.9757
-10.8462
-10.695
-10.5245
-10.3374
-10.1359
-9.92217
-9.69797
-9.4651
-9.2252
-8.97981
-8.73032
-8.47797
-8.22389
-7.96911
-7.7146
-7.46123
-7.20977
-6.96091
-6.71528
-6.47343
-6.23582
-6.0028
-5.7746
-5.55144
-5.33352
-5.12099
-4.91393
-4.71241
-4.51649
-4.32625
-4.1417
-3.96281
-3.78942
-3.62141
-3.45866
-3.30112
-3.14871
-3.0013
-2.85871
-2.72071
-2.58708
-2.45761
-2.33214
-2.21056
-2.09279
-1.97873
-1.86824
-1.76114
-1.65727
-1.55651
-1.45877
-1.36392
-1.27179
-1.18219
-1.09503
-1.01025
-0.927884
-0.847939
-0.770396
-0.695181
-0.622184
-0.551274
-0.482331
-0.415272
-0.35005
-0.286614
-0.224909
-0.164876
-0.106522
-0.0507681
-11.329
-11.3734
-11.3814
-11.3551
-11.2967
-11.2086
-11.0935
-10.9538
-10.7924
-10.612
-10.4152
-10.2045
-9.98196
-9.74956
-9.50905
-9.26206
-9.0101
-8.75456
-8.49666
-8.23754
-7.97821
-7.71961
-7.46259
-7.20789
-6.95617
-6.708
-6.46392
-6.22435
-5.98963
-5.76001
-5.53571
-5.31688
-5.10364
-4.89607
-4.69419
-4.49805
-4.30768
-4.12308
-3.9442
-3.77093
-3.60315
-3.44072
-3.28355
-3.13151
-2.98447
-2.84226
-2.70467
-2.57149
-2.44252
-2.31757
-2.19651
-2.07924
-1.96564
-1.85557
-1.74888
-1.6454
-1.54502
-1.44761
-1.35308
-1.26127
-1.17207
-1.08536
-1.00109
-0.919254
-0.839827
-0.762771
-0.68802
-0.615477
-0.545037
-0.476604
-0.410108
-0.345502
-0.282731
-0.221722
-0.162429
-0.104858
-0.0499475
-11.5433
-11.5799
-11.5784
-11.5411
-11.4707
-11.3699
-11.2416
-11.0888
-10.9144
-10.7213
-10.5122
-10.2898
-10.0562
-9.8134
-9.56324
-9.30732
-9.04712
-8.784
-8.51918
-8.25377
-7.98877
-7.72508
-7.46352
-7.20478
-6.94949
-6.6982
-6.45137
-6.20942
-5.97266
-5.74132
-5.51561
-5.29565
-5.08153
-4.87331
-4.671
-4.4746
-4.28409
-4.09948
-3.92068
-3.74761
-3.58013
-3.4181
-3.26138
-3.10983
-2.96329
-2.8216
-2.68455
-2.55194
-2.42356
-2.29924
-2.17881
-2.06214
-1.94912
-1.8396
-1.73344
-1.63049
-1.5306
-1.43367
-1.3396
-1.24827
-1.15957
-1.07341
-0.98973
-0.908497
-0.829671
-0.753203
-0.67903
-0.60707
-0.53724
-0.46946
-0.403671
-0.339824
-0.277863
-0.217722
-0.159357
-0.10278
-0.0488963
-11.8058
-11.8324
-11.8187
-11.7675
-11.682
-11.5653
-11.4207
-11.2516
-11.061
-10.8523
-10.6282
-10.3914
-10.1444
-9.88898
-9.62712
-9.3604
-9.09028
-8.81807
-8.54498
-8.27207
-8.00031
-7.73056
-7.46359
-7.20007
-6.94056
-6.68558
-6.43554
-6.19081
-5.95168
-5.71836
-5.491
-5.26973
-5.0546
-4.84563
-4.64281
-4.44612
-4.2555
-4.07092
-3.89229
-3.71949
-3.5524
-3.39086
-3.2347
-3.08375
-2.93785
-2.79681
-2.66043
-2.52852
-2.40086
-2.27727
-2.15757
-2.04163
-1.9293
-1.82046
-1.71495
-1.61263
-1.51337
-1.41705
-1.32357
-1.23284
-1.14475
-1.05923
-0.97622
-0.895665
-0.81752
-0.741736
-0.668252
-0.597002
-0.527917
-0.460933
-0.395996
-0.333056
-0.272063
-0.212958
-0.155707
-0.100324
-0.0476742
-12.1198
-12.1338
-12.1047
-12.0363
-11.9321
-11.7959
-11.6314
-11.4424
-11.2324
-11.0048
-10.7627
-10.5089
-10.2459
-9.97558
-9.69993
-9.42053
-9.13879
-8.85599
-8.57327
-8.29167
-8.01209
-7.73535
-7.46215
-7.19313
-6.92879
-6.66959
-6.4159
-6.16804
-5.92624
-5.69068
-5.4615
-5.23876
-5.0225
-4.81272
-4.60936
-4.41237
-4.22168
-4.03719
-3.8588
-3.68639
-3.51979
-3.35884
-3.20336
-3.05315
-2.90802
-2.76778
-2.63222
-2.50113
-2.37432
-2.25158
-2.13274
-2.01763
-1.90613
-1.79808
-1.69334
-1.59178
-1.49326
-1.39768
-1.30492
-1.2149
-1.12753
-1.04274
-0.960473
-0.880675
-0.803299
-0.728296
-0.655613
-0.585195
-0.516989
-0.450941
-0.387001
-0.325124
-0.265262
-0.207367
-0.151417
-0.0974336
-0.0462324
-12.4893
-12.4874
-12.4394
-12.3497
-12.2227
-12.0628
-11.8744
-11.6616
-11.4285
-11.1786
-10.9154
-10.6416
-10.3599
-10.0723
-9.78079
-9.4868
-9.19174
-8.89685
-8.60319
-8.31173
-8.02332
-7.73869
-7.45851
-7.18332
-6.91358
-6.64969
-6.39195
-6.14062
-5.8959
-5.65791
-5.42674
-5.20243
-4.98498
-4.77434
-4.57044
-4.37319
-4.18246
-3.99815
-3.82012
-3.6482
-3.48222
-3.32199
-3.16732
-3.01799
-2.87378
-2.73449
-2.5999
-2.46979
-2.34396
-2.2222
-2.10433
-1.99019
-1.87963
-1.7725
-1.66866
-1.56797
-1.47031
-1.37556
-1.28363
-1.19443
-1.10788
-1.02392
-0.94248
-0.863525
-0.787007
-0.712883
-0.64111
-0.571644
-0.504444
-0.439467
-0.37667
-0.316012
-0.257448
-0.200941
-0.146485
-0.094106
-0.0445693
-12.9192
-12.8977
-12.8263
-12.7106
-12.5559
-12.3675
-12.1505
-11.9096
-11.6492
-11.3733
-11.0855
-10.7887
-10.4856
-10.1783
-9.86867
-9.55816
-9.24811
-8.93964
-8.63376
-8.33132
-8.0331
-7.73977
-7.45188
-7.16991
-6.89427
-6.62525
-6.36311
-6.10804
-5.86018
-5.61959
-5.38633
-5.16038
-4.9417
-4.73021
-4.5258
-4.32833
-4.13766
-3.95363
-3.77606
-3.60477
-3.43956
-3.2802
-3.12649
-2.97819
-2.83506
-2.69688
-2.56341
-2.43444
-2.30974
-2.1891
-2.07234
-1.95929
-1.84979
-1.7437
-1.64087
-1.54117
-1.44447
-1.35068
-1.25968
-1.1714
-1.08576
-1.00271
-0.922186
-0.84416
-0.76859
-0.695444
-0.624687
-0.556289
-0.490219
-0.426447
-0.364939
-0.305658
-0.248564
-0.193634
-0.14087
-0.0903047
-0.0426579
-13.4158
-13.3698
-13.2697
-13.1223
-12.9341
-12.7117
-12.4607
-12.1867
-11.8945
-11.5885
-11.2723
-10.9493
-10.6219
-10.2923
-9.96235
-9.6334
-9.30667
-8.98319
-8.66383
-8.34936
-8.04043
-7.73761
-7.44137
-7.15209
-6.87008
-6.59557
-6.32874
-6.06971
-5.81854
-5.57525
-5.33983
-5.11222
-4.89233
-4.68003
-4.47518
-4.27759
-4.08708
-3.90346
-3.7265
-3.55599
-3.3917
-3.23339
-3.08081
-2.9337
-2.79183
-2.65492
-2.52275
-2.39507
-2.27164
-2.15228
-2.03676
-1.92493
-1.81663
-1.71169
-1.60999
-1.51138
-1.41576
-1.32301
-1.23304
-1.14577
-1.06113
-0.979075
-0.899558
-0.822547
-0.748016
-0.675942
-0.606305
-0.539085
-0.474266
-0.41183
-0.351753
-0.294008
-0.238565
-0.185407
-0.134545
-0.0860145
-0.040491
-13.9866
-13.9101
-13.7746
-13.5886
-13.3603
-13.0972
-12.8062
-12.4934
-12.1643
-11.8236
-11.4751
-11.1223
-10.7676
-10.4131
-10.0606
-9.71123
-9.36617
-9.02627
-8.69226
-8.36475
-8.04428
-7.73127
-7.4261
-7.12903
-6.84028
-6.55998
-6.28823
-6.02507
-5.77048
-5.52442
-5.28683
-5.05758
-4.83652
-4.6235
-4.41831
-4.22073
-4.03053
-3.84746
-3.67128
-3.50173
-3.33855
-3.18146
-3.03019
-2.88448
-2.74403
-2.60858
-2.47787
-2.35165
-2.22967
-2.11172
-1.99759
-1.88712
-1.78013
-1.67647
-1.576
-1.4786
-1.38415
-1.29254
-1.20369
-1.11751
-1.03396
-0.952983
-0.874551
-0.798638
-0.725233
-0.654324
-0.585905
-0.519971
-0.45652
-0.395548
-0.337046
-0.280996
-0.227381
-0.176192
-0.127452
-0.0812011
-0.0380547
-14.6407
-14.5263
-14.3472
-14.1143
-13.8376
-13.5261
-13.1879
-12.83
-12.4583
-12.0778
-11.6928
-11.3063
-10.9211
-10.5391
-10.1617
-9.79006
-9.42508
-9.06743
-8.71766
-8.37621
-8.04344
-7.71965
-7.40505
-7.09981
-6.80402
-6.51772
-6.24089
-5.9735
-5.71545
-5.46663
-5.22689
-4.99607
-4.77396
-4.56034
-4.35495
-4.15754
-3.96782
-3.78551
-3.6103
-3.44191
-3.28004
-3.12437
-2.97463
-2.83049
-2.69166
-2.55786
-2.42879
-2.30419
-2.18382
-2.06744
-1.95485
-1.84586
-1.7403
-1.63804
-1.53892
-1.44283
-1.34964
-1.25926
-1.17161
-1.08661
-1.00422
-0.924395
-0.847122
-0.772387
-0.700189
-0.630533
-0.563427
-0.498884
-0.436915
-0.377535
-0.32075
-0.266557
-0.21495
-0.165933
-0.119541
-0.0758278
-0.0353304
-15.3897
-15.228
-14.9952
-14.7051
-14.3702
-14.0013
-13.6077
-13.1972
-12.7764
-12.3507
-11.9243
-11.5003
-11.0812
-10.6688
-10.2643
-9.86849
-9.48206
-9.1054
-8.73885
-8.38263
-8.03692
-7.70182
-7.37741
-7.06369
-6.76064
-6.46816
-6.18616
-5.91449
-5.65298
-5.40144
-5.15965
-4.92737
-4.70434
-4.49028
-4.28488
-4.08783
-3.8988
-3.71745
-3.54344
-3.37643
-3.21608
-3.06207
-2.91405
-2.7717
-2.6347
-2.50273
-2.37549
-2.2527
-2.13409
-2.01944
-1.90852
-1.80115
-1.69717
-1.59641
-1.49875
-1.40405
-1.31222
-1.22316
-1.13678
-1.05303
-0.971873
-0.893275
-0.817232
-0.743747
-0.672833
-0.60451
-0.538806
-0.47575
-0.415373
-0.357708
-0.30278
-0.250604
-0.20119
-0.154558
-0.110755
-0.0698497
-0.0322907
-16.2471
-16.026
-15.7267
-15.367
-14.9621
-14.525
-14.0664
-13.595
-13.118
-12.6409
-12.1679
-11.7022
-11.2458
-10.8001
-10.3662
-9.94439
-9.53506
-9.13827
-8.75407
-8.38241
-8.02324
-7.67647
-7.34197
-7.01961
-6.70919
-6.41052
-6.12337
-5.84749
-5.58261
-5.32847
-5.08477
-4.8512
-4.62744
-4.41315
-4.20796
-4.01151
-3.8234
-3.64325
-3.47067
-3.30528
-3.14671
-2.99457
-2.84851
-2.70816
-2.57319
-2.44325
-2.31802
-2.19721
-2.08054
-1.96776
-1.85866
-1.75304
-1.65074
-1.5516
-1.45548
-1.36228
-1.27189
-1.18421
-1.09918
-1.01675
-0.936887
-0.85958
-0.784833
-0.712665
-0.643108
-0.576198
-0.51198
-0.450504
-0.391824
-0.335993
-0.283058
-0.233055
-0.186017
-0.141984
-0.10102
-0.0632112
-0.0289034
-17.2318
-16.9357
-16.5539
-16.1091
-15.6199
-15.1018
-14.567
-14.025
-13.4835
-12.9481
-12.423
-11.9109
-11.4136
-10.9319
-10.4663
-10.0168
-9.58322
-9.16526
-8.7626
-8.3749
-8.00183
-7.64304
-7.29823
-6.96705
-6.64917
-6.34427
-6.05198
-5.77196
-5.50384
-5.24725
-5.00182
-4.76717
-4.54291
-4.32863
-4.1239
-3.9283
-3.74138
-3.56271
-3.39184
-3.22835
-3.0718
-2.92181
-2.77795
-2.63984
-2.50712
-2.37942
-2.25639
-2.13774
-2.02317
-1.91242
-1.80527
-1.70153
-1.60103
-1.50361
-1.40914
-1.31751
-1.22863
-1.14241
-1.05879
-0.977731
-0.89922
-0.823256
-0.749861
-0.67907
-0.610933
-0.545505
-0.482852
-0.423043
-0.366159
-0.312276
-0.261468
-0.213796
-0.169319
-0.128103
-0.0902355
-0.0558209
-0.0251095
-18.3643
-17.9729
-17.4884
-16.9395
-16.3489
-15.7344
-15.1098
-14.4859
-13.8705
-13.2692
-12.6857
-12.1224
-11.5805
-11.06
-10.5607
-10.082
-9.62308
-9.18326
-8.76172
-8.35774
-7.97066
-7.59989
-7.24487
-6.90506
-6.57994
-6.26901
-5.9718
-5.68785
-5.4167
-5.15789
-4.91097
-4.67549
-4.45099
-4.23699
-4.033
-3.83853
-3.65307
-3.47613
-3.30722
-3.14585
-2.99158
-2.84395
-2.70252
-2.56687
-2.4366
-2.31133
-2.19069
-2.07436
-1.96203
-1.85345
-1.74839
-1.64664
-1.54803
-1.45242
-1.35968
-1.2697
-1.18239
-1.09769
-1.01554
-0.935911
-0.858806
-0.784241
-0.712252
-0.642894
-0.576236
-0.512355
-0.451339
-0.393281
-0.338285
-0.286456
-0.237899
-0.192709
-0.150974
-0.112796
-0.0782937
-0.0475819
-0.0208404
-19.6796
-19.1667
-18.5537
-17.877
-17.1636
-16.434
-15.7039
-14.9847
-14.2846
-13.6087
-12.9599
-12.3399
-11.7489
-11.1861
-10.6505
-10.1407
-9.65516
-9.19247
-8.75133
-8.33058
-7.92919
-7.54628
-7.18102
-6.83264
-6.50041
-6.18364
-5.88171
-5.59404
-5.3201
-5.05933
-4.81119
-4.57516
-4.35071
-4.1373
-3.93437
-3.74139
-3.5578
-3.38302
-3.21649
-3.05764
-2.90597
-2.76099
-2.62225
-2.4893
-2.36172
-2.23908
-2.12101
-2.00717
-1.89725
-1.79098
-1.68812
-1.58847
-1.49186
-1.39814
-1.30719
-1.21891
-1.13322
-1.05007
-0.969407
-0.891233
-0.815558
-0.742418
-0.671868
-0.603982
-0.538849
-0.47657
-0.417253
-0.361019
-0.307996
-0.25832
-0.212129
-0.169555
-0.130731
-0.0958054
-0.0649509
-0.038305
-0.0159626
-20.5318
-19.7598
-18.9272
-18.0658
-17.1991
-16.3446
-15.5147
-14.7173
-13.9568
-13.2356
-12.5538
-11.9104
-11.3034
-10.7306
-10.1892
-9.6769
-9.1915
-8.73106
-8.29389
-7.87856
-7.48381
-7.10854
-6.75175
-6.41255
-6.09011
-5.78368
-5.49254
-5.21604
-4.95352
-4.70437
-4.468
-4.2438
-4.03118
-3.82952
-3.63822
-3.45669
-3.2843
-3.12037
-2.96427
-2.81541
-2.6733
-2.53745
-2.40738
-2.28262
-2.16276
-2.04739
-1.93616
-1.82874
-1.72487
-1.62429
-1.52681
-1.43226
-1.34049
-1.25141
-1.16491
-1.08093
-0.99941
-0.920326
-0.843674
-0.76948
-0.697801
-0.628721
-0.562338
-0.498765
-0.438127
-0.380557
-0.326202
-0.275217
-0.227772
-0.184037
-0.144186
-0.108405
-0.076904
-0.0499356
-0.0277108
-0.0102256
-22.1175
-21.146
-20.1225
-19.0822
-18.0515
-17.0509
-16.093
-15.1846
-14.3285
-13.5257
-12.7748
-12.0733
-11.4176
-10.8041
-10.2286
-9.68784
-9.17854
-8.69805
-8.24407
-7.81465
-7.40814
-7.0231
-6.65829
-6.31257
-5.98494
-5.67448
-5.38035
-5.10176
-4.83798
-4.58832
-4.35209
-4.12865
-3.91732
-3.71743
-3.52827
-3.34915
-3.17937
-3.01823
-2.86507
-2.71929
-2.58035
-2.44767
-2.32073
-2.19904
-2.08214
-1.96963
-1.86114
-1.75635
-1.65497
-1.55675
-1.46149
-1.36904
-1.27925
-1.19205
-1.10733
-1.02506
-0.945184
-0.867689
-0.792576
-0.719887
-0.649697
-0.582118
-0.517276
-0.455305
-0.396357
-0.340591
-0.288178
-0.239305
-0.194172
-0.152986
-0.115962
-0.083341
-0.0554131
-0.0325431
-0.0150903
-0.00301953
-23.9505
-22.7243
-21.4601
-20.1964
-18.9628
-17.7844
-16.6757
-15.6416
-14.6826
-13.7963
-12.9781
-12.2221
-11.522
-10.8717
-10.2656
-9.69886
-9.16747
-8.66812
-8.19802
-7.75486
-7.33666
-6.94175
-6.56864
-6.21604
-5.88278
-5.56779
-5.27014
-4.98894
-4.72338
-4.47269
-4.23615
-4.01304
-3.80265
-3.60422
-3.41699
-3.24016
-3.07296
-2.91463
-2.76446
-2.62176
-2.4859
-2.35629
-2.23239
-2.11367
-1.99965
-1.88991
-1.78408
-1.68182
-1.58285
-1.48692
-1.39381
-1.30335
-1.21544
-1.12997
-1.04689
-0.966135
-0.887703
-0.811598
-0.737857
-0.66655
-0.597777
-0.531657
-0.468324
-0.407934
-0.350664
-0.296701
-0.246235
-0.199476
-0.156656
-0.118019
-0.083819
-0.05435
-0.0299903
-0.0112509
0.00125458
0.00736032
-26.1219
-24.5958
-23.0429
-21.5115
-20.0414
-18.6566
-17.3639
-16.1681
-15.0718
-14.0731
-13.1658
-12.341
-11.5884
-10.8979
-10.2606
-9.6695
-9.11873
-8.60377
-8.12096
-7.66735
-7.24054
-6.83852
-6.45959
-6.10225
-5.76518
-5.44724
-5.14739
-4.86473
-4.59837
-4.34756
-4.11156
-3.88961
-3.68093
-3.48471
-3.30013
-3.12629
-2.9623
-2.80733
-2.66059
-2.52128
-2.38871
-2.26226
-2.14138
-2.02555
-1.9143
-1.80722
-1.70395
-1.60415
-1.50753
-1.4138
-1.32276
-1.23425
-1.14814
-1.06437
-0.982872
-0.903631
-0.826643
-0.751935
-0.679567
-0.609637
-0.542273
-0.477612
-0.415813
-0.357073
-0.3016
-0.249591
-0.201242
-0.156767
-0.116404
-0.080406
-0.049048
-0.022659
-0.00168486
0.0132296
0.0212319
0.02207
-28.5706
-26.6332
-24.7
-22.8023
-21.0526
-19.4815
-18.0501
-16.7408
-15.5458
-14.4588
-13.4747
-12.5842
-11.7757
-11.0376
-10.3599
-9.73462
-9.1554
-8.61682
-8.11447
-7.6447
-7.20455
-6.79151
-6.40345
-6.03846
-5.69485
-5.37124
-5.06641
-4.77927
-4.50897
-4.25491
-4.01647
-3.7929
-3.58339
-3.3871
-3.20313
-3.03045
-2.86803
-2.71488
-2.57015
-2.43299
-2.30261
-2.17833
-2.05949
-1.94557
-1.83613
-1.73079
-1.62921
-1.53107
-1.43603
-1.34381
-1.2542
-1.16701
-1.08215
-0.999543
-0.919165
-0.840998
-0.765056
-0.69138
-0.620037
-0.551122
-0.484771
-0.421159
-0.36051
-0.303069
-0.249075
-0.198756
-0.152334
-0.110033
-0.0720691
-0.0386619
-0.010051
0.0134709
0.0314953
0.04341
0.0484175
0.0470067
-28.9528
-26.6615
-24.2578
-22.0433
-20.108
-18.4132
-16.9403
-15.6521
-14.5167
-13.5151
-12.6228
-11.8176
-11.0814
-10.4017
-9.77067
-9.18292
-8.63396
-8.12027
-7.63903
-7.18787
-6.76475
-6.36791
-5.99559
-5.64624
-5.31881
-5.01161
-4.72269
-4.45082
-4.1955
-3.95622
-3.73223
-3.5227
-3.32687
-3.14383
-2.97236
-2.81117
-2.65917
-2.51543
-2.37918
-2.24968
-2.12619
-2.00802
-1.89459
-1.78546
-1.68034
-1.57897
-1.48102
-1.38617
-1.29411
-1.20462
-1.11753
-1.03275
-0.950223
-0.86993
-0.791878
-0.716098
-0.642632
-0.571533
-0.502875
-0.436781
-0.373465
-0.313221
-0.256345
-0.203119
-0.153818
-0.108702
-0.0679888
-0.0318659
-0.000495459
0.0259821
0.0474297
0.0636794
0.0745424
0.0801877
0.0850441
-28.7538
-26.949
-25.1665
-23.1443
-21.1215
-19.2834
-17.6474
-16.1999
-14.9302
-13.8271
-12.8554
-11.9878
-11.2081
-10.5031
-9.85708
-9.25841
-8.70151
-8.18217
-7.6971
-7.24328
-6.81799
-6.41897
-6.04368
-5.68979
-5.35547
-5.03947
-4.74092
-4.4592
-4.19428
-3.94583
-3.71318
-3.49605
-3.2945
-3.10775
-2.93396
-2.77142
-2.61895
-2.47558
-2.34022
-2.21189
-2.08956
-1.97233
-1.85951
-1.75077
-1.64589
-1.54467
-1.44671
-1.35165
-1.25921
-1.16928
-1.08172
-0.996448
-0.913465
-0.832763
-0.754371
-0.678326
-0.604654
-0.533384
-0.464584
-0.398374
-0.334993
-0.274807
-0.218201
-0.16553
-0.117088
-0.0731109
-0.0337845
0.000745137
0.0303848
0.0551325
0.0750964
0.090522
0.101981
0.111369
0.130029
-29.9531
-27.6224
-25.5554
-23.4522
-21.4328
-19.5829
-17.9231
-16.4404
-15.1319
-14.0055
-13.0152
-12.1312
-11.3352
-10.6124
-9.94867
-9.33398
-8.76173
-8.22701
-7.72638
-7.25722
-6.81748
-6.40514
-6.01837
-5.65498
-5.3125
-4.99052
-4.68968
-4.4096
-4.14887
-3.9063
-3.68076
-3.47036
-3.27288
-3.08696
-2.91244
-2.74945
-2.5972
-2.4533
-2.31604
-2.18495
-2.0594
-1.93879
-1.82309
-1.71246
-1.60696
-1.50635
-1.40983
-1.31654
-1.22589
-1.13748
-1.05096
-0.96633
-0.883748
-0.803321
-0.725157
-0.64932
-0.575794
-0.504574
-0.435721
-0.3693
-0.305612
-0.245246
-0.188718
-0.136437
-0.0886807
-0.0456523
-0.00750782
0.0256312
0.0537135
0.076858
0.0954168
0.110077
0.122228
0.13544
0.168455
-30.4448
-27.8899
-25.5366
-23.3341
-21.3007
-19.4618
-17.8231
-16.376
-15.1108
-14.0043
-13.0251
-12.1483
-11.3568
-10.6363
-9.97453
-9.3611
-8.7887
-8.25275
-7.74996
-7.27714
-6.8324
-6.4146
-6.02218
-5.65323
-5.30614
-4.98039
-4.67576
-4.39123
-4.12507
-3.87586
-3.64239
-3.42343
-3.218
-3.02549
-2.84584
-2.67881
-2.52334
-2.37828
-2.24276
-2.1157
-1.99604
-1.88296
-1.77544
-1.67219
-1.57221
-1.47491
-1.37983
-1.2862
-1.19388
-1.10326
-1.01484
-0.929006
-0.845874
-0.765464
-0.687826
-0.6128
-0.540132
-0.469724
-0.401457
-0.33498
-0.270887
-0.210498
-0.154584
-0.103454
-0.0571479
-0.0157685
0.0205329
0.0516359
0.0774616
0.0982065
0.114422
0.127021
0.137841
0.151807
0.190776
-29.8729
-26.9377
-24.3479
-22.1212
-20.1636
-18.4571
-16.9739
-15.6781
-14.5426
-13.5384
-12.6412
-11.8306
-11.0908
-10.41
-9.77887
-9.18964
-8.63604
-8.1161
-7.62806
-7.16762
-6.73235
-6.32146
-5.93428
-5.56972
-5.22654
-4.90409
-4.60193
-4.31917
-4.05444
-3.80655
-3.57444
-3.35716
-3.15389
-2.96377
-2.78595
-2.61956
-2.46367
-2.31774
-2.18104
-2.05249
-1.93116
-1.8163
-1.70711
-1.60251
-1.5012
-1.40232
-1.30561
-1.21102
-1.11853
-1.02838
-0.940954
-0.856274
-0.774207
-0.694894
-0.618899
-0.546259
-0.476045
-0.407606
-0.341162
-0.277618
-0.217726
-0.1617
-0.109887
-0.0624847
-0.0196272
0.0185141
0.0518118
0.0801202
0.103414
0.121891
0.135867
0.145878
0.15329
0.162941
0.194961
-30.0896
-26.63
-23.4305
-20.7027
-18.5515
-16.8392
-15.4431
-14.2773
-13.2844
-12.4218
-11.6584
-10.9703
-10.3396
-9.75447
-9.20638
-8.68914
-8.19837
-7.73149
-7.28696
-6.86331
-6.45977
-6.07604
-5.71169
-5.36653
-5.04028
-4.7325
-4.44277
-4.17036
-3.9144
-3.67433
-3.44959
-3.23938
-3.04272
-2.85887
-2.68718
-2.52706
-2.37753
-2.2373
-2.1049
-1.97916
-1.85967
-1.74606
-1.63768
-1.53377
-1.43362
-1.33662
-1.24248
-1.151
-1.06183
-0.974781
-0.889592
-0.805998
-0.724115
-0.644237
-0.566823
-0.492359
-0.420714
-0.351758
-0.285893
-0.224139
-0.166791
-0.113485
-0.064287
-0.019305
0.0213617
0.0575444
0.0890516
0.11564
0.137187
0.153737
0.165345
0.172164
0.174663
0.175563
0.187237
-34.0309
-31.5623
-28.1888
-24.5493
-21.3253
-18.8033
-16.8438
-15.2705
-13.9643
-12.861
-11.9187
-11.1033
-10.3878
-9.74847
-9.16764
-8.63231
-8.13377
-7.66703
-7.22717
-6.8082
-6.40783
-6.02663
-5.66508
-5.32279
-4.99948
-4.69497
-4.40877
-4.1404
-3.88903
-3.65353
-3.43315
-3.2274
-3.03555
-2.85674
-2.69003
-2.53427
-2.38832
-2.25098
-2.12112
-1.99776
-1.88007
-1.76755
-1.65979
-1.55635
-1.45677
-1.36054
-1.26728
-1.17675
-1.08895
-1.00372
-0.920673
-0.839495
-0.759797
-0.681339
-0.604062
-0.527611
-0.452245
-0.379161
-0.309328
-0.243164
-0.181211
-0.123788
-0.0707675
-0.022432
0.021131
0.0601356
0.0944808
0.123901
0.148049
0.166654
0.179566
0.186735
0.188147
0.183833
0.174775
0.165678
-33.9541
-31.0611
-27.7397
-24.3579
-21.4452
-19.1629
-17.3318
-15.775
-14.4107
-13.2149
-12.1647
-11.2366
-10.4123
-9.67663
-9.01565
-8.41741
-7.87455
-7.38605
-6.94078
-6.51993
-6.11805
-5.73616
-5.3745
-5.03284
-4.71087
-4.40843
-4.12551
-3.86204
-3.61723
-3.3897
-3.17812
-2.98179
-2.80004
-2.63187
-2.47612
-2.33141
-2.19642
-2.06988
-1.95059
-1.83763
-1.73025
-1.62785
-1.52986
-1.43571
-1.34489
-1.25694
-1.17144
-1.08794
-1.00616
-0.925923
-0.84708
-0.769541
-0.693188
-0.617994
-0.543978
-0.471228
-0.400119
-0.331256
-0.265142
-0.202146
-0.142576
-0.0866516
-0.0345553
0.0134239
0.0568969
0.0954797
0.128797
0.156491
0.178227
0.193713
0.202694
0.204928
0.200166
0.187876
0.167155
0.138555
-31.0672
-28.4563
-25.7365
-23.0593
-20.6534
-18.6069
-16.8706
-15.378
-14.0884
-12.9705
-11.9939
-11.1311
-10.3611
-9.66625
-9.02949
-8.43842
-7.88525
-7.35814
-6.85188
-6.37351
-5.926
-5.5081
-5.11799
-4.75455
-4.41714
-4.10564
-3.82024
-3.56087
-3.32437
-3.10657
-2.90586
-2.72117
-2.55134
-2.39504
-2.25063
-2.11667
-1.99206
-1.87567
-1.76625
-1.66272
-1.56431
-1.47042
-1.3805
-1.294
-1.2104
-1.12929
-1.05027
-0.972889
-0.896879
-0.822217
-0.748861
-0.676693
-0.605556
-0.535388
-0.466212
-0.398123
-0.331451
-0.266654
-0.204161
-0.144368
-0.0876007
-0.0341274
0.0156838
0.0613978
0.102502
0.138423
0.168679
0.192855
0.210548
0.221352
0.224831
0.220547
0.207968
0.186108
0.152921
0.106129
-28.9655
-26.7722
-24.5399
-22.3414
-20.2866
-18.4484
-16.8343
-15.4157
-14.1607
-13.0428
-12.0403
-11.1357
-10.315
-9.56672
-8.88023
-8.24681
-7.65975
-7.11347
-6.60606
-6.1368
-5.70235
-5.29875
-4.92312
-4.57343
-4.24803
-3.9451
-3.66252
-3.3981
-3.15214
-2.92608
-2.71922
-2.52984
-2.35611
-2.19651
-2.04972
-1.91461
-1.79052
-1.67602
-1.56921
-1.46899
-1.37451
-1.28504
-1.19993
-1.11863
-1.0406
-0.965261
-0.892036
-0.820547
-0.750618
-0.68215
-0.614972
-0.548855
-0.483587
-0.419053
-0.355296
-0.292447
-0.230742
-0.17055
-0.112345
-0.056608
-0.00376369
0.0458368
0.0916865
0.1332
0.169806
0.200951
0.226116
0.244798
0.256465
0.260551
0.256441
0.243475
0.220813
0.186983
0.139151
0.0714932
-25.4488
-23.509
-21.6054
-19.8033
-18.1507
-16.6604
-15.3193
-14.1089
-13.0133
-12.0189
-11.1133
-10.2855
-9.52607
-8.82657
-8.17984
-7.57976
-7.02137
-6.50107
-6.01606
-5.56407
-5.14305
-4.75118
-4.38693
-4.04897
-3.73616
-3.44751
-3.18205
-2.93909
-2.71776
-2.5165
-2.33347
-2.16664
-2.01401
-1.874
-1.74529
-1.62608
-1.51519
-1.41213
-1.31597
-1.22567
-1.14023
-1.05881
-0.980858
-0.905832
-0.833097
-0.762098
-0.692573
-0.624397
-0.557502
-0.491786
-0.427103
-0.363344
-0.300466
-0.238515
-0.177636
-0.118097
-0.0602719
-0.00457772
0.0485524
0.0985986
0.144999
0.187209
0.224682
0.25689
0.283317
0.303345
0.316294
0.321454
0.318079
0.30539
0.282546
0.248407
0.201062
0.137057
0.0475411
-24.506
-22.7842
-21.0978
-19.4879
-17.9846
-16.5985
-15.3261
-14.1585
-13.086
-12.0996
-11.1903
-10.35
-9.57164
-8.84949
-8.17843
-7.55405
-6.97258
-6.43109
-5.92736
-5.45961
-5.02602
-4.62467
-4.25371
-3.91139
-3.59608
-3.30619
-3.04018
-2.7966
-2.57393
-2.37066
-2.18523
-2.01598
-1.86129
-1.71978
-1.59021
-1.47121
-1.36157
-1.26017
-1.16584
-1.07753
-0.99435
-0.915405
-0.839819
-0.766943
-0.696431
-0.627967
-0.561214
-0.495923
-0.431891
-0.368879
-0.30672
-0.245423
-0.185078
-0.125803
-0.0677854
-0.0112594
0.0435408
0.0963031
0.146559
0.193777
0.237408
0.27686
0.311504
0.340662
0.36363
0.379666
0.387941
0.387575
0.37765
0.357189
0.32513
0.280154
0.220391
0.142946
0.0415872
-23.7696
-22.2091
-20.677
-19.2027
-17.8069
-16.4997
-15.2823
-14.1508
-13.0996
-12.1226
-11.2141
-10.3685
-9.58075
-8.84677
-8.16271
-7.52517
-6.93119
-6.37818
-5.86394
-5.38643
-4.94377
-4.53409
-4.15557
-3.80647
-3.48513
-3.18996
-2.91943
-2.67209
-2.44642
-2.24088
-2.05384
-1.88367
-1.72872
-1.58743
-1.4583
-1.33994
-1.23107
-1.13053
-1.0372
-0.950116
-0.868446
-0.791259
-0.71759
-0.646703
-0.578103
-0.511432
-0.446372
-0.382633
-0.319939
-0.258126
-0.1972
-0.137223
-0.0782882
-0.0205166
0.0359423
0.0908658
0.143952
0.194814
0.24298
0.287935
0.329122
0.365917
0.397627
0.423492
0.442731
0.454529
0.457952
0.451961
0.435466
0.407343
0.366412
0.311398
0.240912
0.15351
0.048096
-23.2144
-21.7705
-20.3487
-18.972
-17.6565
-16.4112
-15.2389
-14.1386
-13.1072
-12.1411
-11.2364
-10.3893
-9.59652
-8.85486
-8.16155
-7.51401
-6.90988
-6.34704
-5.82352
-5.33745
-4.88705
-4.47049
-4.08601
-3.73185
-3.4063
-3.10769
-2.83439
-2.58474
-2.3571
-2.14978
-1.96111
-1.78945
-1.63316
-1.49071
-1.36062
-1.24153
-1.13216
-1.03129
-0.937803
-0.850686
-0.769018
-0.691934
-0.618586
-0.548227
-0.480332
-0.414491
-0.350333
-0.287525
-0.225811
-0.165076
-0.105284
-0.0464268
0.0114407
0.0681759
0.123559
0.177327
0.229165
0.278673
0.325394
0.368803
0.408295
0.443187
0.472715
0.496045
0.512337
0.520703
0.520101
0.509366
0.487274
0.452616
0.404211
0.340967
0.262061
0.167495
0.0600619
-22.7831
-21.4209
-20.076
-18.7678
-17.5099
-16.3103
-15.1725
-14.0969
-13.0825
-12.1269
-11.2277
-10.3824
-9.58863
-8.84407
-8.14661
-7.49425
-6.88506
-6.31717
-5.7888
-5.29819
-4.8436
-4.42324
-4.03536
-3.67818
-3.34995
-3.04894
-2.77347
-2.52187
-2.29246
-2.08354
-1.89346
-1.72057
-1.56327
-1.42003
-1.28936
-1.16989
-1.06029
-0.959311
-0.865807
-0.778742
-0.697166
-0.620218
-0.547103
-0.4771
-0.409636
-0.344231
-0.280471
-0.218046
-0.15674
-0.0964326
-0.0370906
0.0212856
0.0786519
0.13485
0.189658
0.24282
0.294011
0.342812
0.388733
0.431215
0.469627
0.503264
0.531349
0.553017
0.567343
0.573323
0.569824
0.555594
0.529327
0.489755
0.435712
0.366284
0.28114
0.181375
0.0717763
-22.4868
-21.1751
-19.8779
-18.6129
-17.392
-16.2227
-15.1086
-14.051
-13.0496
-12.1031
-11.2099
-10.368
-9.57567
-8.83116
-8.13273
-7.47872
-6.86745
-6.29728
-5.76655
-5.27361
-4.81676
-4.39431
-4.00452
-3.64565
-3.31596
-3.01371
-2.7372
-2.48472
-2.25457
-2.04503
-1.85443
-1.6811
-1.52344
-1.37991
-1.24901
-1.12934
-1.01959
-0.918477
-0.824852
-0.737684
-0.656024
-0.578984
-0.505767
-0.435701
-0.368202
-0.302767
-0.238995
-0.176589
-0.115323
-0.0550498
0.00427585
0.0626249
0.119919
0.176013
0.230685
0.283643
0.334529
0.382954
0.42845
0.470441
0.508287
0.541261
0.568563
0.589305
0.602505
0.607086
0.601861
0.585514
0.55667
0.51401
0.456379
0.383013
0.293948
0.191085
0.0802437
-22.3028
-21.0159
-19.743
-18.5008
-17.3003
-16.1484
-15.0489
-14.0031
-13.0111
-12.0719
-11.1843
-10.3466
-9.55738
-8.81502
-8.11801
-7.46485
-6.85404
-6.28405
-5.75334
-5.2603
-4.80331
-4.38071
-3.99079
-3.63184
-3.30212
-2.9999
-2.72345
-2.47105
-2.24096
-2.03149
-1.84094
-1.66766
-1.51005
-1.36656
-1.23573
-1.11614
-1.00647
-0.905465
-0.811956
-0.724897
-0.643325
-0.566347
-0.493168
-0.423122
-0.355622
-0.290164
-0.226342
-0.163841
-0.102443
-0.042008
0.0175223
0.0761125
0.133654
0.189993
0.24491
0.298102
0.349191
0.397775
0.443344
0.485337
0.52316
0.556082
0.583266
0.60381
0.616695
0.620796
0.614879
0.597632
0.567715
0.523813
0.464775
0.389888
0.299333
0.194553
0.0831813
-22.2558
-20.9671
-19.6945
-18.4544
-17.2572
-16.1094
-15.0143
-13.9731
-12.9856
-12.051
-11.1676
-10.334
-9.54854
-8.80955
-8.11555
-7.46504
-6.85657
-6.28864
-5.75974
-5.26832
-4.81279
-4.39149
-4.00277
-3.64492
-3.31624
-3.01498
-2.73942
-2.48782
-2.25847
-2.04963
-1.85964
-1.68684
-1.52963
-1.38649
-1.25594
-1.13659
-1.02711
-0.926234
-0.832785
-0.745714
-0.664055
-0.586926
-0.513548
-0.44324
-0.375403
-0.309549
-0.245287
-0.182315
-0.120427
-0.0594849
0.000574103
0.0597222
0.117855
0.174794
0.230321
0.284151
0.335913
0.385161
0.431407
0.474119
0.512659
0.546282
0.574152
0.595371
0.608922
0.613671
0.608384
0.591766
0.562496
0.519271
0.460961
0.386855
0.297114
0.193168
0.0823789
-22.3393
-21.0229
-19.7276
-18.4698
-17.2597
-16.1031
-15.0027
-13.9591
-12.9715
-12.0385
-11.1581
-10.3282
-9.54684
-8.81221
-8.12256
-7.47628
-6.87181
-6.30765
-5.78226
-5.29408
-4.84153
-4.42298
-4.03678
-3.68126
-3.35472
-3.05545
-2.78171
-2.53176
-2.30386
-2.0963
-1.90742
-1.73559
-1.57922
-1.43679
-1.30685
-1.18801
-1.07893
-0.97832
-0.885004
-0.797925
-0.716119
-0.638721
-0.564982
-0.494232
-0.42589
-0.359481
-0.294613
-0.230985
-0.168376
-0.106661
-0.0457926
0.0142051
0.073227
0.131087
0.187576
0.242427
0.295278
0.345684
0.393142
0.437087
0.476879
0.511794
0.54102
0.563653
0.578711
0.585098
0.581612
0.566987
0.53992
0.499136
0.443534
0.372385
0.285708
0.185303
0.0767744
-22.5235
-21.1554
-19.8163
-18.5231
-17.2858
-16.1094
-14.9958
-13.9445
-12.9536
-12.0206
-11.1426