/*--------------------------------*- C++ -*----------------------------------*\
  =========                 |
  \\      /  F ield         | OpenFOAM: The Open Source CFD Toolbox
   \\    /   O peration     | Website:  https://openfoam.org
    \\  /    A nd           | Version:  13
     \\/     M anipulation  |
\*---------------------------------------------------------------------------*/
FoamFile
{
    format      ascii;
    class       volScalarField;
    location    "800";
    object      k;
}
// * * * * * * * * * * * * * * * * * * * * * * * * * * * * * * * * * * * * * //

dimensions      [0 2 -2 0 0 0 0];

internalField   nonuniform List<scalar> 
173327
(
0.275174
0.273978
0.272797
0.271633
0.270486
0.269356
0.268242
0.267146
0.266065
0.264999
0.263948
0.262912
0.261888
0.260877
0.259877
0.258888
0.257909
0.256939
0.255978
0.255024
0.254077
0.253137
0.252202
0.251273
0.250347
0.249426
0.248509
0.247594
0.246683
0.245774
0.244868
0.243964
0.243062
0.242161
0.241262
0.240364
0.239468
0.238574
0.237682
0.236791
0.235902
0.235015
0.23413
0.233248
0.232369
0.231492
0.230619
0.229749
0.228883
0.22802
0.227162
0.226309
0.22546
0.224617
0.223779
0.222947
0.222122
0.221302
0.220488
0.219681
0.218881
0.218087
0.217299
0.216519
0.215745
0.214978
0.214218
0.213464
0.212717
0.211976
0.211241
0.210513
0.209791
0.209074
0.208363
0.207657
0.20697
0.275238
0.274044
0.272865
0.271702
0.270557
0.269429
0.268317
0.267222
0.266143
0.265079
0.26403
0.262995
0.261973
0.260963
0.259965
0.258978
0.258
0.257032
0.256072
0.25512
0.254175
0.253236
0.252303
0.251375
0.250451
0.249532
0.248616
0.247703
0.246794
0.245887
0.244982
0.24408
0.243179
0.242281
0.241384
0.240488
0.239594
0.238701
0.237811
0.236922
0.236035
0.23515
0.234267
0.233387
0.232509
0.231634
0.230762
0.229893
0.229028
0.228166
0.227309
0.226456
0.225608
0.224764
0.223926
0.223094
0.222267
0.221447
0.220632
0.219824
0.219022
0.218226
0.217437
0.216654
0.215879
0.215109
0.214347
0.213591
0.212841
0.212098
0.211361
0.210631
0.209906
0.209187
0.208474
0.207767
0.207078
0.275372
0.274181
0.273006
0.271848
0.270706
0.269582
0.268474
0.267382
0.266307
0.265246
0.2642
0.263168
0.262149
0.261143
0.260147
0.259163
0.258188
0.257222
0.256264
0.255314
0.254371
0.253435
0.252504
0.251578
0.250656
0.249739
0.248825
0.247914
0.247006
0.246101
0.245198
0.244297
0.243398
0.2425
0.241604
0.24071
0.239817
0.238926
0.238036
0.237148
0.236262
0.235377
0.234495
0.233615
0.232737
0.231862
0.23099
0.230121
0.229256
0.228394
0.227536
0.226683
0.225834
0.22499
0.224151
0.223317
0.22249
0.221667
0.220851
0.220041
0.219237
0.21844
0.217649
0.216864
0.216086
0.215315
0.21455
0.213791
0.213039
0.212294
0.211554
0.210821
0.210094
0.209372
0.208656
0.207946
0.207255
0.275582
0.274397
0.273229
0.272076
0.270941
0.269822
0.26872
0.267634
0.266563
0.265508
0.264467
0.263439
0.262424
0.261421
0.26043
0.259449
0.258477
0.257514
0.256559
0.255612
0.254672
0.253737
0.252808
0.251884
0.250964
0.250048
0.249136
0.248227
0.24732
0.246416
0.245514
0.244614
0.243715
0.242819
0.241923
0.24103
0.240137
0.239246
0.238357
0.237469
0.236583
0.235698
0.234816
0.233935
0.233057
0.232182
0.231309
0.23044
0.229574
0.228712
0.227853
0.226999
0.226149
0.225304
0.224465
0.22363
0.222801
0.221978
0.221161
0.220349
0.219544
0.218746
0.217953
0.217168
0.216388
0.215616
0.21485
0.21409
0.213336
0.212589
0.211849
0.211114
0.210385
0.209662
0.208944
0.208233
0.20754
0.275883
0.274707
0.273547
0.272403
0.271276
0.270165
0.26907
0.267991
0.266928
0.265879
0.264845
0.263823
0.262814
0.261816
0.26083
0.259853
0.258885
0.257927
0.256975
0.256031
0.255094
0.254162
0.253235
0.252313
0.251395
0.250481
0.24957
0.248662
0.247757
0.246853
0.245952
0.245052
0.244154
0.243258
0.242363
0.241469
0.240576
0.239685
0.238795
0.237907
0.23702
0.236135
0.235251
0.23437
0.233491
0.232615
0.231741
0.230871
0.230004
0.22914
0.228281
0.227425
0.226575
0.225729
0.224888
0.224052
0.223222
0.222397
0.221579
0.220766
0.21996
0.219161
0.218367
0.21758
0.2168
0.216026
0.215259
0.214499
0.213744
0.212996
0.212254
0.211519
0.210789
0.210065
0.209346
0.208634
0.20794
0.276298
0.275133
0.273984
0.27285
0.271733
0.270632
0.269547
0.268478
0.267423
0.266383
0.265356
0.264341
0.263339
0.262348
0.261367
0.260396
0.259433
0.258479
0.257532
0.256591
0.255657
0.254728
0.253804
0.252884
0.251968
0.251055
0.250146
0.249238
0.248334
0.247431
0.24653
0.24563
0.244732
0.243835
0.24294
0.242045
0.241152
0.24026
0.239369
0.238479
0.237591
0.236704
0.23582
0.234937
0.234056
0.233178
0.232303
0.231431
0.230563
0.229698
0.228836
0.227979
0.227127
0.226279
0.225437
0.2246
0.223768
0.222942
0.222122
0.221308
0.220501
0.219699
0.218905
0.218117
0.217335
0.21656
0.215792
0.21503
0.214275
0.213526
0.212783
0.212046
0.211315
0.21059
0.209871
0.209157
0.208462
0.276858
0.275707
0.274571
0.273451
0.272346
0.271257
0.270183
0.269124
0.26808
0.267049
0.266031
0.265025
0.26403
0.263046
0.262072
0.261107
0.260149
0.2592
0.258257
0.25732
0.256389
0.255463
0.254541
0.253623
0.252709
0.251797
0.250888
0.249982
0.249077
0.248175
0.247273
0.246373
0.245474
0.244576
0.243679
0.242784
0.241889
0.240995
0.240102
0.23921
0.23832
0.237432
0.236545
0.23566
0.234777
0.233897
0.233019
0.232145
0.231274
0.230406
0.229543
0.228684
0.227829
0.226979
0.226134
0.225295
0.224461
0.223633
0.222811
0.221995
0.221186
0.220383
0.219586
0.218796
0.218013
0.217237
0.216467
0.215703
0.214946
0.214196
0.213451
0.212713
0.211981
0.211254
0.210533
0.209819
0.209122
0.277612
0.276477
0.275357
0.274251
0.273161
0.272085
0.271024
0.269978
0.268945
0.267924
0.266916
0.265918
0.264932
0.263955
0.262987
0.262027
0.261075
0.26013
0.259191
0.258257
0.257329
0.256405
0.255484
0.254568
0.253654
0.252743
0.251834
0.250927
0.250022
0.249118
0.248215
0.247314
0.246413
0.245513
0.244614
0.243715
0.242818
0.241921
0.241025
0.240131
0.239237
0.238345
0.237455
0.236567
0.235681
0.234797
0.233916
0.233038
0.232164
0.231293
0.230426
0.229564
0.228706
0.227853
0.227005
0.226163
0.225326
0.224495
0.22367
0.222852
0.22204
0.221234
0.220435
0.219643
0.218857
0.218078
0.217306
0.216541
0.215781
0.215029
0.214282
0.213542
0.212807
0.212079
0.211356
0.210639
0.209941
0.27863
0.277514
0.276411
0.275322
0.274246
0.273185
0.272138
0.271103
0.270081
0.269071
0.268072
0.267083
0.266104
0.265133
0.264171
0.263215
0.262267
0.261325
0.260388
0.259456
0.258529
0.257606
0.256685
0.255768
0.254854
0.253941
0.25303
0.252121
0.251214
0.250307
0.249401
0.248496
0.247592
0.246688
0.245785
0.244882
0.24398
0.243079
0.242178
0.241279
0.240381
0.239484
0.238589
0.237696
0.236805
0.235916
0.235031
0.234148
0.233269
0.232393
0.231522
0.230655
0.229792
0.228935
0.228083
0.227236
0.226395
0.22556
0.224732
0.22391
0.223094
0.222285
0.221482
0.220687
0.219898
0.219116
0.21834
0.217572
0.216809
0.216054
0.215304
0.214561
0.213824
0.213092
0.212367
0.211647
0.210946
0.280014
0.278917
0.277832
0.276759
0.275699
0.274652
0.273617
0.272593
0.271581
0.270579
0.269587
0.268604
0.267629
0.266662
0.265703
0.264749
0.263802
0.26286
0.261923
0.26099
0.26006
0.259134
0.258211
0.25729
0.256372
0.255455
0.25454
0.253625
0.252712
0.2518
0.250888
0.249977
0.249066
0.248155
0.247245
0.246336
0.245427
0.244519
0.243611
0.242705
0.2418
0.240896
0.239994
0.239093
0.238195
0.2373
0.236407
0.235518
0.234632
0.23375
0.232872
0.231999
0.23113
0.230267
0.229409
0.228556
0.22771
0.226869
0.226036
0.225208
0.224387
0.223573
0.222766
0.221966
0.221173
0.220386
0.219606
0.218833
0.218067
0.217307
0.216553
0.215806
0.215064
0.214329
0.213599
0.212876
0.212171
0.281907
0.280829
0.27976
0.278702
0.277655
0.276617
0.275591
0.274574
0.273567
0.272568
0.271578
0.270596
0.269621
0.268652
0.26769
0.266733
0.265781
0.264834
0.26389
0.26295
0.262014
0.26108
0.260149
0.259219
0.258292
0.257366
0.256441
0.255517
0.254593
0.253671
0.252748
0.251827
0.250905
0.249984
0.249063
0.248143
0.247223
0.246305
0.245387
0.244469
0.243554
0.242639
0.241727
0.240817
0.239909
0.239003
0.238101
0.237202
0.236307
0.235416
0.234529
0.233647
0.23277
0.231898
0.231032
0.230172
0.229318
0.22847
0.227629
0.226795
0.225967
0.225146
0.224333
0.223526
0.222726
0.221934
0.221148
0.220369
0.219597
0.218831
0.218072
0.217319
0.216572
0.215831
0.215095
0.214366
0.213656
0.284513
0.283449
0.282392
0.281341
0.280298
0.279263
0.278236
0.277216
0.276204
0.2752
0.274202
0.27321
0.272224
0.271244
0.270269
0.269299
0.268333
0.267371
0.266413
0.265457
0.264505
0.263555
0.262607
0.261661
0.260716
0.259773
0.258831
0.25789
0.25695
0.25601
0.255071
0.254132
0.253194
0.252256
0.251319
0.250383
0.249447
0.248512
0.247578
0.246646
0.245715
0.244785
0.243858
0.242934
0.242011
0.241092
0.240177
0.239264
0.238356
0.237453
0.236554
0.23566
0.234771
0.233888
0.233011
0.23214
0.231276
0.230418
0.229567
0.228723
0.227886
0.227056
0.226234
0.225419
0.22461
0.223809
0.223015
0.222228
0.221448
0.220675
0.219907
0.219147
0.218392
0.217643
0.2169
0.216163
0.215445
0.288107
0.287047
0.285989
0.284932
0.283879
0.28283
0.281785
0.280745
0.279711
0.278683
0.277659
0.276641
0.275627
0.274619
0.273615
0.272615
0.271619
0.270628
0.269639
0.268654
0.267672
0.266693
0.265715
0.26474
0.263767
0.262796
0.261826
0.260857
0.25989
0.258923
0.257958
0.256993
0.25603
0.255067
0.254105
0.253145
0.252185
0.251227
0.250271
0.249316
0.248363
0.247413
0.246465
0.24552
0.244578
0.24364
0.242706
0.241775
0.24085
0.239929
0.239013
0.238103
0.237199
0.236301
0.235409
0.234523
0.233645
0.232774
0.23191
0.231053
0.230203
0.229361
0.228527
0.2277
0.22688
0.226068
0.225262
0.224464
0.223673
0.222889
0.222111
0.22134
0.220574
0.219815
0.219061
0.218313
0.217585
0.293051
0.291979
0.290898
0.289811
0.288722
0.287631
0.286541
0.285453
0.284368
0.283286
0.282209
0.281136
0.280067
0.279003
0.277945
0.27689
0.275841
0.274796
0.273756
0.272719
0.271687
0.270658
0.269633
0.268611
0.267592
0.266575
0.265561
0.26455
0.26354
0.262533
0.261528
0.260525
0.259523
0.258524
0.257526
0.256531
0.255537
0.254546
0.253558
0.252572
0.251589
0.250609
0.249632
0.248659
0.24769
0.246726
0.245766
0.244811
0.243861
0.242917
0.241979
0.241047
0.240121
0.239203
0.238291
0.237386
0.236489
0.235599
0.234717
0.233843
0.232977
0.232118
0.231267
0.230424
0.229589
0.228761
0.227941
0.227128
0.226322
0.225524
0.224731
0.223946
0.223166
0.222392
0.221624
0.220862
0.22012
0.299866
0.298751
0.297612
0.296455
0.295286
0.294108
0.292926
0.291741
0.290558
0.289377
0.288199
0.287027
0.28586
0.284699
0.283545
0.282397
0.281256
0.280123
0.278996
0.277876
0.276762
0.275654
0.274553
0.273457
0.272366
0.27128
0.2702
0.269123
0.268051
0.266984
0.26592
0.26486
0.263804
0.262751
0.261702
0.260657
0.259616
0.258579
0.257545
0.256516
0.25549
0.25447
0.253454
0.252443
0.251437
0.250437
0.249442
0.248454
0.247472
0.246496
0.245527
0.244566
0.243611
0.242665
0.241726
0.240795
0.239872
0.238957
0.238051
0.237153
0.236263
0.235382
0.234509
0.233644
0.232787
0.231938
0.231097
0.230264
0.229438
0.228619
0.227807
0.227002
0.226203
0.22541
0.224623
0.223841
0.22308
0.309356
0.308158
0.30691
0.305624
0.30431
0.302974
0.30162
0.30026
0.298899
0.29754
0.296186
0.29484
0.293502
0.292175
0.29086
0.289555
0.288263
0.286983
0.285714
0.284458
0.283213
0.281979
0.280756
0.279543
0.278341
0.277148
0.275964
0.274789
0.273623
0.272464
0.271313
0.27017
0.269033
0.267904
0.266781
0.265665
0.264555
0.263452
0.262356
0.261266
0.260182
0.259105
0.258035
0.256972
0.255915
0.254866
0.253825
0.252791
0.251764
0.250746
0.249736
0.248734
0.247741
0.246756
0.24578
0.244813
0.243855
0.242906
0.241966
0.241035
0.240113
0.2392
0.238296
0.2374
0.236513
0.235635
0.234765
0.233903
0.233049
0.232202
0.231362
0.23053
0.229704
0.228884
0.228071
0.227263
0.226477
0.32305
0.321663
0.320182
0.318629
0.317022
0.315379
0.313714
0.312039
0.310363
0.308692
0.307032
0.305387
0.303755
0.302139
0.300545
0.298974
0.297426
0.295901
0.294399
0.29292
0.291463
0.290027
0.288611
0.287215
0.285838
0.284479
0.283137
0.281811
0.280502
0.279207
0.277926
0.276659
0.275405
0.274163
0.272934
0.271716
0.270509
0.269314
0.268128
0.266953
0.265789
0.264634
0.263489
0.262354
0.261228
0.260113
0.259007
0.257911
0.256825
0.255748
0.254682
0.253625
0.252579
0.251542
0.250515
0.249499
0.248492
0.247496
0.246509
0.245533
0.244566
0.243609
0.242661
0.241723
0.240794
0.239875
0.238964
0.238061
0.237167
0.236281
0.235403
0.234533
0.23367
0.232813
0.231964
0.231121
0.230301
0.343153
0.341336
0.339361
0.33727
0.335098
0.332878
0.330632
0.328382
0.326141
0.323921
0.321729
0.319572
0.317453
0.315373
0.313336
0.311341
0.309389
0.307478
0.30561
0.303782
0.301994
0.300244
0.298528
0.296844
0.295194
0.293577
0.291993
0.290439
0.288914
0.287417
0.285946
0.2845
0.283077
0.281676
0.280296
0.278937
0.277596
0.276273
0.274968
0.273679
0.272406
0.271148
0.269905
0.268676
0.26746
0.266258
0.265069
0.263893
0.262729
0.261578
0.260439
0.259312
0.258197
0.257093
0.256001
0.25492
0.25385
0.252792
0.251745
0.250708
0.249682
0.248667
0.247662
0.246667
0.245682
0.244707
0.243741
0.242785
0.241837
0.240899
0.239969
0.239047
0.238133
0.237228
0.236329
0.235438
0.234571
0.368023
0.365188
0.362201
0.359121
0.355996
0.352862
0.349746
0.346668
0.343642
0.340674
0.337772
0.334946
0.332193
0.329514
0.326909
0.324375
0.321914
0.319522
0.317199
0.314942
0.312751
0.310621
0.308551
0.306538
0.30458
0.302675
0.300819
0.299011
0.297248
0.295528
0.293848
0.292207
0.290602
0.289031
0.287492
0.285983
0.2845
0.283044
0.281612
0.280205
0.278821
0.277459
0.276119
0.274798
0.273495
0.272211
0.270944
0.269694
0.268459
0.267239
0.266034
0.264844
0.263666
0.262502
0.261351
0.260213
0.259086
0.257972
0.256869
0.255778
0.254697
0.253627
0.252568
0.251519
0.25048
0.249451
0.248431
0.247421
0.24642
0.245427
0.244443
0.243468
0.2425
0.241541
0.240588
0.239661
0.394953
0.391338
0.38759
0.383791
0.379984
0.376186
0.372423
0.368714
0.365069
0.361497
0.358
0.354583
0.351249
0.347998
0.344832
0.341751
0.338755
0.335844
0.333018
0.330275
0.327615
0.325036
0.322538
0.320118
0.317775
0.315506
0.313308
0.31118
0.309118
0.30712
0.305182
0.303302
0.301477
0.299704
0.29798
0.296302
0.294668
0.293074
0.291518
0.289997
0.28851
0.287053
0.285627
0.284228
0.282854
0.281506
0.280179
0.278875
0.27759
0.276325
0.275077
0.273846
0.27263
0.27143
0.270243
0.26907
0.267909
0.266759
0.265619
0.264489
0.263368
0.262256
0.261154
0.260061
0.258977
0.2579
0.25683
0.255768
0.254711
0.253661
0.252617
0.251578
0.250544
0.249514
0.248489
0.247485
0.397983
0.394825
0.391724
0.388725
0.385843
0.38307
0.38039
0.377783
0.375227
0.372701
0.370187
0.367672
0.365151
0.362623
0.360086
0.357545
0.355003
0.352464
0.349936
0.347424
0.344936
0.342477
0.340054
0.337673
0.335339
0.333056
0.330827
0.328656
0.326543
0.32449
0.322498
0.320566
0.318693
0.316876
0.315113
0.313403
0.311743
0.310128
0.308549
0.307008
0.305518
0.304076
0.302679
0.301323
0.300002
0.298715
0.297459
0.296232
0.295031
0.293854
0.292699
0.291564
0.290447
0.289345
0.288257
0.287181
0.286114
0.285056
0.284005
0.282958
0.281914
0.280872
0.27983
0.278787
0.277741
0.276691
0.275635
0.274572
0.2735
0.272418
0.271326
0.270222
0.269107
0.267978
0.266836
0.265693
0.396446
0.394186
0.391819
0.39019
0.389187
0.388716
0.38869
0.389022
0.389614
0.390283
0.390873
0.391355
0.391709
0.391917
0.391963
0.391838
0.391538
0.391066
0.390425
0.389626
0.388679
0.387599
0.386403
0.385106
0.383725
0.382276
0.380776
0.379239
0.377678
0.376104
0.374529
0.372959
0.371388
0.369801
0.368195
0.36659
0.365003
0.363445
0.361925
0.360451
0.359026
0.357655
0.356339
0.355079
0.353874
0.352722
0.351621
0.350567
0.349557
0.348585
0.347648
0.34674
0.345856
0.34499
0.344136
0.343289
0.342442
0.34159
0.340726
0.339846
0.338942
0.33801
0.337044
0.336039
0.33499
0.33389
0.332736
0.331524
0.330254
0.328923
0.327531
0.326077
0.324562
0.322987
0.321354
0.319684
0.558138
0.577701
0.592757
0.602485
0.611009
0.620112
0.628775
0.636817
0.644182
0.650811
0.656666
0.661778
0.665828
0.668386
0.669566
0.66951
0.668366
0.666279
0.663389
0.659825
0.655712
0.651182
0.646339
0.641264
0.636025
0.63068
0.625278
0.619862
0.614467
0.609127
0.603872
0.598731
0.593729
0.588886
0.58422
0.579739
0.575451
0.571362
0.567476
0.563794
0.560313
0.55703
0.55394
0.551033
0.548302
0.545734
0.543319
0.541042
0.538889
0.536845
0.534894
0.53302
0.531205
0.529433
0.527685
0.525946
0.524197
0.522422
0.520605
0.518732
0.516787
0.514756
0.512628
0.510391
0.508034
0.505549
0.502929
0.500168
0.497263
0.494211
0.491013
0.487668
0.484182
0.480557
0.476802
0.472971
1.35236
1.47389
1.58468
1.68071
1.75663
1.81362
1.85346
1.87914
1.89352
1.89882
1.89683
1.88923
1.87674
1.86004
1.84007
1.8176
1.79319
1.76731
1.74032
1.71251
1.68379
1.65382
1.62268
1.59063
1.558
1.52508
1.49228
1.45998
1.42843
1.39782
1.36828
1.3399
1.31278
1.28697
1.26247
1.23928
1.21738
1.19672
1.17726
1.15895
1.14175
1.12558
1.1104
1.09615
1.08275
1.07015
1.05828
1.04709
1.0365
1.02647
1.01692
1.0078
0.999042
0.990601
0.982416
0.974433
0.966601
0.95887
0.951196
0.943534
0.935847
0.928096
0.920252
0.912285
0.904172
0.895895
0.887436
0.878785
0.869935
0.860882
0.851629
0.842182
0.832553
0.822771
0.812928
3.21047
2.4353
1.94389
1.76507
1.67681
1.64619
1.65747
1.65109
1.65293
1.66009
1.66893
1.6761
1.69207
1.71969
1.75844
1.80763
1.86658
1.93494
2.01295
2.10113
2.18187
2.22496
2.24508
2.25099
2.24809
2.2395
2.22624
2.20749
2.18534
2.16115
2.1356
2.10911
2.08168
2.05348
2.02475
1.99575
1.96676
1.93807
1.90988
1.88236
1.85565
1.82981
1.8049
1.78094
1.75793
1.73586
1.7147
1.69439
1.67489
1.65613
1.63805
1.6206
1.60369
1.58725
1.57122
1.5555
1.54004
1.52476
1.50959
1.49449
1.47938
1.46424
1.44901
1.43368
1.41821
1.40259
1.38681
1.37086
1.35473
1.33843
1.32198
1.30537
1.28865
1.27188
1.25526
1.55113
1.44398
1.40177
1.38873
1.38857
1.37997
1.37383
1.36421
1.34475
1.32822
1.31553
1.30555
1.29921
1.29664
1.29703
1.29959
1.30357
1.30823
1.31404
1.32202
1.33187
1.3418
1.35183
1.36404
1.38477
1.41804
1.46551
1.52741
1.59342
1.65983
1.72699
1.79576
1.85901
1.90679
1.94266
1.96924
1.98813
1.99924
2.0041
2.00429
2.00104
1.99527
1.98764
1.97866
1.96868
1.95799
1.94678
1.93518
1.92325
1.91094
1.89825
1.88524
1.87193
1.85833
1.84445
1.83031
1.81589
1.8012
1.78624
1.77099
1.75548
1.73971
1.72371
1.70749
1.6911
1.67454
1.65785
1.64104
1.62413
1.60712
1.59002
1.57284
1.55561
1.53841
1.52153
1.1564
1.18967
1.21903
1.24381
1.25668
1.25144
1.23882
1.22725
1.21749
1.20823
1.19952
1.19176
1.1857
1.18226
1.18145
1.18194
1.18178
1.17717
1.17056
1.16602
1.16451
1.16597
1.16958
1.1747
1.18122
1.18913
1.1987
1.21017
1.22264
1.23562
1.24899
1.26263
1.27634
1.28922
1.30097
1.31172
1.32202
1.33358
1.34535
1.35776
1.37419
1.39384
1.41594
1.43978
1.46472
1.49016
1.51552
1.54019
1.55942
1.57402
1.58487
1.59239
1.59719
1.59973
1.60034
1.59924
1.59664
1.59263
1.58745
1.58132
1.5744
1.56687
1.55883
1.55043
1.54174
1.53283
1.52376
1.51456
1.50524
1.49579
1.48623
1.47654
1.46672
1.45689
1.44713
1.20332
1.26226
1.29389
1.31133
1.32329
1.32408
1.31784
1.31101
1.30385
1.29602
1.28756
1.27881
1.27008
1.26149
1.25309
1.24475
1.23549
1.22543
1.21523
1.2056
1.19714
1.19009
1.18443
1.18006
1.17704
1.17587
1.17613
1.17768
1.18035
1.1838
1.18739
1.18904
1.18784
1.18507
1.18202
1.18079
1.18133
1.18253
1.18415
1.18601
1.1882
1.19073
1.19356
1.19665
1.19992
1.20331
1.20674
1.21011
1.21315
1.21581
1.21834
1.22052
1.22227
1.22354
1.22431
1.22457
1.22435
1.22365
1.22251
1.221
1.21917
1.21708
1.21479
1.21236
1.20984
1.20728
1.20471
1.20213
1.19955
1.1969
1.1942
1.19147
1.18868
1.18604
1.18413
1.24398
1.28905
1.34914
1.40083
1.42551
1.42718
1.42179
1.4162
1.41077
1.40392
1.3958
1.38703
1.37804
1.36908
1.36035
1.35188
1.34318
1.33361
1.32425
1.31558
1.30781
1.30102
1.29528
1.29036
1.28607
1.28227
1.27889
1.2758
1.27288
1.27007
1.26718
1.26371
1.25937
1.25426
1.24879
1.24353
1.23875
1.2344
1.23037
1.22657
1.22295
1.21946
1.21607
1.21276
1.20951
1.20631
1.20313
1.19996
1.19655
1.19293
1.18882
1.18388
1.17838
1.17259
1.16666
1.16071
1.15482
1.14903
1.1434
1.13794
1.13289
1.12826
1.12389
1.11978
1.1159
1.11223
1.10873
1.10538
1.10217
1.09906
1.09605
1.09303
1.08992
1.08682
1.08419
1.21343
1.28568
1.52043
1.65472
1.63767
1.63885
1.64061
1.64534
1.65243
1.65547
1.64028
1.62018
1.5999
1.58101
1.56421
1.54951
1.53664
1.52518
1.51488
1.50566
1.49742
1.49005
1.48341
1.4773
1.47154
1.46601
1.46067
1.45545
1.45003
1.44424
1.43834
1.43241
1.42644
1.42037
1.41423
1.40802
1.4017
1.39527
1.38873
1.38208
1.37537
1.36861
1.36179
1.35493
1.34801
1.34103
1.33406
1.32712
1.32019
1.31326
1.30631
1.29933
1.29229
1.28518
1.278
1.27075
1.26342
1.25605
1.24862
1.24117
1.23369
1.2262
1.21874
1.21132
1.20396
1.19668
1.18947
1.18232
1.17525
1.16828
1.1614
1.15463
1.14794
1.14136
1.13493
1.12814
1.57748
1.69004
1.79438
1.88038
1.94787
1.9979
2.03289
2.0535
2.06359
2.06539
2.06055
2.05066
2.03715
2.02095
2.00341
1.98473
1.96566
1.94683
1.92731
1.9072
1.88678
1.86617
1.84548
1.82476
1.80409
1.78352
1.76314
1.74305
1.72339
1.70426
1.68567
1.66766
1.65027
1.63353
1.61747
1.60208
1.58722
1.57283
1.55899
1.54575
1.5331
1.52102
1.50944
1.49831
1.48757
1.47714
1.46698
1.45703
1.44727
1.43764
1.42812
1.41867
1.40926
1.39986
1.39046
1.38101
1.37152
1.36198
1.35239
1.34276
1.33312
1.32348
1.31388
1.30434
1.29489
1.28556
1.27636
1.26731
1.25844
1.24975
1.24125
1.23297
1.22491
1.21708
1.20953
1.20187
0.876047
0.927581
0.97939
1.0318
1.0849
1.13817
1.19093
1.24238
1.29172
1.33815
1.38097
1.41972
1.45415
1.48394
1.50884
1.52922
1.54553
1.55822
1.56848
1.57673
1.58324
1.58831
1.59217
1.59508
1.59723
1.59879
1.59988
1.60056
1.59988
1.59796
1.59495
1.59097
1.58611
1.58049
1.57419
1.56731
1.55993
1.55215
1.54403
1.53565
1.52709
1.51841
1.50968
1.50093
1.49222
1.48356
1.475
1.46653
1.45814
1.44986
1.44169
1.4336
1.42557
1.41755
1.40947
1.40132
1.39304
1.38463
1.37606
1.36736
1.35846
1.34943
1.34036
1.3313
1.32229
1.31338
1.30459
1.29594
1.28746
1.27916
1.27107
1.26319
1.25557
1.24822
1.24118
1.23428
0.56355
0.575632
0.58839
0.601933
0.616327
0.631869
0.64871
0.666912
0.686414
0.707179
0.729056
0.751397
0.773956
0.796452
0.818576
0.840052
0.860638
0.880154
0.898505
0.915613
0.931469
0.946101
0.959566
0.971941
0.983315
0.993776
1.00341
1.01233
1.0214
1.03063
1.04001
1.04954
1.05922
1.06904
1.07899
1.08901
1.09867
1.10777
1.11633
1.12436
1.13187
1.13886
1.14534
1.15131
1.1568
1.16181
1.16638
1.17053
1.17427
1.17762
1.18061
1.18323
1.18551
1.18744
1.18904
1.1903
1.19124
1.19186
1.19217
1.19218
1.19191
1.19138
1.19059
1.18957
1.18836
1.18697
1.18542
1.18375
1.18196
1.18008
1.17812
1.1761
1.17403
1.17194
1.16984
1.16762
0.456941
0.459352
0.461476
0.463943
0.466889
0.470428
0.474535
0.479313
0.484777
0.490949
0.497773
0.505172
0.51308
0.521415
0.530086
0.538994
0.548037
0.557113
0.566126
0.574985
0.583628
0.591989
0.60002
0.607683
0.614961
0.621846
0.628348
0.634531
0.640447
0.646122
0.651559
0.656726
0.661678
0.666461
0.671141
0.676095
0.681508
0.687372
0.693678
0.700414
0.707566
0.71499
0.722578
0.73034
0.738278
0.746392
0.754667
0.763086
0.771626
0.780267
0.788989
0.797783
0.806616
0.815452
0.824256
0.832994
0.841631
0.850135
0.858479
0.866636
0.874585
0.882308
0.889792
0.897023
0.903995
0.910701
0.917142
0.923318
0.929238
0.934916
0.940369
0.945616
0.950684
0.955591
0.960153
0.41015
0.410531
0.410732
0.410855
0.410978
0.411161
0.411448
0.411877
0.412474
0.413263
0.414259
0.415471
0.4169
0.418543
0.420393
0.422436
0.424655
0.427028
0.429532
0.432142
0.434831
0.437574
0.440344
0.443118
0.445874
0.448595
0.451264
0.453861
0.456375
0.458796
0.461114
0.46332
0.465419
0.467433
0.469381
0.471299
0.473224
0.475193
0.47724
0.479399
0.481707
0.484311
0.487325
0.490745
0.49457
0.498786
0.503337
0.508208
0.513406
0.51893
0.52475
0.53078
0.537013
0.543449
0.550081
0.556902
0.5639
0.571061
0.57837
0.585809
0.59336
0.601004
0.60872
0.616489
0.62429
0.632107
0.63992
0.647717
0.655485
0.663216
0.670905
0.678549
0.686148
0.693694
0.701023
0.39103
0.390843
0.390498
0.39004
0.389511
0.388941
0.388356
0.387776
0.387217
0.38669
0.386203
0.385764
0.385376
0.385043
0.384765
0.384543
0.384376
0.384263
0.384201
0.384185
0.384212
0.384276
0.384372
0.384496
0.384643
0.384809
0.384991
0.385184
0.385386
0.385593
0.385802
0.386014
0.38623
0.386454
0.386686
0.386931
0.387198
0.387494
0.38783
0.388217
0.388663
0.389176
0.389783
0.390499
0.391338
0.392322
0.393521
0.394963
0.39665
0.398577
0.400721
0.403071
0.405631
0.408405
0.411393
0.414594
0.418006
0.421625
0.425448
0.429469
0.433682
0.43808
0.442655
0.447397
0.452298
0.457347
0.462537
0.467858
0.473303
0.478864
0.484535
0.490307
0.496163
0.502062
0.507845
0.382793
0.382548
0.382153
0.381639
0.381036
0.380365
0.379647
0.378896
0.378122
0.377335
0.376539
0.375739
0.374936
0.374133
0.373329
0.372525
0.371719
0.37091
0.370099
0.369283
0.368463
0.367636
0.3668
0.365956
0.365103
0.364241
0.363371
0.362495
0.361612
0.360725
0.359835
0.358946
0.358059
0.357179
0.356309
0.355454
0.354618
0.353807
0.353027
0.352284
0.351584
0.350939
0.350346
0.349814
0.349347
0.348954
0.348643
0.348423
0.348306
0.34831
0.348464
0.348776
0.349247
0.349873
0.350653
0.351589
0.352682
0.353931
0.355333
0.35688
0.35856
0.360359
0.362276
0.364307
0.36645
0.368704
0.371067
0.373538
0.376116
0.378801
0.38159
0.38448
0.387464
0.390523
0.393573
0.378389
0.378287
0.378037
0.377663
0.377189
0.376637
0.376022
0.375358
0.374655
0.373921
0.373159
0.372375
0.37157
0.370743
0.369896
0.369027
0.368134
0.367217
0.366273
0.3653
0.364298
0.363265
0.362199
0.3611
0.359966
0.358798
0.357593
0.356353
0.35508
0.353777
0.352446
0.351089
0.349712
0.348316
0.346906
0.345487
0.344065
0.342643
0.341229
0.339828
0.338445
0.337088
0.335761
0.334471
0.333223
0.332023
0.330876
0.329789
0.328766
0.327809
0.326921
0.326107
0.325372
0.324731
0.324193
0.323759
0.323429
0.323201
0.323077
0.323055
0.323136
0.323315
0.323592
0.323963
0.324426
0.324979
0.32562
0.326347
0.327158
0.328052
0.329026
0.330077
0.331198
0.332381
0.333582
0.375495
0.375526
0.375409
0.375168
0.374824
0.374395
0.373898
0.373344
0.372742
0.372102
0.371427
0.370721
0.369987
0.369225
0.368435
0.367616
0.366767
0.365886
0.36497
0.364018
0.363026
0.361994
0.360918
0.359798
0.358631
0.357416
0.356152
0.35484
0.353479
0.35207
0.350613
0.34911
0.347563
0.345975
0.344351
0.342695
0.341012
0.339308
0.337588
0.335858
0.334125
0.332395
0.330675
0.32897
0.327287
0.325631
0.324008
0.322424
0.320882
0.319387
0.317942
0.316552
0.315222
0.313952
0.312742
0.311596
0.310519
0.309515
0.308585
0.307728
0.306945
0.306234
0.305595
0.305027
0.304528
0.304098
0.303733
0.303433
0.303195
0.303019
0.3029
0.302836
0.302822
0.302852
0.302905
0.373793
0.373839
0.373744
0.373527
0.373209
0.372808
0.372337
0.371808
0.37123
0.370612
0.369959
0.369273
0.368558
0.367813
0.367041
0.366239
0.365406
0.36454
0.363638
0.3627
0.361721
0.360699
0.359632
0.358517
0.357352
0.356135
0.354866
0.353543
0.352165
0.350733
0.349248
0.34771
0.34612
0.344481
0.342795
0.341067
0.339302
0.337505
0.335681
0.333838
0.331981
0.330116
0.328251
0.32639
0.324541
0.32271
0.320901
0.31912
0.317373
0.315664
0.313997
0.312375
0.310801
0.309279
0.30781
0.306395
0.305035
0.303731
0.302482
0.30129
0.300155
0.299078
0.298059
0.297096
0.296189
0.295337
0.294537
0.293789
0.29309
0.292439
0.291832
0.291268
0.29074
0.290254
0.289758
0.373117
0.373121
0.372986
0.372734
0.372383
0.371949
0.371447
0.370886
0.370276
0.369625
0.368937
0.368216
0.367465
0.366683
0.365872
0.365031
0.364157
0.363251
0.362309
0.361329
0.360309
0.359246
0.358139
0.356985
0.355783
0.35453
0.353226
0.351871
0.350464
0.349006
0.347497
0.345938
0.344332
0.342679
0.340985
0.339253
0.337489
0.335698
0.333885
0.332057
0.33022
0.32838
0.326544
0.324717
0.322907
0.321118
0.319357
0.317628
0.315937
0.314289
0.312687
0.311135
0.309636
0.308194
0.306808
0.305478
0.304207
0.302995
0.301844
0.300751
0.299717
0.298742
0.297827
0.296969
0.296167
0.295419
0.294724
0.294078
0.29348
0.292927
0.292417
0.291945
0.291506
0.291104
0.290689
0.373264
0.373168
0.37294
0.372598
0.37216
0.371642
0.371057
0.370415
0.369725
0.368994
0.368226
0.367425
0.366592
0.365729
0.364836
0.363911
0.362955
0.361966
0.360942
0.359882
0.358785
0.357648
0.356471
0.355252
0.353991
0.352687
0.35134
0.349951
0.34852
0.347048
0.345536
0.343987
0.342405
0.340794
0.339158
0.337503
0.335834
0.334156
0.332475
0.330798
0.329131
0.327481
0.325853
0.324255
0.322692
0.321169
0.319693
0.318267
0.316898
0.315593
0.314352
0.313176
0.312069
0.311033
0.310073
0.309192
0.308391
0.307671
0.307031
0.30647
0.305987
0.30558
0.305246
0.304983
0.304786
0.304653
0.304579
0.304562
0.304597
0.304682
0.304812
0.304983
0.305188
0.305419
0.305655
0.374377
0.374075
0.373651
0.373124
0.372511
0.371828
0.371086
0.370295
0.369464
0.368599
0.367703
0.366779
0.36583
0.364856
0.363857
0.362833
0.361784
0.360709
0.359607
0.358477
0.35732
0.356133
0.354918
0.353674
0.352399
0.351095
0.349764
0.348409
0.347032
0.345636
0.344227
0.342807
0.341383
0.339959
0.338541
0.337134
0.335745
0.334379
0.333042
0.33174
0.330478
0.329262
0.3281
0.326999
0.325964
0.324995
0.324102
0.323291
0.322566
0.321933
0.3214
0.320972
0.320654
0.320447
0.320351
0.320366
0.320491
0.320723
0.32106
0.321497
0.322031
0.322656
0.323368
0.324162
0.325032
0.325975
0.326987
0.328062
0.329198
0.330389
0.331629
0.332911
0.334225
0.335554
0.336859
0.376606
0.376122
0.375528
0.374842
0.374084
0.373268
0.372406
0.371509
0.370584
0.369636
0.36867
0.367688
0.366693
0.365685
0.364666
0.363635
0.362592
0.361536
0.360469
0.359388
0.358294
0.357187
0.356069
0.354941
0.353807
0.352669
0.351531
0.350396
0.349269
0.348155
0.347059
0.345985
0.34494
0.343929
0.342958
0.342039
0.341173
0.340363
0.339617
0.338941
0.338343
0.33783
0.33741
0.337096
0.33691
0.336866
0.336964
0.337211
0.33761
0.338167
0.338882
0.339758
0.340795
0.34199
0.343343
0.344847
0.346498
0.348286
0.350201
0.352232
0.354364
0.356584
0.358871
0.361217
0.363623
0.36609
0.368617
0.371205
0.373849
0.376542
0.379279
0.382058
0.38487
0.387703
0.390492
0.382062
0.381565
0.380962
0.380278
0.379535
0.378753
0.377945
0.377122
0.376291
0.375459
0.37463
0.373805
0.372987
0.372176
0.371373
0.370577
0.369788
0.369006
0.36823
0.36746
0.366698
0.365946
0.365206
0.364482
0.363779
0.363098
0.362443
0.36182
0.361232
0.360687
0.36019