/*--------------------------------*- C++ -*----------------------------------*\
  =========                 |
  \\      /  F ield         | OpenFOAM: The Open Source CFD Toolbox
   \\    /   O peration     | Website:  https://openfoam.org
    \\  /    A nd           | Version:  13
     \\/     M anipulation  |
\*---------------------------------------------------------------------------*/
FoamFile
{
    format      ascii;
    class       volScalarField;
    location    "800";
    object      nut;
}
// * * * * * * * * * * * * * * * * * * * * * * * * * * * * * * * * * * * * * //

dimensions      [0 2 -1 0 0 0 0];

internalField   nonuniform List<scalar> 
173327
(
0.0184112
0.0183985
0.0183861
0.018374
0.0183621
0.0183506
0.0183393
0.0183284
0.0183178
0.0183074
0.0182974
0.0182875
0.018278
0.0182686
0.0182594
0.0182504
0.0182416
0.0182328
0.0182242
0.0182157
0.0182072
0.0181988
0.0181904
0.018182
0.0181736
0.0181652
0.0181568
0.0181483
0.0181397
0.0181311
0.0181224
0.0181137
0.0181048
0.0180959
0.0180868
0.0180777
0.0180684
0.0180591
0.0180496
0.0180401
0.0180305
0.0180208
0.018011
0.0180012
0.0179913
0.0179813
0.0179713
0.0179613
0.0179512
0.0179412
0.0179311
0.0179211
0.017911
0.0179011
0.0178911
0.0178812
0.0178714
0.0178616
0.0178519
0.0178423
0.0178327
0.0178232
0.0178139
0.0178046
0.0177954
0.0177863
0.0177773
0.0177683
0.0177595
0.0177507
0.017742
0.0177334
0.0177249
0.0177164
0.017708
0.0176996
0.0176918
0.0184133
0.0184007
0.0183883
0.0183762
0.0183645
0.018353
0.0183418
0.018331
0.0183204
0.0183101
0.0183001
0.0182903
0.0182808
0.0182715
0.0182624
0.0182534
0.0182446
0.0182359
0.0182274
0.0182189
0.0182105
0.0182021
0.0181938
0.0181855
0.0181772
0.0181688
0.0181604
0.018152
0.0181435
0.0181349
0.0181263
0.0181176
0.0181088
0.0180999
0.0180909
0.0180819
0.0180727
0.0180634
0.018054
0.0180446
0.018035
0.0180254
0.0180157
0.0180059
0.0179961
0.0179862
0.0179763
0.0179663
0.0179564
0.0179464
0.0179364
0.0179264
0.0179164
0.0179064
0.0178965
0.0178866
0.0178768
0.0178671
0.0178574
0.0178478
0.0178382
0.0178287
0.0178194
0.0178101
0.0178009
0.0177917
0.0177827
0.0177737
0.0177649
0.0177561
0.0177473
0.0177387
0.0177301
0.0177216
0.0177131
0.0177047
0.0176969
0.0184177
0.0184052
0.018393
0.018381
0.0183694
0.018358
0.018347
0.0183363
0.0183258
0.0183157
0.0183058
0.0182962
0.0182868
0.0182776
0.0182686
0.0182597
0.018251
0.0182425
0.018234
0.0182257
0.0182173
0.0182091
0.0182008
0.0181926
0.0181844
0.0181761
0.0181678
0.0181595
0.0181511
0.0181426
0.0181341
0.0181255
0.0181167
0.0181079
0.018099
0.01809
0.0180809
0.0180717
0.0180624
0.018053
0.0180435
0.0180339
0.0180243
0.0180146
0.0180048
0.017995
0.0179851
0.0179752
0.0179652
0.0179553
0.0179453
0.0179353
0.0179253
0.0179154
0.0179055
0.0178956
0.0178858
0.0178761
0.0178664
0.0178567
0.0178472
0.0178377
0.0178283
0.017819
0.0178097
0.0178006
0.0177915
0.0177825
0.0177736
0.0177648
0.017756
0.0177473
0.0177387
0.0177301
0.0177216
0.0177131
0.0177053
0.0184246
0.0184124
0.0184004
0.0183886
0.0183772
0.018366
0.0183552
0.0183447
0.0183344
0.0183245
0.0183148
0.0183053
0.0182961
0.0182871
0.0182782
0.0182695
0.018261
0.0182526
0.0182443
0.018236
0.0182279
0.0182197
0.0182116
0.0182035
0.0181954
0.0181872
0.018179
0.0181708
0.0181625
0.0181541
0.0181457
0.0181371
0.0181285
0.0181198
0.0181109
0.018102
0.018093
0.0180838
0.0180746
0.0180653
0.0180558
0.0180463
0.0180367
0.0180271
0.0180173
0.0180075
0.0179977
0.0179878
0.0179779
0.017968
0.017958
0.0179481
0.0179382
0.0179283
0.0179184
0.0179086
0.0178988
0.017889
0.0178793
0.0178697
0.0178602
0.0178507
0.0178413
0.017832
0.0178228
0.0178137
0.0178046
0.0177956
0.0177867
0.0177779
0.0177691
0.0177604
0.0177518
0.0177432
0.0177347
0.0177262
0.0177184
0.0184346
0.0184226
0.0184109
0.0183995
0.0183883
0.0183775
0.0183669
0.0183566
0.0183467
0.018337
0.0183275
0.0183183
0.0183093
0.0183005
0.0182919
0.0182834
0.0182751
0.0182669
0.0182587
0.0182507
0.0182426
0.0182347
0.0182267
0.0182187
0.0182107
0.0182027
0.0181947
0.0181865
0.0181783
0.0181701
0.0181617
0.0181533
0.0181447
0.0181361
0.0181273
0.0181185
0.0181095
0.0181004
0.0180913
0.018082
0.0180726
0.0180632
0.0180536
0.018044
0.0180343
0.0180246
0.0180148
0.018005
0.0179951
0.0179852
0.0179753
0.0179654
0.0179555
0.0179457
0.0179358
0.017926
0.0179163
0.0179066
0.017897
0.0178874
0.0178779
0.0178685
0.0178591
0.0178498
0.0178407
0.0178316
0.0178225
0.0178136
0.0178047
0.0177959
0.0177872
0.0177785
0.0177699
0.0177614
0.0177529
0.0177445
0.0177367
0.0184482
0.0184366
0.0184253
0.0184143
0.0184035
0.018393
0.0183828
0.0183729
0.0183633
0.0183539
0.0183448
0.0183359
0.0183271
0.0183186
0.0183103
0.0183021
0.018294
0.018286
0.018278
0.0182702
0.0182624
0.0182546
0.0182468
0.018239
0.0182311
0.0182233
0.0182153
0.0182074
0.0181993
0.0181911
0.0181829
0.0181746
0.0181661
0.0181575
0.0181489
0.0181401
0.0181312
0.0181222
0.0181131
0.0181039
0.0180946
0.0180852
0.0180757
0.0180662
0.0180565
0.0180469
0.0180371
0.0180273
0.0180175
0.0180077
0.0179978
0.017988
0.0179782
0.0179683
0.0179586
0.0179488
0.0179391
0.0179295
0.0179199
0.0179104
0.0179009
0.0178915
0.0178822
0.017873
0.0178639
0.0178549
0.0178459
0.017837
0.0178282
0.0178195
0.0178108
0.0178022
0.0177936
0.0177852
0.0177767
0.0177684
0.0177606
0.0184666
0.0184555
0.0184447
0.0184341
0.0184238
0.0184137
0.018404
0.0183945
0.0183853
0.0183763
0.0183675
0.018359
0.0183506
0.0183424
0.0183344
0.0183264
0.0183186
0.0183109
0.0183032
0.0182956
0.018288
0.0182804
0.0182728
0.0182652
0.0182575
0.0182498
0.0182421
0.0182342
0.0182263
0.0182182
0.0182101
0.0182019
0.0181935
0.0181851
0.0181765
0.0181678
0.018159
0.0181501
0.018141
0.0181319
0.0181227
0.0181133
0.0181039
0.0180944
0.0180848
0.0180752
0.0180655
0.0180558
0.018046
0.0180362
0.0180264
0.0180166
0.0180069
0.0179971
0.0179874
0.0179777
0.017968
0.0179584
0.0179489
0.0179395
0.0179301
0.0179208
0.0179115
0.0179024
0.0178933
0.0178844
0.0178755
0.0178666
0.0178579
0.0178492
0.0178406
0.0178321
0.0178236
0.0178152
0.0178068
0.0177985
0.0177908
0.0184913
0.0184808
0.0184705
0.0184605
0.0184507
0.0184412
0.0184319
0.0184229
0.0184142
0.0184056
0.0183973
0.0183892
0.0183812
0.0183733
0.0183656
0.018358
0.0183505
0.0183431
0.0183357
0.0183283
0.0183209
0.0183135
0.0183062
0.0182987
0.0182912
0.0182837
0.0182761
0.0182684
0.0182606
0.0182526
0.0182446
0.0182365
0.0182282
0.0182199
0.0182114
0.0182028
0.018194
0.0181852
0.0181762
0.0181671
0.0181579
0.0181486
0.0181393
0.0181298
0.0181203
0.0181107
0.018101
0.0180914
0.0180816
0.0180719
0.0180622
0.0180524
0.0180427
0.018033
0.0180233
0.0180137
0.0180041
0.0179946
0.0179851
0.0179757
0.0179664
0.0179572
0.017948
0.0179389
0.0179299
0.017921
0.0179122
0.0179034
0.0178948
0.0178862
0.0178776
0.0178692
0.0178607
0.0178524
0.0178441
0.0178359
0.0178282
0.0185246
0.0185148
0.0185052
0.0184958
0.0184866
0.0184777
0.018469
0.0184605
0.0184522
0.0184442
0.0184363
0.0184286
0.018421
0.0184135
0.0184062
0.0183989
0.0183917
0.0183845
0.0183773
0.0183702
0.018363
0.0183559
0.0183487
0.0183414
0.0183341
0.0183267
0.0183192
0.0183116
0.0183039
0.0182961
0.0182881
0.0182801
0.0182719
0.0182636
0.0182551
0.0182466
0.0182379
0.0182291
0.0182201
0.0182111
0.0182019
0.0181927
0.0181833
0.0181739
0.0181644
0.0181548
0.0181452
0.0181356
0.0181259
0.0181162
0.0181065
0.0180968
0.0180871
0.0180774
0.0180678
0.0180582
0.0180487
0.0180392
0.0180298
0.0180205
0.0180112
0.018002
0.0179929
0.0179839
0.017975
0.0179662
0.0179574
0.0179487
0.0179401
0.0179316
0.0179231
0.0179147
0.0179064
0.0178981
0.0178898
0.0178817
0.0178741
0.0185699
0.0185609
0.018552
0.0185433
0.0185347
0.0185264
0.0185183
0.0185103
0.0185026
0.018495
0.0184875
0.0184802
0.018473
0.0184658
0.0184588
0.0184518
0.0184448
0.0184378
0.0184309
0.0184239
0.0184169
0.0184099
0.0184028
0.0183957
0.0183884
0.0183811
0.0183737
0.0183662
0.0183585
0.0183507
0.0183428
0.0183348
0.0183267
0.0183183
0.0183099
0.0183013
0.0182927
0.0182838
0.0182749
0.0182658
0.0182567
0.0182474
0.0182381
0.0182286
0.0182191
0.0182095
0.0181999
0.0181903
0.0181806
0.0181709
0.0181612
0.0181515
0.0181419
0.0181322
0.0181226
0.0181131
0.0181036
0.0180941
0.0180848
0.0180755
0.0180663
0.0180571
0.0180481
0.0180391
0.0180303
0.0180215
0.0180128
0.0180042
0.0179956
0.0179871
0.0179787
0.0179704
0.0179621
0.0179538
0.0179456
0.0179375
0.01793
0.0186317
0.0186235
0.0186153
0.0186073
0.0185994
0.0185916
0.018584
0.0185766
0.0185692
0.018562
0.0185549
0.0185478
0.0185409
0.0185339
0.0185271
0.0185202
0.0185134
0.0185065
0.0184997
0.0184928
0.0184858
0.0184788
0.0184718
0.0184646
0.0184574
0.01845
0.0184426
0.018435
0.0184273
0.0184194
0.0184115
0.0184034
0.0183951
0.0183867
0.0183782
0.0183696
0.0183608
0.0183519
0.0183429
0.0183337
0.0183245
0.0183152
0.0183057
0.0182962
0.0182867
0.018277
0.0182674
0.0182577
0.018248
0.0182382
0.0182285
0.0182188
0.0182091
0.0181995
0.0181899
0.0181803
0.0181708
0.0181614
0.018152
0.0181428
0.0181336
0.0181245
0.0181154
0.0181065
0.0180977
0.0180889
0.0180803
0.0180717
0.0180632
0.0180547
0.0180463
0.018038
0.0180297
0.0180215
0.0180133
0.0180052
0.0179977
0.0187159
0.0187084
0.0187009
0.0186934
0.018686
0.0186787
0.0186714
0.0186642
0.0186571
0.01865
0.018643
0.018636
0.0186291
0.0186222
0.0186152
0.0186083
0.0186014
0.0185944
0.0185875
0.0185804
0.0185733
0.0185661
0.0185589
0.0185515
0.0185441
0.0185365
0.0185289
0.0185211
0.0185132
0.0185051
0.0184969
0.0184886
0.0184801
0.0184716
0.0184628
0.018454
0.018445
0.0184359
0.0184267
0.0184174
0.0184079
0.0183984
0.0183888
0.0183792
0.0183695
0.0183597
0.0183499
0.0183401
0.0183303
0.0183204
0.0183106
0.0183008
0.0182911
0.0182814
0.0182717
0.0182621
0.0182526
0.0182431
0.0182337
0.0182244
0.0182152
0.0182061
0.0181971
0.0181881
0.0181793
0.0181705
0.0181619
0.0181533
0.0181448
0.0181363
0.0181279
0.0181196
0.0181113
0.0181031
0.0180949
0.0180867
0.0180792
0.0188282
0.0188213
0.0188143
0.0188071
0.0187999
0.0187926
0.0187853
0.018778
0.0187707
0.0187634
0.0187562
0.0187489
0.0187416
0.0187343
0.018727
0.0187196
0.0187123
0.0187049
0.0186974
0.0186899
0.0186824
0.0186747
0.018667
0.0186592
0.0186513
0.0186433
0.0186352
0.018627
0.0186186
0.0186101
0.0186015
0.0185928
0.0185839
0.018575
0.0185659
0.0185566
0.0185473
0.0185378
0.0185283
0.0185187
0.0185089
0.0184991
0.0184893
0.0184793
0.0184694
0.0184594
0.0184494
0.0184393
0.0184293
0.0184193
0.0184093
0.0183994
0.0183895
0.0183796
0.0183698
0.0183601
0.0183505
0.0183409
0.0183315
0.0183221
0.0183128
0.0183036
0.0182945
0.0182856
0.0182767
0.0182678
0.0182591
0.0182505
0.0182419
0.0182334
0.018225
0.0182166
0.0182082
0.0181999
0.0181917
0.0181834
0.0181758
0.0189709
0.0189644
0.0189575
0.0189502
0.0189428
0.0189351
0.0189273
0.0189194
0.0189114
0.0189034
0.0188953
0.0188872
0.0188791
0.0188709
0.0188627
0.0188545
0.0188463
0.0188381
0.0188298
0.0188214
0.0188131
0.0188046
0.0187961
0.0187875
0.0187789
0.0187701
0.0187613
0.0187524
0.0187434
0.0187342
0.018725
0.0187156
0.0187062
0.0186966
0.018687
0.0186772
0.0186674
0.0186574
0.0186474
0.0186373
0.0186272
0.0186169
0.0186067
0.0185964
0.018586
0.0185757
0.0185654
0.018555
0.0185447
0.0185345
0.0185242
0.018514
0.0185039
0.0184939
0.0184839
0.018474
0.0184642
0.0184545
0.0184449
0.0184354
0.0184259
0.0184166
0.0184074
0.0183983
0.0183893
0.0183804
0.0183716
0.0183628
0.0183542
0.0183455
0.018337
0.0183285
0.01832
0.0183116
0.0183032
0.0182949
0.0182871
0.0191341
0.0191277
0.0191205
0.0191128
0.0191046
0.019096
0.0190872
0.0190781
0.019069
0.0190597
0.0190503
0.019041
0.0190315
0.0190221
0.0190127
0.0190033
0.0189938
0.0189844
0.018975
0.0189656
0.0189561
0.0189466
0.0189371
0.0189276
0.018918
0.0189084
0.0188987
0.018889
0.0188792
0.0188693
0.0188593
0.0188493
0.0188391
0.018829
0.0188187
0.0188083
0.0187979
0.0187875
0.0187769
0.0187663
0.0187557
0.0187451
0.0187344
0.0187237
0.018713
0.0187023
0.0186916
0.0186809
0.0186703
0.0186598
0.0186492
0.0186388
0.0186284
0.0186181
0.0186079
0.0185978
0.0185878
0.0185779
0.0185681
0.0185584
0.0185489
0.0185394
0.01853
0.0185208
0.0185116
0.0185026
0.0184936
0.0184847
0.0184759
0.0184672
0.0184585
0.0184498
0.0184413
0.0184327
0.0184242
0.0184157
0.0184078
0.0192706
0.0192645
0.0192572
0.019249
0.0192401
0.0192306
0.0192206
0.0192103
0.0191999
0.0191894
0.0191788
0.0191682
0.0191577
0.0191472
0.0191367
0.0191263
0.019116
0.0191057
0.0190955
0.0190853
0.0190752
0.0190651
0.019055
0.019045
0.0190349
0.0190248
0.0190148
0.0190047
0.0189945
0.0189844
0.0189742
0.0189639
0.0189536
0.0189433
0.0189328
0.0189224
0.0189119
0.0189013
0.0188907
0.01888
0.0188693
0.0188586
0.0188479
0.0188372
0.0188264
0.0188157
0.018805
0.0187943
0.0187836
0.018773
0.0187625
0.018752
0.0187416
0.0187313
0.0187211
0.0187109
0.0187009
0.018691
0.0186812
0.0186715
0.0186619
0.0186524
0.018643
0.0186338
0.0186246
0.0186155
0.0186066
0.0185977
0.0185889
0.0185802
0.0185716
0.018563
0.0185544
0.0185459
0.0185375
0.018529
0.0185212
0.01921
0.0192042
0.0191973
0.0191895
0.0191811
0.0191724
0.0191635
0.0191547
0.0191459
0.0191373
0.0191287
0.0191204
0.0191121
0.0191038
0.0190957
0.0190878
0.0190801
0.0190725
0.019065
0.0190575
0.0190502
0.0190429
0.0190357
0.0190284
0.0190211
0.0190138
0.0190065
0.0189991
0.0189917
0.0189842
0.0189765
0.0189688
0.018961
0.018953
0.018945
0.0189368
0.0189285
0.0189201
0.0189116
0.0189029
0.0188942
0.0188853
0.0188764
0.0188674
0.0188583
0.0188491
0.0188399
0.0188307
0.0188214
0.0188121
0.0188028
0.0187936
0.0187843
0.0187751
0.0187659
0.0187568
0.0187478
0.0187388
0.01873
0.0187212
0.0187125
0.0187039
0.0186954
0.018687
0.0186787
0.0186705
0.0186624
0.0186544
0.0186465
0.0186387
0.018631
0.0186233
0.0186157
0.0186081
0.0186006
0.0185932
0.0185864
0.0183547
0.0183574
0.0183614
0.0183666
0.018373
0.0183805
0.0183891
0.0183986
0.0184089
0.0184197
0.0184311
0.0184428
0.0184547
0.0184667
0.0184787
0.0184906
0.0185022
0.0185137
0.0185248
0.0185356
0.018546
0.018556
0.0185654
0.0185743
0.0185828
0.0185907
0.0185982
0.0186051
0.0186116
0.0186175
0.0186229
0.0186277
0.018632
0.0186358
0.0186389
0.0186416
0.0186437
0.0186453
0.0186463
0.0186469
0.0186469
0.0186465
0.0186456
0.0186443
0.0186426
0.0186405
0.018638
0.0186352
0.0186321
0.0186288
0.0186252
0.0186214
0.0186174
0.0186132
0.0186089
0.0186046
0.0186001
0.0185956
0.018591
0.0185865
0.0185819
0.0185774
0.0185729
0.0185685
0.0185641
0.0185597
0.0185555
0.0185513
0.0185472
0.0185432
0.0185393
0.0185354
0.0185316
0.0185278
0.0185241
0.0185205
0.0185174
0.0154816
0.0155393
0.0156034
0.015673
0.015747
0.0158244
0.0159041
0.0159854
0.0160675
0.0161497
0.0162314
0.0163123
0.016392
0.0164702
0.0165467
0.0166212
0.0166938
0.0167642
0.0168324
0.0168985
0.0169625
0.0170242
0.0170838
0.0171411
0.0171962
0.0172491
0.0172999
0.0173484
0.0173948
0.0174391
0.0174814
0.0175215
0.0175597
0.0175959
0.0176302
0.0176626
0.0176931
0.0177219
0.0177489
0.0177743
0.0177982
0.0178206
0.0178415
0.0178611
0.0178794
0.0178965
0.0179125
0.0179275
0.0179414
0.0179545
0.0179667
0.0179782
0.0179889
0.0179991
0.0180088
0.0180179
0.0180267
0.0180351
0.0180432
0.018051
0.0180586
0.0180661
0.0180734
0.0180807
0.0180878
0.0180949
0.018102
0.0181091
0.0181161
0.0181232
0.0181302
0.0181373
0.0181443
0.0181513
0.0181582
0.0181655
0.0105435
0.0106591
0.010789
0.0109311
0.0110835
0.0112439
0.0114104
0.0115816
0.0117559
0.011932
0.0121089
0.0122855
0.0124612
0.0126353
0.0128071
0.0129763
0.0131425
0.0133054
0.0134647
0.0136202
0.0137717
0.0139193
0.0140627
0.0142019
0.0143368
0.0144675
0.0145939
0.014716
0.0148338
0.0149473
0.0150565
0.0151616
0.0152626
0.0153596
0.0154526
0.0155418
0.0156271
0.0157088
0.0157868
0.0158613
0.0159324
0.0160003
0.0160651
0.0161269
0.0161859
0.0162422
0.016296
0.0163474
0.0163966
0.0164438
0.0164891
0.0165326
0.0165746
0.016615
0.0166542
0.0166922
0.0167292
0.0167652
0.0168003
0.0168348
0.0168686
0.0169018
0.0169347
0.0169672
0.0169993
0.0170312
0.0170628
0.0170942
0.0171254
0.0171564
0.0171872
0.0172178
0.0172482
0.0172783
0.0173081
0.0173377
0.00631896
0.00641241
0.00652352
0.00665053
0.00679163
0.00694498
0.00710888
0.00728173
0.00746208
0.0076486
0.00784013
0.00803559
0.00823405
0.00843466
0.00863669
0.00883947
0.0090424
0.00924495
0.00944662
0.00964698
0.00984564
0.0100423
0.0102365
0.010428
0.0106166
0.010802
0.010984
0.0111623
0.0113367
0.0115072
0.0116735
0.0118356
0.0119933
0.0121467
0.0122957
0.0124402
0.0125803
0.0127158
0.0128467
0.0129731
0.0130954
0.0132136
0.0133279
0.0134383
0.0135449
0.0136479
0.0137476
0.0138439
0.0139373
0.0140278
0.0141156
0.014201
0.0142842
0.0143653
0.0144447
0.0145224
0.0145987
0.0146738
0.0147478
0.0148209
0.0148932
0.0149648
0.0150358
0.0151064
0.0151766
0.0152465
0.015316
0.0153852
0.0154541
0.0155228
0.0155911
0.015659
0.0157266
0.0157937
0.0158603
0.0159258
0.00418589
0.00422817
0.00429154
0.00437037
0.00446304
0.00456822
0.00468472
0.00481142
0.0049472
0.00500699
0.00506028
0.00513003
0.00521376
0.00531012
0.00541865
0.00553854
0.00566912
0.00580994
0.00596053
0.00612026
0.00628847
0.00646475
0.00664875
0.00684017
0.00703889
0.00724472
0.00745738
0.007677
0.00790386
0.00813759
0.00837745
0.00862292
0.00887345
0.0091277
0.00937396
0.00953517
0.00969278
0.00984683
0.00999737
0.0101444
0.010288
0.0104283
0.0105653
0.0106991
0.0108299
0.0109577
0.0110826
0.0112049
0.0113247
0.0114421
0.0115573
0.0116706
0.0117821
0.0118919
0.0120004
0.0121076
0.0122138
0.0123191
0.0124238
0.0125279
0.0126317
0.0127351
0.0128384
0.0129417
0.0130449
0.0131482
0.0132515
0.013355
0.0134585
0.0135621
0.0136659
0.0137698
0.0138737
0.0139778
0.0140819
0.014185
0.00367099
0.00361581
0.00345861
0.00329833
0.00317753
0.00311033
0.00311333
0.00313041
0.00315629
0.00319069
0.0032325
0.00328063
0.00335452
0.00345057
0.00355212
0.00365841
0.00376909
0.0038841
0.00400341
0.00412691
0.004254
0.004383
0.00451441
0.00464871
0.0047864
0.00492771
0.00507249
0.00522098
0.00537375
0.00553068
0.00569134
0.00585568
0.00602369
0.00619536
0.00637058
0.00654905
0.00673047
0.00691465
0.00710145
0.00729067
0.00748204
0.00767535
0.00787029
0.00806648
0.00826345
0.00846075
0.00865794
0.00885454
0.00905007
0.00924397
0.00943571
0.0096248
0.0098108
0.00999328
0.0101718
0.010346
0.0105155
0.0106799
0.0108389
0.0109923
0.01114
0.0112817
0.0114176
0.0115475
0.0116574
0.011762
0.0118667
0.0119719
0.0120776
0.0121841
0.0122914
0.0123885
0.0124713
0.0125486
0.0126165
0.0127634
0.00317848
0.00336548
0.00362363
0.00390275
0.00418138
0.00444119
0.00468811
0.00490162
0.00509068
0.00525807
0.00540618
0.00553701
0.00565905
0.00577288
0.00588084
0.00598509
0.00608774
0.00619081
0.00629645
0.00640694
0.00652357
0.00664263
0.006763
0.00688466
0.00700814
0.00713406
0.00725852
0.0073793
0.00749967
0.00762091
0.00774381
0.00786858
0.00799342
0.00811931
0.00824677
0.00837618
0.00850785
0.00864203
0.00877873
0.00891783
0.00905938
0.00920322
0.00934905
0.00949653
0.00964528
0.00979492
0.00994501
0.0100951
0.0102446
0.0103929
0.0105395
0.010684
0.0108258
0.0109646
0.0110997
0.0112307
0.0113572
0.0114788
0.0115951
0.0117058
0.0118107
0.0119096
0.0120024
0.012089
0.0121695
0.0122438
0.012312
0.0123744
0.0124309
0.0124816
0.0125264
0.0125648
0.0125954
0.0126125
0.0126896
0.00912097
0.0108182
0.0119369
0.0131648
0.0131473
0.0132107
0.0134174
0.0135626
0.0137213
0.0138829
0.0140268
0.0139613
0.0135193
0.0129427
0.0123253
0.0117186
0.0111559
0.0106537
0.0102174
0.00984694
0.00975852
0.0100475
0.0102421
0.0103801
0.0104876
0.0105805
0.0106676
0.0107449
0.0108149
0.0108832
0.010954
0.011031
0.0111177
0.0112113
0.0113111
0.011416
0.0115232
0.0116291
0.0117342
0.0118391
0.011945
0.0120522
0.0121606
0.0122704
0.0123817
0.0124945
0.0126089
0.0127245
0.0128418
0.0129594
0.0130767
0.0131936
0.0133096
0.0134242
0.0135371
0.0136478
0.0137557
0.0138607
0.0139621
0.0140598
0.0141534
0.0142426
0.0143274
0.0144074
0.0144827
0.0145533
0.0146192
0.0146804
0.0147371
0.0147891
0.0148358
0.0148765
0.0149083
0.014922
0.0150043
0.0123563
0.0125811
0.0124455
0.0124923
0.0126715
0.0128703
0.0131083
0.0133645
0.0135557
0.0137444
0.0139431
0.0141464
0.014357
0.014572
0.0147859
0.0149933
0.0151888
0.0153688
0.0155359
0.0156957
0.0158477
0.0159871
0.0161176
0.0162539
0.0164274
0.0166511
0.0169101
0.0171327
0.0172563
0.0162438
0.0152141
0.0143754
0.0141429
0.0143592
0.014523
0.0146512
0.0147558
0.0148368
0.0148997
0.0149514
0.0150005
0.0150522
0.0151089
0.0151719
0.0152417
0.0153188
0.0154029
0.0154942
0.0155913
0.0156934
0.0157994
0.0159079
0.016018
0.0161292
0.0162411
0.0163532
0.0164653
0.0165769
0.0166875
0.0167969
0.016905
0.0170117
0.0171172
0.0172212
0.0173238
0.0174253
0.0175256
0.0176246
0.0177221
0.0178176
0.0179104
0.017999
0.0180792
0.0181357
0.0182825
0.00965976
0.00988672
0.0101323
0.0104299
0.010746
0.0110171
0.0112749
0.011523
0.0117766
0.0120319
0.0122905
0.0125552
0.0128306
0.0131232
0.0134318
0.0137448
0.0140479
0.0143217
0.0145768
0.0148337
0.0150974
0.0153687
0.015642
0.0159137
0.0161844
0.0164557
0.0167293
0.0170029
0.0172665
0.0175147
0.0177454
0.0179587
0.0181546
0.0183301
0.0184865
0.018627
0.0187531
0.018852
0.0189227
0.0189789
0.0190473
0.0191275
0.0192188
0.0193202
0.0194304
0.019548
0.0196714
0.0195657
0.0195684
0.0197009
0.0198173
0.0199234
0.0200254
0.0201266
0.0202285
0.0203321
0.0204372
0.0205417
0.0206473
0.020734
0.0207954
0.020854
0.0209097
0.0209623
0.0210116
0.0210574
0.0210991
0.0211363
0.0211686
0.0211954
0.0212166
0.0212318
0.0212409
0.0212451
0.0212452
0.00819382
0.00862999
0.00899903
0.00936369
0.00974358
0.0100645
0.010352
0.010631
0.0109046
0.0111722
0.0114348
0.0116944
0.0119525
0.0122099
0.0124666
0.012721
0.0129663
0.0132032
0.0134359
0.013669
0.0139067
0.0141509
0.0144014
0.0146578
0.0149203
0.0151921
0.0154692
0.0157498
0.0160315
0.0163111
0.0165832
0.0168346
0.0170612
0.0172709
0.0174714
0.017675
0.0178803
0.0180798
0.0182721
0.0184567
0.0186354
0.0188096
0.0189798
0.0191465
0.01931
0.0194705
0.0196279
0.019782
0.019931
0.0200747
0.0202122
0.0203431
0.0204678
0.0205867
0.0207004
0.0208093
0.0209139
0.0210144
0.0211112
0.0212048
0.0212955
0.0213837
0.0214697
0.0215538
0.0216359
0.0217162
0.0217943
0.0218699
0.0219425
0.022011
0.0220752
0.0221343
0.0221877
0.0222365
0.0222833
0.00731413
0.00765879
0.0080314
0.00824973
0.00892565
0.00938486
0.00967028
0.00994568
0.0102171
0.0104807
0.0107377
0.0109905
0.0112407
0.011489
0.0117357
0.0119807
0.0122212
0.012455
0.0126862
0.0129166
0.0131473
0.0133786
0.0136106
0.013842
0.0140719
0.0142998
0.0145255
0.0147485
0.0149685
0.0151853
0.0153975
0.0156007
0.0157928
0.0159747
0.0161501
0.0163247
0.0165002
0.016676
0.0168513
0.0170252
0.0171973
0.0173673
0.0175351
0.0177005
0.0178635
0.0180241
0.0181823
0.018338
0.0184897
0.0186378
0.0187806
0.0189159
0.0190456
0.0191714
0.0192944
0.0194151
0.0195343
0.0196522
0.0197692
0.0198854
0.0200025
0.0201208
0.0202391
0.0203576
0.0204764
0.0205952
0.0207137
0.0208321
0.0209499
0.0210671
0.0211834
0.021298
0.0214101
0.0215208
0.0216309
0.00765059
0.00832911
0.00876725
0.00917142
0.00921811
0.00935405
0.00952298
0.0096955
0.00988498
0.010075
0.0102364
0.0103967
0.0105694
0.0107565
0.0109577
0.0111707
0.0113927
0.0116208
0.0118523
0.0120851
0.0123176
0.0125484
0.0127763
0.0129999
0.013218
0.0134299
0.0136358
0.0138358
0.014029
0.0142155
0.0143968
0.0145736
0.0147461
0.0149142
0.0150785
0.0152392
0.0153967
0.0155514
0.0157037
0.015854
0.0160027
0.0161501
0.0162964
0.0164417
0.016586
0.0167294
0.0168724
0.0170155
0.0171583
0.0173006
0.0174421
0.0175825
0.0177215
0.0178588
0.0179943
0.0181278
0.0182593
0.0183888
0.0185163
0.0186417
0.0187652
0.018887
0.0190071
0.0191258
0.0192433
0.0193599
0.0194755
0.0195901
0.0197039
0.0198171
0.0199297
0.0200417
0.0201533
0.0202644
0.0203756
0.0204807
0.00329144
0.00372018
0.00424577
0.00482606
0.00536807
0.0059315
0.00648949
0.00702994
0.00753818
0.00803203
0.00851061
0.00896827
0.00938474
0.00974812
0.0100925
0.0104189
0.0107301
0.0110293
0.0113099
0.0115714
0.0118155
0.0120434
0.0122566
0.0124562
0.0126438
0.0128205
0.0129879
0.0131475
0.0133013
0.0134504
0.0135957
0.013738
0.0138779
0.0140164
0.0141543
0.0142919
0.0144291
0.0145663
0.014704
0.0148429
0.014983
0.0151247
0.0152678
0.0154122
0.0155577
0.0157039
0.0158508
0.0159982
0.0161459
0.0162936
0.0164412
0.0165883
0.0167347
0.01688
0.0170238
0.0171656
0.017305
0.017442
0.0175762
0.0177075
0.0178361
0.0179621
0.0180856
0.0182068
0.018326
0.0184433
0.0185589
0.0186732
0.0187863
0.0188984
0.0190097
0.0191205
0.0192309
0.0193414
0.0194522
0.0195587
0.00483888
0.00454863
0.00443387
0.00443532
0.00450984
0.00464112
0.00481593
0.00502649
0.00526893
0.00553843
0.00582776
0.00612968
0.00643762
0.00674465
0.00704408
0.00733198
0.00760683
0.00786725
0.00812346
0.00837995
0.00863486
0.00888715
0.00913639
0.00938202
0.00962366
0.00986121
0.010095
0.0103239
0.0105467
0.0107631
0.0109748
0.0111825
0.0113862
0.0115862
0.0117837
0.0119799
0.0121725
0.0123622
0.0125493
0.0127342
0.0129174
0.0130997
0.0132819
0.0134646
0.0136484
0.0138335
0.0140201
0.0142147
0.0144127
0.0146109
0.0148101
0.0150109
0.0152134
0.0154175
0.015623
0.0158292
0.0160359
0.0162428
0.0164503
0.0166577
0.016863
0.0170671
0.0172424
0.017379
0.0175121
0.0176421
0.0177694
0.0178944
0.0180172
0.0181381
0.0182574
0.0183753
0.0184921
0.018608
0.0187235
0.0188355
0.00935774
0.00912303
0.00896119
0.00854129
0.00797358
0.00757195
0.00728544
0.00707751
0.00694118
0.00683467
0.00678869
0.0068624
0.00695948
0.00707996
0.0072231
0.00738454
0.00755893
0.00774225
0.00791899
0.0080857
0.00824235
0.00838786
0.00852138
0.00864265
0.00875179
0.00885155
0.00894181
0.00902264
0.00911224
0.00920989
0.00931578
0.00942968
0.0095509
0.00967917
0.00981481
0.00995721
0.0101048
0.0102555
0.0104095
0.010567
0.0107277
0.010892
0.0110584
0.0112271
0.0113979
0.0115704
0.0117449
0.0119218
0.0121012
0.0122832
0.0124681
0.0126558
0.0128465
0.0130404
0.0132374
0.0134375
0.0136408
0.0138469
0.0140557
0.014267
0.0144808
0.0146969
0.0149208
0.0151491
0.0153787
0.0156096
0.0158422
0.0160765
0.0163124
0.0165497
0.0167879
0.017026
0.0172628
0.0174922
0.0177028
0.0179858
0.0134413
0.0132039
0.0129939
0.0128082
0.0126392
0.0124825
0.0123341
0.0121933
0.0120595
0.0119329
0.0118143
0.0117044
0.0116044
0.0115155
0.0114383
0.0113734
0.011321
0.0112809
0.0112528
0.0112363
0.011231
0.0112362
0.0112514
0.0112761
0.0113096
0.0113515
0.0114013
0.011459
0.0115244
0.011597
0.0116759
0.0117575
0.0117006
0.0116357
0.0115646
0.0115031
0.0114548
0.0114206
0.0114009
0.0113958
0.0114035
0.0114227
0.0114517
0.0114906
0.0115398
0.0115991
0.0116685
0.0117478
0.0118366
0.0119345
0.0120413
0.0121569
0.0122806
0.0124118
0.0125501
0.0126951
0.0128462
0.0130029
0.0131646
0.0133311
0.0135018
0.0136764
0.0138542
0.0140345
0.0142167
0.0144004
0.0145848
0.0147696
0.014954
0.0151369
0.0153171
0.0154933
0.0156637
0.0158294
0.0160881
0.0167868
0.0166298
0.0164792
0.0163333
0.01619
0.016048
0.0159063
0.0157641
0.0156213
0.0154781
0.015335
0.0151927
0.015052
0.014914
0.0147799
0.0146508
0.0145276
0.0144114
0.0143029
0.0142029
0.0141119
0.0140302
0.0139583
0.0138962
0.0138439
0.0138015
0.0137688
0.0137454
0.0137312
0.0137259
0.013729
0.0137402
0.0137591
0.0137853
0.0138184
0.0138583
0.0139047
0.0139576
0.014017
0.0140826
0.0141542
0.0142303
0.0143093
0.014391
0.0144752
0.014562
0.014652
0.0147453
0.0148417
0.014941
0.0150425
0.0151251
0.0150836
0.0150497
0.0150237
0.0150057
0.0149956
0.0149935
0.0149992
0.0150123
0.0150324
0.0150595
0.0150932
0.0151329
0.0151779
0.0152275
0.0152809
0.0153373
0.0153957
0.0154556
0.0155163
0.015578
0.015643
0.0157235
0.0158615
0.0186273
0.0185491
0.0184697
0.0183891
0.0183069
0.0182229
0.018137
0.018049
0.0179588
0.0178664
0.0177719
0.0176755
0.0175775
0.0174782
0.0173779
0.0172773
0.0171767
0.0170769
0.0169783
0.0168816
0.0167873
0.0166961
0.0166085
0.016525
0.016446
0.0163721
0.0163034
0.0162402
0.0161829
0.0161314
0.0160858
0.0160463
0.0160129
0.0159854
0.0159639
0.0159481
0.015938
0.0159335
0.0159345
0.015941
0.0159528
0.0159696
0.0159911
0.016017
0.0160472
0.0160816
0.0161185
0.0161576
0.0161989
0.0162425
0.0162889
0.016338
0.0163898
0.0164442
0.016501
0.0165604
0.0166221
0.0166861
0.0167525
0.0168211
0.0168919
0.0169649
0.01704
0.0171171
0.0171964
0.0172776
0.0173607
0.0174458
0.0175329
0.0176218
0.0177125
0.017805
0.017899
0.0179937
0.0180862
0.0194131
0.019384
0.0193516
0.0193165
0.0192791
0.0192394
0.0191978
0.0191544
0.0191092
0.0190623
0.0190139
0.0189638
0.0189122
0.0188591
0.0188046
0.0187488
0.0186918
0.0186337
0.0185747
0.018515
0.0184549
0.0183945
0.018334
0.0182737
0.018214
0.018155
0.0180972
0.0180406
0.0179856
0.0179324
0.0178812
0.0178323
0.0177858
0.0177419
0.0177007
0.0176624
0.017627
0.0175946
0.0175653
0.0175391
0.0175162
0.0174966
0.0174801
0.0174669
0.0174568
0.0174499
0.0174463
0.0174459
0.0174485
0.0174539
0.0174613
0.0174707
0.0174821
0.0174958
0.0175121
0.017531
0.0175526
0.0175768
0.0176036
0.017633
0.0176648
0.0176989
0.0177353
0.0177739
0.0178148
0.0178581
0.0179036
0.0179514
0.0180015
0.018054
0.0181088
0.0181658
0.018225
0.0182862
0.0183471
0.0195438
0.0195431
0.0195387
0.0195312
0.0195212
0.0195092
0.0194954
0.01948
0.0194634
0.0194457
0.0194268
0.0194069
0.019386
0.0193641
0.0193411
0.0193171
0.0192919
0.0192657
0.0192383
0.0192097
0.01918
0.0191491
0.0191171
0.0190841
0.01905
0.0190149
0.0189789
0.0189421
0.0189047
0.0188667
0.0188284
0.0187898
0.0187512
0.0187126
0.0186743
0.0186364
0.0185991
0.0185624
0.0185267
0.0184921
0.0184587
0.0184266
0.0183961
0.0183672
0.01834
0.0183148
0.0182915
0.0182704
0.0182515
0.0182348
0.0182202
0.018208
0.018198
0.0181899
0.0181836
0.018179
0.0181763
0.0181755
0.0181767
0.0181798
0.0181848
0.0181918
0.0182006
0.0182113
0.0182238
0.0182382
0.0182545
0.0182727
0.0182929
0.018315
0.0183391
0.0183652
0.0183932
0.0184232
0.0184538
0.0193413
0.0193529
0.019361
0.0193664
0.0193694
0.0193706
0.0193703
0.0193689
0.0193665
0.0193633
0.0193594
0.019355
0.01935
0.0193444
0.0193382
0.0193313
0.0193237
0.0193153
0.0193059
0.0192956
0.0192842
0.0192717
0.0192579
0.0192428
0.0192264
0.0192085
0.0191892
0.0191685
0.0191463
0.0191227
0.0190977
0.0190713
0.0190436
0.0190147
0.0189847
0.0189539
0.0189222
0.0188899
0.0188572
0.0188241
0.018791
0.0187579