/*--------------------------------*- C++ -*----------------------------------*\
  =========                 |
  \\      /  F ield         | OpenFOAM: The Open Source CFD Toolbox
   \\    /   O peration     | Website:  https://openfoam.org
    \\  /    A nd           | Version:  13
     \\/     M anipulation  |
\*---------------------------------------------------------------------------*/
FoamFile
{
    format      ascii;
    class       volScalarField;
    location    "800";
    object      omega;
}
// * * * * * * * * * * * * * * * * * * * * * * * * * * * * * * * * * * * * * //

dimensions      [0 0 -1 0 0 0 0];

internalField   nonuniform List<scalar> 
173327
(
14.9461
14.8913
14.8371
14.7836
14.7307
14.6783
14.6266
14.5755
14.5249
14.475
14.4255
14.3765
14.3281
14.2801
14.2325
14.1853
14.1386
14.0921
14.046
14.0003
13.9548
13.9096
13.8646
13.8198
13.7753
13.731
13.6868
13.6429
13.599
13.5554
13.5119
13.4685
13.4253
13.3821
13.3391
13.2962
13.2534
13.2108
13.1682
13.1258
13.0835
13.0413
12.9993
12.9574
12.9156
12.874
12.8326
12.7913
12.7502
12.7093
12.6686
12.6281
12.5878
12.5477
12.5079
12.4683
12.4289
12.3898
12.351
12.3124
12.2741
12.2361
12.1983
12.1609
12.1237
12.0867
12.0501
12.0137
11.9777
11.9418
11.9063
11.871
11.836
11.8012
11.7666
11.7323
11.6986
14.9478
14.8931
14.839
14.7855
14.7326
14.6804
14.6287
14.5776
14.5272
14.4772
14.4278
14.3789
14.3305
14.2825
14.235
14.1879
14.1412
14.0948
14.0487
14.003
13.9576
13.9124
13.8675
13.8228
13.7783
13.7341
13.69
13.6461
13.6023
13.5587
13.5153
13.472
13.4288
13.3857
13.3428
13.3
13.2572
13.2147
13.1722
13.1298
13.0876
13.0455
13.0035
12.9617
12.92
12.8784
12.837
12.7958
12.7547
12.7138
12.6731
12.6326
12.5923
12.5522
12.5123
12.4727
12.4333
12.3941
12.3552
12.3166
12.2782
12.2401
12.2023
12.1647
12.1274
12.0904
12.0537
12.0172
11.981
11.9451
11.9095
11.8741
11.839
11.8041
11.7695
11.7351
11.7014
14.9515
14.897
14.843
14.7896
14.7368
14.6847
14.6331
14.5822
14.5318
14.4819
14.4326
14.3838
14.3355
14.2876
14.2402
14.1931
14.1465
14.1002
14.0542
14.0085
13.9631
13.918
13.8732
13.8286
13.7841
13.7399
13.6959
13.652
13.6083
13.5648
13.5214
13.4781
13.435
13.3919
13.349
13.3062
13.2636
13.221
13.1785
13.1362
13.094
13.0519
13.0099
12.9681
12.9264
12.8848
12.8434
12.8022
12.7611
12.7202
12.6795
12.6389
12.5986
12.5585
12.5186
12.4789
12.4394
12.4002
12.3613
12.3226
12.2841
12.246
12.2081
12.1704
12.133
12.0959
12.0591
12.0226
11.9863
11.9503
11.9145
11.879
11.8438
11.8089
11.7741
11.7397
11.7058
14.9573
14.9029
14.8491
14.7959
14.7433
14.6913
14.64
14.5892
14.5389
14.4892
14.4401
14.3914
14.3432
14.2954
14.2481
14.2012
14.1546
14.1084
14.0625
14.0169
13.9716
13.9265
13.8817
13.8371
13.7927
13.7486
13.7046
13.6607
13.6171
13.5735
13.5302
13.4869
13.4438
13.4008
13.3579
13.3151
13.2724
13.2298
13.1874
13.1451
13.1028
13.0607
13.0187
12.9769
12.9352
12.8936
12.8522
12.8109
12.7698
12.7288
12.6881
12.6475
12.6072
12.567
12.527
12.4873
12.4478
12.4086
12.3696
12.3309
12.2924
12.2542
12.2162
12.1785
12.1411
12.104
12.0671
12.0305
11.9942
11.9581
11.9223
11.8868
11.8515
11.8165
11.7817
11.7472
11.7133
14.9655
14.9114
14.8579
14.805
14.7526
14.7009
14.6497
14.5991
14.5491
14.4996
14.4506
14.4021
14.3541
14.3065
14.2593
14.2125
14.166
14.1199
14.0741
14.0286
13.9834
13.9384
13.8936
13.8491
13.8048
13.7606
13.7167
13.6729
13.6292
13.5857
13.5423
13.4991
13.4559
13.4129
13.37
13.3272
13.2845
13.2419
13.1995
13.1571
13.1148
13.0727
13.0307
12.9888
12.947
12.9054
12.8639
12.8226
12.7815
12.7405
12.6997
12.6591
12.6186
12.5784
12.5384
12.4987
12.4591
12.4199
12.3808
12.342
12.3035
12.2652
12.2272
12.1895
12.152
12.1148
12.0779
12.0413
12.0049
11.9688
11.933
11.8974
11.8621
11.827
11.7922
11.7577
11.7237
14.9769
14.9232
14.87
14.8173
14.7653
14.7139
14.663
14.6127
14.5629
14.5137
14.4649
14.4166
14.3688
14.3214
14.2743
14.2277
14.1814
14.1354
14.0897
14.0443
13.9991
13.9542
13.9095
13.865
13.8207
13.7766
13.7327
13.6889
13.6452
13.6017
13.5583
13.5151
13.4719
13.4289
13.3859
13.3431
13.3004
13.2577
13.2152
13.1728
13.1305
13.0883
13.0462
13.0042
12.9624
12.9207
12.8792
12.8378
12.7966
12.7555
12.7147
12.674
12.6335
12.5932
12.5532
12.5133
12.4737
12.4344
12.3953
12.3564
12.3178
12.2795
12.2415
12.2037
12.1662
12.1289
12.092
12.0553
12.0189
11.9827
11.9468
11.9112
11.8759
11.8408
11.8059
11.7713
11.7373
14.9924
14.939
14.8862
14.834
14.7823
14.7312
14.6807
14.6307
14.5812
14.5323
14.4838
14.4357
14.3881
14.3409
14.294
14.2475
14.2014
14.1555
14.1099
14.0646
14.0195
13.9747
13.93
13.8856
13.8413
13.7972
13.7533
13.7095
13.6658
13.6223
13.5789
13.5356
13.4924
13.4493
13.4063
13.3634
13.3206
13.2779
13.2353
13.1928
13.1504
13.1081
13.066
13.0239
12.982
12.9402
12.8986
12.8571
12.8158
12.7746
12.7337
12.6929
12.6523
12.612
12.5718
12.5319
12.4922
12.4528
12.4136
12.3747
12.336
12.2976
12.2595
12.2216
12.184
12.1467
12.1097
12.073
12.0365
12.0003
11.9643
11.9287
11.8933
11.8581
11.8232
11.7885
11.7545
15.0131
14.9602
14.9079
14.8561
14.8049
14.7542
14.7041
14.6544
14.6053
14.5566
14.5084
14.4606
14.4132
14.3662
14.3195
14.2732
14.2271
14.1814
14.1359
14.0906
14.0456
14.0008
13.9562
13.9118
13.8675
13.8234
13.7795
13.7356
13.6919
13.6483
13.6048
13.5615
13.5182
13.475
13.4319
13.3889
13.346
13.3032
13.2605
13.2179
13.1754
13.133
13.0907
13.0485
13.0065
12.9646
12.9228
12.8812
12.8398
12.7985
12.7574
12.7165
12.6758
12.6353
12.5951
12.555
12.5152
12.4757
12.4364
12.3974
12.3586
12.3201
12.2819
12.2439
12.2063
12.1689
12.1318
12.0949
12.0584
12.0221
11.986
11.9503
11.9148
11.8796
11.8446
11.8099
11.7758
15.0411
14.9887
14.9369
14.8856
14.8349
14.7846
14.7349
14.6856
14.6368
14.5884
14.5404
14.4929
14.4457
14.3988
14.3523
14.3061
14.2601
14.2144
14.169
14.1238
14.0788
14.034
13.9893
13.9449
13.9005
13.8564
13.8123
13.7684
13.7246
13.6809
13.6373
13.5938
13.5504
13.5071
13.4638
13.4207
13.3776
13.3347
13.2918
13.249
13.2063
13.1638
13.1213
13.079
13.0368
12.9947
12.9527
12.911
12.8694
12.8279
12.7867
12.7456
12.7048
12.6641
12.6237
12.5835
12.5436
12.5039
12.4645
12.4253
12.3864
12.3478
12.3094
12.2713
12.2335
12.196
12.1588
12.1218
12.0852
12.0488
12.0127
11.9768
11.9412
11.9059
11.8708
11.836
11.8018
15.0789
15.0271
14.9759
14.9251
14.8748
14.8249
14.7755
14.7265
14.678
14.6299
14.5821
14.5347
14.4876
14.4409
14.3944
14.3482
14.3023
14.2566
14.2111
14.1658
14.1207
14.0758
14.0311
13.9865
13.942
13.8977
13.8535
13.8094
13.7654
13.7215
13.6777
13.634
13.5904
13.5468
13.5034
13.46
13.4167
13.3735
13.3304
13.2874
13.2445
13.2016
13.1589
13.1164
13.0739
13.0316
12.9895
12.9475
12.9056
12.864
12.8225
12.7812
12.7401
12.6993
12.6587
12.6183
12.5782
12.5383
12.4987
12.4593
12.4202
12.3814
12.3429
12.3047
12.2667
12.2291
12.1917
12.1546
12.1178
12.0812
12.045
12.009
11.9733
11.9378
11.9026
11.8676
11.8333
15.1305
15.0793
15.0285
14.9781
14.9281
14.8786
14.8294
14.7807
14.7323
14.6842
14.6365
14.5891
14.542
14.4951
14.4486
14.4022
14.3562
14.3103
14.2646
14.2191
14.1738
14.1286
14.0836
14.0387
13.994
13.9493
13.9048
13.8604
13.8161
13.7719
13.7278
13.6837
13.6398
13.5959
13.5521
13.5084
13.4647
13.4212
13.3778
13.3344
13.2911
13.248
13.205
13.1621
13.1193
13.0767
13.0342
12.9919
12.9498
12.9078
12.8661
12.8245
12.7832
12.742
12.7012
12.6605
12.6201
12.58
12.5401
12.5006
12.4613
12.4222
12.3835
12.3451
12.3069
12.269
12.2315
12.1942
12.1572
12.1204
12.084
12.0478
12.0119
11.9763
11.9409
11.9058
11.8713
15.2017
15.1509
15.1004
15.0503
15.0004
14.9509
14.9017
14.8528
14.8043
14.756
14.708
14.6603
14.6129
14.5657
14.5187
14.472
14.4254
14.3791
14.3329
14.2869
14.2411
14.1954
14.1499
14.1045
14.0593
14.0141
13.9691
13.9241
13.8793
13.8346
13.7899
13.7453
13.7009
13.6565
13.6122
13.5679
13.5238
13.4798
13.4359
13.392
13.3483
13.3047
13.2612
13.2179
13.1746
13.1316
13.0887
13.046
13.0034
12.9611
12.9189
12.877
12.8353
12.7938
12.7526
12.7116
12.6709
12.6304
12.5903
12.5504
12.5108
12.4714
12.4324
12.3937
12.3553
12.3172
12.2793
12.2418
12.2045
12.1676
12.1309
12.0945
12.0583
12.0224
11.9868
11.9514
11.9167
15.3019
15.2512
15.2006
15.1502
15.1
15.05
15.0003
14.9507
14.9015
14.8524
14.8036
14.7551
14.7067
14.6586
14.6107
14.5631
14.5156
14.4683
14.4212
14.3743
14.3275
14.2809
14.2345
14.1882
14.142
14.096
14.0501
14.0043
13.9586
13.913
13.8676
13.8222
13.7769
13.7318
13.6867
13.6417
13.5969
13.5521
13.5075
13.463
13.4186
13.3743
13.3302
13.2862
13.2424
13.1987
13.1552
13.1119
13.0688
13.026
12.9833
12.9408
12.8986
12.8567
12.815
12.7735
12.7324
12.6915
12.6509
12.6106
12.5706
12.5309
12.4915
12.4524
12.4136
12.3752
12.337
12.2991
12.2615
12.2242
12.1872
12.1505
12.114
12.0778
12.0419
12.0062
11.9711
15.4474
15.3962
15.3448
15.2933
15.2418
15.1904
15.139
15.0879
15.0368
14.986
14.9354
14.885
14.8348
14.7848
14.7351
14.6856
14.6363
14.5873
14.5385
14.4898
14.4414
14.3932
14.3451
14.2973
14.2496
14.2021
14.1547
14.1075
14.0605
14.0136
13.9668
13.9202
13.8737
13.8273
13.781
13.7349
13.689
13.6432
13.5975
13.5519
13.5065
13.4613
13.4163
13.3714
13.3267
13.2822
13.2379
13.1938
13.1499
13.1062
13.0628
13.0197
12.9768
12.9342
12.8918
12.8498
12.808
12.7665
12.7253
12.6845
12.6439
12.6037
12.5638
12.5242
12.4849
12.4459
12.4073
12.3689
12.3309
12.2931
12.2556
12.2184
12.1815
12.1449
12.1085
12.0724
12.0369
15.6718
15.6188
15.565
15.5108
15.4563
15.4016
15.3467
15.2919
15.2372
15.1827
15.1283
15.0742
15.0203
14.9667
14.9134
14.8604
14.8078
14.7554
14.7034
14.6516
14.6001
14.549
14.4981
14.4475
14.3972
14.3471
14.2972
14.2476
14.1983
14.1491
14.1002
14.0515
14.003
13.9546
13.9065
13.8586
13.8109
13.7634
13.716
13.6689
13.622
13.5753
13.5288
13.4825
13.4365
13.3907
13.3452
13.2998
13.2548
13.21
13.1655
13.1213
13.0774
13.0338
12.9905
12.9475
12.9048
12.8624
12.8204
12.7787
12.7373
12.6963
12.6556
12.6152
12.5752
12.5355
12.4961
12.457
12.4182
12.3798
12.3416
12.3037
12.2661
12.2288
12.1917
12.1549
12.1188
16.0532
15.9962
15.9374
15.8774
15.8164
15.7548
15.6926
15.6302
15.5677
15.5055
15.4434
15.3817
15.3203
15.2594
15.199
15.1391
15.0797
15.0208
14.9624
14.9045
14.8472
14.7903
14.734
14.6781
14.6227
14.5677
14.5132
14.459
14.4053
14.352
14.2991
14.2465
14.1943
14.1424
14.0909
14.0397
13.9889
13.9383
13.8881
13.8382
13.7886
13.7393
13.6904
13.6417
13.5934
13.5454
13.4978
13.4504
13.4034
13.3567
13.3104
13.2644
13.2188
13.1735
13.1285
13.084
13.0397
12.9959
12.9524
12.9093
12.8665
12.8241
12.782
12.7403
12.699
12.658
12.6173
12.577
12.537
12.4973
12.4579
12.4188
12.38
12.3415
12.3032
12.2653
12.228
16.8167
16.7496
16.6785
16.6044
16.5278
16.4497
16.3704
16.2905
16.2104
16.1304
16.0508
15.9718
15.8934
15.8156
15.7388
15.663
15.5883
15.5146
15.4419
15.3703
15.2997
15.2302
15.1616
15.094
15.0274
14.9617
14.8968
14.8329
14.7697
14.7074
14.6458
14.5849
14.5248
14.4654
14.4067
14.3486
14.2911
14.2342
14.178
14.1223
14.0672
14.0127
13.9586
13.9052
13.8522
13.7997
13.7478
13.6963
13.6454
13.5949
13.5449
13.4953
13.4463
13.3976
13.3495
13.3018
13.2545
13.2076
13.1612
13.1152
13.0697
13.0245
12.9797
12.9354
12.8914
12.8478
12.8045
12.7616
12.7191
12.6769
12.6351
12.5935
12.5523
12.5114
12.4708
12.4304
12.3908
18.6956
18.5939
18.4823
18.3632
18.2386
18.1103
17.9798
17.8482
17.7165
17.5855
17.4558
17.3278
17.2017
17.078
16.9566
16.8378
16.7217
16.6082
16.4973
16.3891
16.2835
16.1805
16.0798
15.9814
15.8854
15.7916
15.7001
15.6107
15.5234
15.438
15.3546
15.2729
15.193
15.1148
15.0382
14.9631
14.8895
14.8173
14.7465
14.677
14.6086
14.5415
14.4755
14.4106
14.3467
14.2839
14.222
14.161
14.1009
14.0416
13.9832
13.9255
13.8686
13.8124
13.7569
13.702
13.6478
13.5942
13.5412
13.4887
13.4368
13.3855
13.3346
13.2842
13.2343
13.1848
13.1358
13.0872
13.039
12.9912
12.9438
12.8968
12.8501
12.8039
12.7579
12.7123
12.6676
23.7716
23.5009
23.2129
22.9133
22.6072
22.2986
21.9909
21.6865
21.3874
21.0948
20.8098
20.5333
20.2656
20.0067
19.7567
19.5157
19.2835
19.0598
18.8445
18.6373
18.4378
18.2458
18.061
17.8832
17.712
17.5472
17.3885
17.2356
17.0883
16.9462
16.8092
16.677
16.5493
16.426
16.3068
16.1914
16.0797
15.9714
15.8664
15.7646
15.6657
15.5696
15.4762
15.3852
15.2967
15.2103
15.126
15.0436
14.9631
14.8843
14.8071
14.7314
14.6571
14.5842
14.5124
14.4419
14.3724
14.3039
14.2364
14.1697
14.1039
14.0389
13.9745
13.9109
13.848
13.7857
13.724
13.6628
13.6022
13.5422
13.4826
13.4236
13.3651
13.3071
13.2496
13.1932
37.4594
36.7139
35.9247
35.1099
34.2838
33.457
32.6388
31.8362
31.0542
30.2964
29.5651
28.8619
28.1874
27.5418
26.925
26.3365
25.7755
25.2412
24.7327
24.249
23.7889
23.3515
22.9357
22.5405
22.1649
21.8079
21.4685
21.1457
20.8388
20.5469
20.2691
20.0046
19.7526
19.5125
19.2835
19.0649
18.8562
18.6567
18.4659
18.2833
18.1083
17.9405
17.7794
17.6245
17.4754
17.3318
17.1932
17.0593
16.9297
16.8042
16.6824
16.564
16.4487
16.3364
16.2267
16.1195
16.0145
15.9115
15.8103
15.7109
15.6129
15.5164
15.4213
15.3273
15.2345
15.1428
15.0521
14.9622
14.8733
14.7852
14.698
14.6115
14.5258
14.4409
14.3568
14.2744
62.9823
61.572
60.048
58.4502
56.8116
55.1579
53.5092
51.8809
50.2846
48.728
47.2169
45.7554
44.3465
42.992
41.6926
40.4487
39.2598
38.1251
37.0435
36.0138
35.0343
34.1036
33.2198
32.3813
31.5862
30.8327
30.1191
29.4435
28.804
28.199
27.6265
27.085
26.5725
26.0874
25.6279
25.1927
24.7802
24.3891
24.0177
23.6649
23.3301
23.0123
22.7102
22.4227
22.1487
21.8872
21.6372
21.3979
21.1684
20.948
20.7358
20.5312
20.3334
20.1419
19.956
19.775
19.5986
19.4262
19.2574
19.0918
18.9291
18.7689
18.6109
18.4549
18.3006
18.1479
17.9965
17.8465
17.6975
17.5496
17.4026
17.2566
17.1116
16.9674
16.8241
16.6832
94.7102
93.2286
91.3004
89.2809
87.2022
85.0913
82.9699
80.8539
78.7544
76.6783
74.6298
72.613
70.6318
68.6885
66.785
64.9235
63.1059
61.3339
59.6095
57.9344
56.3103
54.7388
53.2211
51.7583
50.3513
49.0003
47.7055
46.4665
45.2829
44.1536
43.0777
42.0539
41.0806
40.1561
39.2785
38.4461
37.6572
36.9098
36.2021
35.5319
34.8974
34.2965
33.7272
33.1876
32.6757
32.1896
31.7273
31.287
30.8669
30.4652
30.0803
29.7106
29.3545
29.0105
28.6771
28.3532
28.0373
27.7284
27.4253
27.127
26.8327
26.5415
26.2527
25.9656
25.6797
25.3943
25.1092
24.8241
24.5387
24.253
23.967
23.6807
23.394
23.1071
22.8203
22.5367
152.04
153.308
153.718
153.229
152.639
152.173
151.514
150.636
149.532
148.197
146.63
144.822
142.669
140.136
137.283
134.168
130.85
127.383
123.814
120.187
116.544
112.922
109.348
105.846
102.433
99.1228
95.9246
92.8461
89.8917
87.0644
84.3659
81.7966
79.3558
77.042
74.8528
72.7845
70.8329
68.9935
67.2615
65.6316
64.0987
62.6573
61.302
60.0274
58.828
57.6987
56.6342
55.6294
54.6794
53.7795
52.925
52.1114
51.3345
50.5901
49.8744
49.1837
48.5143
47.8631
47.2268
46.6028
45.9883
45.3809
44.7784
44.1788
43.5804
42.9817
42.3814
41.7785
41.1723
40.5622
39.9478
39.3291
38.7062
38.0796
37.45
36.8214
302.627
314.878
324.754
330.237
330.874
327.617
321.425
313.562
304.847
295.866
287.001
278.517
270.416
262.4
254.483
246.689
239.027
231.496
224.089
216.789
209.577
202.461
195.466
188.616
181.935
175.448
169.19
163.186
157.445
151.971
146.763
141.82
137.141
132.721
128.551
124.623
120.927
117.451
114.184
111.117
108.236
105.532
102.994
100.61
98.3711
96.2664
94.2863
92.4213
90.6624
89.0007
87.4277
85.9353
84.5156
83.1613
81.865
80.62
79.4198
78.2584
77.13
76.0293
74.9511
73.8909
72.8445
71.8078
70.7774
69.7501
68.7232
67.6942
66.6613
65.6228
64.5778
63.5257
62.4667
61.4026
60.3351
285.197
179.013
144.708
133.131
127.54
124.611
123.531
121.738
120.464
119.578
118.982
118.687
119.332
121.67
125.402
130.298
136.218
143.066
150.736
158.854
165.668
169.724
172.047
173.226
173.619
173.444
172.768
171.426
169.591
167.421
165.004
162.398
159.625
156.734
153.768
150.762
147.752
144.769
141.836
138.968
136.178
133.473
130.858
128.336
125.907
123.572
121.329
119.173
117.103
115.114
113.202
111.363
109.591
107.883
106.233
104.636
103.087
101.582
100.116
98.6849
97.2841
95.9098
94.5581
93.2257
91.9091
90.6054
89.3118
88.0258
86.7453
85.4684
84.1937
82.9205
81.6492
80.3831
79.122
125.533
114.775
112.632
111.166
109.582
107.221
104.806
102.077
99.2022
96.6369
94.3504
92.2886
90.4936
88.9817
87.7207
86.6783
85.8248
85.1223
84.5808
84.2279
84.0417
83.9303
83.873
83.9209
84.2961
85.1615
86.6645
89.1513
92.3383
96.0306
100.134
104.512
108.499
111.67
114.168
116.107
117.557
118.47
118.926
119.016
118.813
118.375
117.749
116.973
116.076
115.083
114.016
112.889
111.72
110.514
109.278
108.022
106.752
105.474
104.194
102.915
101.641
100.375
99.1193
97.8755
96.6445
95.4275
94.225
93.0376
91.8656
90.7091
89.5681
88.4423
87.3313
86.2349
85.1526
84.084
83.0295
81.9924
80.9739
119.713
120.331
120.311
119.255
116.944
113.59
109.874
106.504
103.383
100.419
97.5977
94.9218
92.4118
90.0897
87.9595
85.9918
84.125
82.1944
80.3029
78.6066
77.1334
75.8667
74.7715
73.817
72.9853
72.2626
71.6527
71.1742
70.8099
70.5479
70.3836
70.3074
70.3041
70.3334
70.3744
70.4205
70.4963
70.7391
71.0973
71.5403
72.1462
72.8709
73.6745
74.5221
75.383
76.2305
77.0418
77.7957
78.3628
78.7459
78.9552
79.0159
78.9492
78.7743
78.5082
78.1657
77.7596
77.301
76.8002
76.2667
75.7091
75.1348
74.5507
73.9625
73.3753
72.7932
72.2195
71.6568
71.1071
70.5715
70.0505
69.5441
69.0516
68.5753
68.1156
146.857
146.264
143.781
140.044
135.811
131.56
127.303
123.319
119.569
116.004
112.599
109.352
106.26
103.317
100.516
97.85
95.2847
92.8126
90.4463
88.1995
86.0838
84.1004
82.244
80.5076
78.8884
77.4004
76.0303
74.7745
73.627
72.576
71.6024
70.6308
69.6219
68.6168
67.6544
66.8055
66.0687
65.4063
64.8064
64.2593
63.7604
63.3044
62.886
62.4996
62.1399
61.8018
61.4808
61.1723
60.8676
60.5645
60.2773
59.9965
59.7168
59.4337
59.1443
58.8473
58.5422
58.2289
57.9082
57.5813
57.25
56.916
56.5814
56.2481
55.9183
55.5938
55.2764
54.9674
54.6678
54.377
54.0971
53.829
53.5738
53.3376
53.1397
170.08
168.31
165.032
162.318
157.449
152.073
147.027
142.393
138.079
133.953
129.99
126.202
122.593
119.165
115.915
112.839
109.905
107.074
104.385
101.852
99.4733
97.2462
95.167
93.2208
91.3925
89.6706
88.0447
86.5037
85.0371
83.6377
82.2977
81.0032
79.7432
78.5154
77.3236
76.1751
75.0749
74.0222
73.0133
72.0444
71.1127
70.2156
69.3506
68.5155
67.7084
66.9274
66.1706
65.4359
64.7141
64.0057
63.3006
62.5864
61.8717
61.1635
60.4666
59.7838
59.1173
58.4684
57.8376
57.2251
56.6374
56.0743
55.5308
55.0054
54.4971
54.0045
53.5262
53.0616
52.6096
52.1697
51.741
51.3209
50.9066
50.501
50.1222
158.607
154.359
173.421
180.421
177.657
175.203
172.28
169.701
167.166
164.278
160.241
155.837
151.371
146.982
142.75
138.712
134.879
131.246
127.814
124.588
121.568
118.745
116.106
113.639
111.328
109.16
107.12
105.195
103.359
101.596
99.9069
98.2881
96.7334
95.2361
93.7913
92.3943
91.0389
89.7198
88.4331
87.176
85.9465
84.7431
83.564
82.408
81.2737
80.1603
79.0675
77.9947
76.9416
75.9082
74.8942
73.8991
72.9223
71.9636
71.0226
70.0992
69.1933
68.3048
67.4337
66.5799
65.7432
64.9234
64.1205
63.3345
62.5651
61.8125
61.0753
60.353
59.6456
58.953
58.2751
57.6112
56.9607
56.3232
55.7003
55.0831
316.438
325.305
328.463
325.113
317.399
306.625
294.079
280.184
266.106
252.483
239.671
227.848
217.07
207.317
198.504
190.494
183.191
176.515
170.409
164.82
159.687
154.954
150.571
146.494
142.686
139.115
135.753
132.576
129.566
126.707
123.985
121.391
118.913
116.544
114.274
112.098
110.001
107.977
106.025
104.141
102.323
100.565
98.8643
97.2161
95.6166
94.062
92.549
91.0749
89.6372
88.2335
86.8623
85.522
84.2116
82.9302
81.6773
80.4526
79.2557
78.0864
76.9446
75.8302
74.7429
73.6821
72.648
71.6403
70.6589
69.7033
68.7731
67.8679
66.9871
66.1299
65.2959
64.4844
63.6947
62.9263
62.1794
61.4493
142.788
151.737
159.758
167.044
173.665
179.544
184.588
188.702
191.826
193.935
195.055
195.261
194.661
193.343
191.39
188.951
186.16
183.137
179.949
176.643
173.266
169.859
166.456
163.084
159.763
156.508
153.33
150.233
147.141
144.069
141.033
138.042
135.108
132.237
129.435
126.706
124.054
121.48
118.985
116.567
114.227
111.962
109.77
107.648
105.595
103.607
101.681
99.8139
98.0024
96.2454
94.5415
92.889
91.2865
89.7325
88.2259
86.7652
85.3495
83.9775
82.6481
81.3603
80.1131
78.9054
77.7361
76.6038
75.5074
74.4457
73.4174
72.4216
71.4572
70.5234
69.6192
68.7441
67.8977
67.0795
66.2902
65.5297
60.2228
63.0966
65.6598
68.0533
70.3996
72.7767
75.2199
77.7384
80.3158
82.9386
85.5572
88.0795
90.4687
92.6879
94.7034
96.4903
98.0332
99.3271
100.377
101.19
101.782
102.171
102.378
102.427
102.338
102.131
101.826
101.439
101.046
100.647
100.24
99.8255
99.4028
98.971
98.5288
98.0721
97.5608
96.979
96.332
95.6253
94.8645
94.0547
93.2014
92.3098
91.3852
90.4331
89.4589
88.4675
87.4637
86.4517
85.4354
84.4186
83.4043
82.3954
81.3944
80.4034
79.4242
78.4586
77.5079
76.5734
75.6559
74.7564
73.8748
73.0111
72.1661
71.3402
70.5338
69.7471
68.9803
68.2335
67.5069
66.8009
66.1159
65.453
64.8146
64.2006
33.9952
34.7893
35.5147
36.2225
36.9398
37.6871
38.4733
39.3095
40.1989
41.1423
42.1331
43.1608
44.2141
45.2795
46.343
47.3906
48.4089
49.3857
50.3098
51.1721
51.966
52.6859
53.3282
53.8911
54.3749
54.7808
55.1117
55.374
55.5731
55.7146
55.8039
55.8463
55.8478
55.8136
55.7504
55.6967
55.6711
55.6723
55.6992
55.7505
55.8241
55.9057
55.9846
56.0612
56.1361
56.2092
56.2799
56.3472
56.4102
56.468
56.5196
56.5651
56.6033
56.6331
56.6533
56.6628
56.6608
56.6465
56.6193
56.5789
56.5252
56.4582
56.378
56.2849
56.1795
56.0623
55.9341
55.7957
55.6485
55.4936
55.3325
55.167
54.9988
54.8299
54.6547
24.4328
24.6865
24.9242
25.1545
25.3846
25.6206
25.8671
26.1276
26.4046
26.6998
27.014
27.3468
27.6974
28.0638
28.4436
28.8337
29.2309
29.6313
30.0311
30.4263
30.8132
31.1879
31.5471
31.8878
32.2072
32.5033
32.7744
33.019
33.2363
33.4257
33.587
33.7201
33.8262
33.908
33.9678
34.0085
34.0334
34.0454
34.0473
34.042
34.0327
34.0338
34.0566
34.1009
34.1666
34.2525
34.3528
34.4659
34.5922
34.7319
34.8845
35.0482
35.2226
35.4072
35.601
35.8034
36.0132
36.2293
36.4506
36.6757
36.9034
37.1324
37.3612
37.5888
37.8139
38.0354
38.2524
38.4641
38.6699
38.8696
39.0629
39.2499
39.4307
39.6051
39.7686
20.9924
21.0708
21.1426
21.2104
21.2767
21.3435
21.4123
21.4847
21.5614
21.6434
21.7311
21.8247
21.9244
22.0299
22.141
22.2572
22.3777
22.502
22.6289
22.7577
22.887
23.0159
23.1431
23.2676
23.3882
23.504
23.6142
23.7179
23.8145
23.9033
23.984
24.0562
24.12
24.1754
24.2226
24.262
24.2941
24.3195
24.339
24.3533
24.3633
24.3698
24.3751
24.3803
24.3866
24.3957
24.4143
24.4444
24.4862
24.5392
24.6009
24.6708
24.749
24.8359
24.9313
25.0353
25.1476
25.268
25.3961
25.5316
25.674
25.8228
25.9774
26.1374
26.302
26.4706
26.6427
26.8177
26.9952
27.1746
27.3555
27.5376
27.7202
27.902
28.0791
19.7183
19.7353
19.7478
19.7571
19.7642
19.7701
19.7755
19.7812
19.7874
19.7948
19.8034
19.8135
19.8251
19.8384
19.8531
19.8693
19.8868
19.9054
19.9249
19.945
19.9656
19.9862
20.0066
20.0263
20.0452
20.0628
20.0789
20.0933
20.1057
20.1158
20.1236
20.1289
20.1317
20.1319
20.1296
20.1249
20.1179
20.1089
20.098
20.0856
20.072
20.0576
20.0426
20.0273
20.0121
19.9974
19.9838
19.9717
19.9619
19.956
19.9563
19.9635
19.9774
19.9975
20.0235
20.0552
20.0929
20.1363
20.1853
20.2393
20.298
20.3605
20.4268
20.4967
20.5699
20.6464
20.7259
20.8083
20.8936
20.9816
21.0721
21.165
21.26
21.3562
21.4515
19.3611
19.3566
19.3481
19.3364
19.322
19.3056
19.2878
19.2689
19.2492
19.229
19.2085
19.1878
19.1669
19.1459
19.1249
19.1037
19.0823
19.0607
19.0387
19.0164
18.9937
18.9703
18.9463
18.9215
18.8959
18.8693
18.8416
18.8127
18.7826
18.7514
18.7188
18.6851
18.6501
18.6139
18.5766
18.5383
18.499
18.4589
18.4182
18.3769
18.3353
18.2935
18.2518
18.2103
18.1692
18.1287
18.089
18.0504
18.0131
17.9771
17.9427
17.9101
17.8796
17.8522
17.8289
17.8095
17.794
17.7822
17.7743
17.77
17.7695
17.7726
17.7792
17.7891
17.8023
17.8186
17.8378
17.8598
17.8845
17.9117
17.9412
17.973
18.0065
18.0415
18.0766
19.4142
19.4041
19.3899
19.3721
19.3513
19.328
19.3026
19.2754
19.2468
19.2169
19.1858
19.1538
19.1208
19.0869
19.0522
19.0166
18.9802
18.9428
18.9045
18.8653
18.825
18.7837
18.7413
18.6978
18.653
18.6071
18.56
18.5116
18.462
18.4111
18.359
18.3056
18.2509
18.1952
18.1383
18.0805
18.0218
17.9624
17.9024
17.8419
17.7811
17.7202
17.6594
17.5987
17.5384
17.4787
17.4196
17.3613
17.3041
17.2479
17.193
17.1395
17.0875
17.037
16.9882
16.9411
16.8963
16.8539
16.8141
16.7767
16.7419
16.7095
16.6796
16.652
16.6268
16.6039
16.5832
16.5646
16.5481
16.5335
16.5208
16.5097
16.5002
16.4918
16.484
19.5843
19.5728
19.5569
19.5372
19.5142
19.4884
19.4602
19.4299
19.3978
19.364
19.3288
19.2922
19.2543
19.2151
19.1748
19.1333
19.0906
19.0467
19.0016
18.9552
18.9076
18.8587
18.8084
18.7568
18.7038
18.6495
18.5937
18.5365
18.4779
18.418
18.3567
18.2941
18.2302
18.165
18.0987
18.0313
17.963
17.8939
17.8241
17.7538
17.6832
17.6124
17.5416
17.4709
17.4005
17.3305
17.2612
17.1927
17.125
17.0584
16.9929
16.9286
16.8657
16.8041
16.7441
16.6855
16.6285
16.5731
16.5196
16.4679
16.4181
16.3701
16.324
16.2798
16.2374
16.1967
16.1577
16.1204
16.0847
16.0504
16.0176
15.986
15.9556
15.9263
15.8966
19.5514
19.5382
19.5207
19.4994
19.4749
19.4476
19.4179
19.3861
19.3524
19.3172
19.2804
19.2424
19.203
19.1625
19.1208
19.0779
19.0339
18.9888
18.9424
18.8948
18.846
18.796
18.7447
18.692
18.6381
18.5828
18.5261
18.4681
18.4088
18.3482
18.2863
18.2232
18.1588
18.0934
18.0268
17.9594
17.8911
17.8221
17.7527
17.6828
17.6128
17.5427
17.4727
17.4031
17.3339
17.2653
17.1975
17.1306
17.0648
17.0001
16.9368
16.8748
16.8144
16.7556
16.6984
16.6428
16.5889
16.5371
16.4872
16.4392
16.3931
16.349
16.3069
16.2666
16.2282
16.1916
16.1566
16.1233
16.0916
16.0613
16.0323
16.0046
15.9778
15.9521
15.9258
19.303
19.289
19.2711
19.2499
19.226
19.1997
19.1713
19.1412
19.1097
19.0769
19.0429
19.0078
18.9718
18.9349
18.8971
18.8583
18.8187
18.7782
18.7367
18.6942
18.6507
18.6062
18.5606
18.514
18.4663
18.4174
18.3674
18.3163
18.2641
18.2108
18.1565
18.1011
18.0448
17.9877
17.9298
17.8714
17.8125
17.7534
17.6941
17.6348
17.5757
17.5169
17.4587
17.4013
17.3447
17.2892
17.2349
17.182
17.1308
17.0815
17.034
16.9884
16.9449
16.9035
16.8647
16.8286
16.7952
16.7646
16.7369
16.7118
16.6895
16.6699
16.6528
16.6382
16.6259
16.6158
16.6077
16.6016
16.5972
16.5944
16.5931
16.5929
16.5937
16.595
16.5962
19.1654
19.1543
19.1399
19.1229
19.1038
19.0829
19.0607
19.0374
19.0134
18.9886
18.9634
18.9377
18.9115
18.885
18.8581
18.8306
18.8027
18.7743
18.7452
18.7155
18.6851
18.6538
18.6218
18.5888
18.5549
18.52
18.4841
18.4473
18.4095
18.3709
18.3316
18.2917
18.2511
18.2102
18.1691
18.1279
18.0867
18.0458
18.0053
17.9655
17.9264
17.8883
17.8515
17.8163
17.7828
17.7511
17.722
17.6957
17.6723
17.652
17.6356
17.6232
17.6151
17.6114
17.6119
17.6167
17.6257
17.6388
17.6557
17.6763
17.7002
17.7274
17.7574
17.79
17.825
17.862
17.9009
17.9413
17.983
18.0257
18.0692
18.1131
18.1569
18.2
18.2412
19.4099
19.4151
19.4172
19.417
19.4153
19.4126
19.4093
19.4058
19.4023
19.3991
19.3961
19.3935
19.3911
19.389
19.387
19.3849
19.3827
19.3802
19.3772
19.3736
19.3691
19.3637
19.3572
19.3497
19.3409
19.331
19.3198
19.3076
19.2943
19.2802
19.2653
19.2498
19.2338
19.2177
19.2017
19.186
19.1708
19.1564
19.1429
19.1307
19.1201
19.1113
19.1049
19.1016
19.1036
19.1116
19.1254
19.1449
19.1705
19.2022
19.2402
19.2843
19.3346
19.3908
19.4527
19.52
19.5923
19.6691
19.7499
19.8339
19.9206
20.0093
20.099
20.1895
20.2807
20.3727
20.4653
20.5587
20.6525
20.7463
20.84
20.9333
21.0259
21.1171
21.2052
20.4567
20.5041
20.5472
20.5877
20.6269
20.6658
20.7052
20.7457
20.7874
20.8306
20.8753
20.9213
20.9683
21.0161
21.0643
21.1124
21.1601
21.207
21.2525
21.2964
21.3383
21.378
21.4151
21.4496
21.4814
21.5104
21.5365
21.5599
21.5806
21.5989
21.6151
21.6294
21.6421
21.6537
21.6646
21.6753
21.6872
21.7014
21.7183
21.7388
21.7668
21.804
21.8505
21.9059
21.9693
22.041
22.121
22.2092
22.3054
22.4088
22.5194
22.637
22.7615
22.8926
23.0303
23.1743
23.3242
23.4797
23.6402
23.8051
23.9738
24.1457
24.3201
24.4966
24.674
24.8512
25.0271
25.201
25.3722
25.5402
25.7047
25.8654
26.022
26.1738
26.3183
23.1725
23.3165
23.4513
23.581
23.7087
23.8371
23.9678
24.1017
24.2393
24.3802
24.5242
24.6705
24.818
24.9658
25.1126
25.2573
25.3986
25.5354
25.6666
25.7912
25.9083
26.0172
26.1174
26.2086
26.2917
26.3667
26.4339
26.4937
26.5466
26.5935
26.6355
26.6739
26.7096
26.7434
26.7765
26.8114
26.8588
26.9191
26.9927
27.0797
27.177
27.2842
27.4021
27.531
27.6713
27.8227
27.9856
28.1603
28.3466
28.5447
28.7543
28.9749
29.2061
29.4471
29.6973
29.956
30.2219
30.4928
30.7667
31.0417
31.3159
31.5877
31.8554
32.1176
32.3728
32.62
32.8581
33.0864
33.3043
33.5114
33.7077
33.8934
34.0687
34.2331
34.3849
29.8553
30.2495
30.6119
30.9558
31.2922
31.6289
31.9704
32.3188
32.6732
33.0323
33.3936
33.7551
34.1131
34.4631
34.8019
35.1273
35.4354
35.7234
35.9887
36.2292
36.4436
36.6314
36.7936
36.9317
37.0474
37.1425
37.2187
37.2781
37.3223
37.3541
37.3963
37.4575
37.5377
37.6371
37.7556
37.8919
38.0369
38.1912
38.3562
38.5329
38.7219
38.9236
39.1384
39.3663
39.6056
39.8551
40.1138
40.3808
40.6549
40.9347
41.2188
41.5055
41.793
42.0797
42.3635
42.6425
42.9149
43.1789
43.4328
43.6749
43.904
44.1187
44.3182
44.5014
44.6678
44.817
44.9488
45.063
45.1601
45.2406
45.3052
45.3552
45.3917
45.4162
45.4253
48.3663
49.5194
50.5332
51.4646
52.3587
53.2407
54.1239
55.0127
55.9013
56.7777
57.6313
58.4477
59.2081
59.9053
60.5333
61.0882
61.5681
61.9732
62.3045
62.5644
62.7557
62.8896
63.0315
63.1817
63.3401
63.5064
63.6803
63.8614
64.0499
64.2443
64.4217
64.5746
64.7043
64.812
64.8988
64.9652
65.0113
65.0374
65.0437
65.0307
64.9987
64.9481
64.8796
64.7938
64.6917
64.5743
64.442
64.2954
64.1348
63.9607
63.7736
63.574
63.3624
63.139
62.9043
62.6587
62.4025
62.1361
61.8601
61.5747
61.2806
60.9782
60.668
60.3504
60.0249
59.6924
59.3532
59.0083
58.6587
58.3053
57.9496
57.593
57.2371
56.884
56.5343
108.153
112.028
115.392
118.432
121.278
123.978
126.527
128.893
130.962
132.644
133.924
134.824
135.454
135.821
135.939
135.832
135.521
135.032
134.386
133.607
132.714
131.717
130.564
129.274
127.866
126.358
124.77
123.116
121.409
119.662
117.885
116.089
114.282
112.472
110.667
108.872
107.095
105.339
103.609
101.907
100.237
98.6017
97.0016
95.4385
93.9134
92.4265
90.978
89.5673
88.1927
86.8545
85.5523
84.2858
83.0541
81.8565
80.692
79.5598
78.4588
77.3881
76.3467
75.3335
74.3478
73.3886
72.4554
71.5474
70.6642
69.8051
68.9698
68.1577