/*--------------------------------*- C++ -*----------------------------------*\
  =========                 |
  \\      /  F ield         | OpenFOAM: The Open Source CFD Toolbox
   \\    /   O peration     | Website:  https://openfoam.org
    \\  /    A nd           | Version:  13
     \\/     M anipulation  |
\*---------------------------------------------------------------------------*/
FoamFile
{
    format      ascii;
    class       volScalarField;
    location    "800";
    object      p;
}
// * * * * * * * * * * * * * * * * * * * * * * * * * * * * * * * * * * * * * //

dimensions      [0 2 -2 0 0 0 0];

internalField   nonuniform List<scalar> 
173327
(
-12.3065
-12.3642
-12.3889
-12.3822
-12.3463
-12.283
-12.1942
-12.0818
-11.9477
-11.7939
-11.6227
-11.4363
-11.2368
-11.0258
-10.8051
-10.5762
-10.3408
-10.1002
-9.85572
-9.6084
-9.35912
-9.10869
-8.85786
-8.60734
-8.35772
-8.10959
-7.86348
-7.61986
-7.37914
-7.14155
-6.90727
-6.67645
-6.44922
-6.22574
-6.00609
-5.79034
-5.57858
-5.37087
-5.1673
-4.96788
-4.77254
-4.58119
-4.39372
-4.21014
-4.0305
-3.85487
-3.68329
-3.51569
-3.35201
-3.19205
-3.03581
-2.88315
-2.73421
-2.5889
-2.44734
-2.30929
-2.1747
-2.04335
-1.91529
-1.79061
-1.66927
-1.55118
-1.43589
-1.32331
-1.21311
-1.10546
-1.00019
-0.897491
-0.797088
-0.699019
-0.602868
-0.508536
-0.415553
-0.323794
-0.232983
-0.143105
-0.0549507
-12.3476
-12.404
-12.4269
-12.4183
-12.3802
-12.3145
-12.2234
-12.1086
-11.9721
-11.816
-11.6426
-11.4539
-11.2522
-11.0391
-10.8165
-10.5859
-10.3489
-10.1068
-9.86097
-9.61239
-9.36198
-9.11053
-8.85882
-8.6075
-8.35718
-8.10841
-7.8617
-7.61753
-7.37627
-7.1382
-6.9035
-6.67233
-6.44482
-6.2211
-6.00125
-5.78535
-5.57343
-5.36556
-5.16181
-4.96222
-4.76674
-4.57529
-4.38777
-4.20416
-4.02449
-3.84881
-3.67716
-3.50953
-3.34581
-3.18591
-3.02969
-2.87714
-2.72822
-2.58299
-2.44143
-2.30347
-2.16894
-2.03772
-1.90978
-1.78519
-1.66397
-1.54594
-1.43084
-1.31839
-1.20847
-1.10099
-0.995995
-0.893446
-0.793313
-0.695417
-0.599572
-0.505474
-0.412877
-0.321497
-0.231254
-0.142096
-0.0549266
-12.4301
-12.4839
-12.5035
-12.4911
-12.4487
-12.3786
-12.2827
-12.1632
-12.0221
-11.8614
-11.6834
-11.4904
-11.2844
-11.0674
-10.8411
-10.6071
-10.3669
-10.1219
-9.87342
-9.62239
-9.36974
-9.11629
-8.86278
-8.60986
-8.3581
-8.10805
-7.86018
-7.61494
-7.37268
-7.13369
-6.89818
-6.66629
-6.43818
-6.21394
-5.99366
-5.77738
-5.56513
-5.35695
-5.15289
-4.95299
-4.75724
-4.56556
-4.37788
-4.19416
-4.01442
-3.83867
-3.66695
-3.49923
-3.33547
-3.17554
-3.01937
-2.86689
-2.71807
-2.57292
-2.43145
-2.2936
-2.15922
-2.02821
-1.90051
-1.77616
-1.65513
-1.53728
-1.42239
-1.31024
-1.20067
-1.09363
-0.989087
-0.887028
-0.787372
-0.689983
-0.594643
-0.501093
-0.409079
-0.318453
-0.229032
-0.140798
-0.0545783
-12.555
-12.6047
-12.6192
-12.601
-12.5521
-12.4751
-12.3721
-12.2454
-12.097
-11.9293
-11.7444
-11.5448
-11.3325
-11.1094
-10.8776
-10.6384
-10.3935
-10.1442
-9.8917
-9.637
-9.38102
-9.12457
-8.86836
-8.61301
-8.35911
-8.10713
-7.85753
-7.6107
-7.36701
-7.12671
-6.89003
-6.65711
-6.4281
-6.2031
-5.98216
-5.76531
-5.55257
-5.34395
-5.13948
-4.9392
-4.74308
-4.5511
-4.3632
-4.17933
-3.99948
-3.82365
-3.65185
-3.48407
-3.32025
-3.16032
-3.0042
-2.85182
-2.70313
-2.55814
-2.41683
-2.27915
-2.14501
-2.01429
-1.88693
-1.7629
-1.64217
-1.52462
-1.41008
-1.29835
-1.18932
-1.08291
-0.979053
-0.877713
-0.778799
-0.682165
-0.587605
-0.494873
-0.403774
-0.314153
-0.225885
-0.138824
-0.0538228
-12.7236
-12.7675
-12.7751
-12.7488
-12.6911
-12.6047
-12.4919
-12.3553
-12.1972
-12.0198
-11.8257
-11.6171
-11.3963
-11.1653
-10.926
-10.68
-10.4288
-10.1738
-9.91593
-9.6564
-9.39603
-9.1356
-8.87581
-8.61726
-8.36049
-8.10595
-7.85405
-7.60517
-7.35961
-7.11763
-6.87944
-6.6452
-6.41502
-6.18899
-5.96716
-5.74955
-5.53614
-5.32694
-5.12195
-4.92119
-4.72465
-4.5323
-4.3441
-4.16001
-3.98001
-3.80408
-3.63219
-3.46433
-3.30047
-3.14054
-2.98448
-2.83221
-2.68369
-2.53889
-2.39779
-2.26036
-2.12652
-1.99615
-1.86919
-1.74559
-1.62529
-1.50818
-1.39414
-1.28301
-1.17469
-1.06907
-0.966093
-0.865683
-0.767735
-0.672104
-0.578591
-0.486972
-0.397069
-0.30875
-0.221846
-0.13622
-0.052679
-12.9379
-12.9743
-12.9727
-12.9358
-12.8666
-12.7679
-12.6426
-12.4933
-12.3225
-12.1329
-11.9269
-11.707
-11.4755
-11.2345
-10.9859
-10.7313
-10.4722
-10.2099
-9.94549
-9.67994
-9.41412
-9.14877
-8.88454
-8.62202
-8.36168
-8.10395
-7.84922
-7.59779
-7.34996
-7.10595
-6.86594
-6.63008
-6.39848
-6.1712
-5.94827
-5.7297
-5.51546
-5.30554
-5.09992
-4.89859
-4.70156
-4.50878
-4.32024
-4.13589
-3.9557
-3.77962
-3.60763
-3.4397
-3.27581
-3.1159
-2.95991
-2.80778
-2.65944
-2.51488
-2.37406
-2.23694
-2.10346
-1.97352
-1.84705
-1.72397
-1.60423
-1.48773
-1.37437
-1.26402
-1.15657
-1.05193
-0.950025
-0.85075
-0.753997
-0.659621
-0.56743
-0.477223
-0.388826
-0.302085
-0.216823
-0.132908
-0.0511358
-13.2005
-13.2272
-13.2137
-13.1634
-13.0796
-12.9656
-12.8246
-12.6595
-12.4731
-12.2684
-12.0479
-11.8142
-11.5698
-11.3166
-11.0567
-10.7918
-10.5232
-10.2522
-9.97989
-9.70718
-9.43488
-9.16369
-8.8942
-8.62696
-8.3624
-8.10091
-7.84282
-7.58841
-7.33791
-7.09153
-6.84941
-6.61168
-6.37842
-6.14968
-5.92546
-5.70576
-5.49054
-5.27977
-5.07341
-4.87144
-4.67385
-4.4806
-4.29167
-4.10701
-3.92657
-3.75032
-3.57822
-3.41023
-3.24631
-3.08644
-2.93054
-2.77856
-2.63044
-2.48615
-2.34566
-2.20892
-2.07587
-1.94643
-1.82054
-1.6981
-1.57906
-1.46332
-1.35081
-1.2414
-1.135
-1.03152
-0.93087
-0.832934
-0.737602
-0.644731
-0.554138
-0.465639
-0.379052
-0.294189
-0.210871
-0.128979
-0.0492904
-13.5146
-13.529
-13.5007
-13.4337
-13.3318
-13.1989
-13.0386
-12.8543
-12.6491
-12.4262
-12.1884
-11.9383
-11.6784
-11.4109
-11.1378
-10.8607
-10.581
-10.2999
-10.0185
-9.73747
-9.45769
-9.17976
-8.90423
-8.63157
-8.36217
-8.09636
-7.83443
-7.57661
-7.32309
-7.07402
-6.82952
-6.58968
-6.35455
-6.12415
-5.89847
-5.67749
-5.46115
-5.24941
-5.04221
-4.83953
-4.64131
-4.44754
-4.25817
-4.07316
-3.89245
-3.71601
-3.54378
-3.37572
-3.2118
-3.05197
-2.89619
-2.74439
-2.59652
-2.45255
-2.31244
-2.17614
-2.0436
-1.91475
-1.78951
-1.66782
-1.54961
-1.43479
-1.32329
-1.215
-1.10982
-1.00768
-0.908474
-0.812089
-0.718412
-0.627296
-0.538579
-0.452082
-0.367606
-0.284942
-0.203901
-0.124372
-0.0471113
-13.8842
-13.8832
-13.8365
-13.7488
-13.6247
-13.4689
-13.2854
-13.0781
-12.8505
-12.6061
-12.3478
-12.0785
-11.8008
-11.5167
-11.2284
-10.9373
-10.6449
-10.3523
-10.0605
-9.77008
-9.48185
-9.19635
-8.91403
-8.6353
-8.36049
-8.08987
-7.82366
-7.56205
-7.30517
-7.05312
-6.80599
-6.56382
-6.32662
-6.0944
-5.86712
-5.64473
-5.42716
-5.21435
-5.00623
-4.80275
-4.60386
-4.40951
-4.21966
-4.03426
-3.85326
-3.6766
-3.50423
-3.33611
-3.17219
-3.01243
-2.85678
-2.7052
-2.55762
-2.41401
-2.27433
-2.13854
-2.00658
-1.8784
-1.75393
-1.6331
-1.51584
-1.40208
-1.29174
-1.18473
-1.08095
-0.980335
-0.882768
-0.788151
-0.696362
-0.607263
-0.520702
-0.436501
-0.354445
-0.274314
-0.195905
-0.119096
-0.0446166
-14.3142
-14.294
-14.2245
-14.1115
-13.9606
-13.7771
-13.5659
-13.3313
-13.0774
-12.8078
-12.5258
-12.2343
-11.936
-11.6331
-11.3275
-11.0207
-10.714
-10.4085
-10.105
-9.8042
-9.50662
-9.21275
-8.92295
-8.63755
-8.35681
-8.08092
-7.81005
-7.5443
-7.28376
-7.02849
-6.7785
-6.53381
-6.29438
-6.06019
-5.83118
-5.60726
-5.38836
-5.17439
-4.96528
-4.76094
-4.56132
-4.36635
-4.17599
-3.99017
-3.80885
-3.63195
-3.45944
-3.29125
-3.12735
-2.96768
-2.8122
-2.66086
-2.51361
-2.37041
-2.23122
-2.096
-1.96471
-1.83729
-1.71367
-1.59381
-1.47763
-1.36506
-1.25603
-1.15046
-1.04826
-0.949341
-0.853618
-0.760984
-0.671324
-0.584505
-0.500381
-0.418772
-0.339463
-0.26222
-0.186811
-0.1131
-0.04178
-14.8107
-14.7667
-14.6692
-14.5253
-14.3419
-14.1253
-13.8811
-13.6144
-13.3297
-13.0309
-12.7216
-12.4048
-12.0832
-11.759
-11.4339
-11.1096
-10.7871
-10.4674
-10.1511
-9.8389
-9.53113
-9.22815
-8.93026
-8.63766
-8.35053
-8.06897
-7.79309
-7.52291
-7.25846
-6.99974
-6.74671
-6.49933
-6.25754
-6.02127
-5.79041
-5.56488
-5.34457
-5.12938
-4.9192
-4.71396
-4.51356
-4.31794
-4.12703
-3.94078
-3.75911
-3.58197
-3.4093
-3.24105
-3.07718
-2.91762
-2.76233
-2.61127
-2.46438
-2.32164
-2.183
-2.04843
-1.91787
-1.7913
-1.66864
-1.54986
-1.43488
-1.32364
-1.21607
-1.1121
-1.01164
-0.914616
-0.820936
-0.730503
-0.643208
-0.558924
-0.477509
-0.398794
-0.32256
-0.248555
-0.176531
-0.106328
-0.0385789
-15.3812
-15.3075
-15.1755
-14.994
-14.7715
-14.5153
-14.2322
-13.9279
-13.6074
-13.2751
-12.9346
-12.5891
-12.2412
-11.8932
-11.5467
-11.203
-10.8631
-10.5279
-10.1978
-9.87326
-9.55451
-9.24179
-8.93524
-8.63498
-8.34105
-8.0535
-7.77231
-7.49745
-7.22889
-6.96653
-6.7103
-6.46011
-6.21584
-5.97737
-5.7446
-5.51738
-5.2956
-5.07913
-4.86784
-4.66164
-4.46043
-4.26412
-4.07264
-3.88593
-3.7039
-3.52651
-3.35369
-3.18539
-3.02155
-2.86212
-2.70706
-2.55631
-2.40984
-2.2676
-2.12957
-1.9957
-1.86597
-1.74034
-1.61874
-1.50115
-1.38749
-1.27771
-1.17175
-1.06953
-0.970989
-0.876043
-0.78461
-0.6966
-0.611909
-0.530421
-0.451999
-0.376481
-0.303645
-0.233229
-0.164976
-0.0987136
-0.0349812
-16.0347
-15.9239
-15.7495
-15.5223
-15.2525
-14.9493
-14.6203
-14.2721
-13.9103
-13.5395
-13.1636
-12.7858
-12.4087
-12.0343
-11.6642
-11.2994
-10.9407
-10.5888
-10.2439
-9.90614
-9.57574
-9.25271
-8.93705
-8.62873
-8.32769
-8.03386
-7.74715
-7.46744
-7.19459
-6.92847
-6.66893
-6.41582
-6.16899
-5.92827
-5.69352
-5.46457
-5.24126
-5.02347
-4.81104
-4.60385
-4.40179
-4.20478
-4.01271
-3.82552
-3.64313
-3.46548
-3.29251
-3.12416
-2.96037
-2.80109
-2.64628
-2.49588
-2.34986
-2.20819
-2.07082
-1.93774
-1.80891
-1.6843
-1.56387
-1.44758
-1.33536
-1.22718
-1.12296
-1.02266
-0.926202
-0.833518
-0.744533
-0.659164
-0.577318
-0.49889
-0.423751
-0.351741
-0.282644
-0.216184
-0.152099
-0.0902163
-0.0309636
-16.7827
-16.6257
-16.3988
-16.1159
-15.7895
-15.4302
-15.0472
-14.6479
-14.2384
-13.8238
-13.4079
-12.9939
-12.5844
-12.181
-11.7851
-11.3975
-11.0187
-10.6489
-10.2882
-9.93665
-9.59401
-9.2602
-8.93503
-8.61834
-8.30993
-8.00963
-7.71721
-7.43248
-7.15523
-6.88524
-6.62231
-6.36621
-6.11675
-5.87373
-5.63695
-5.40622
-5.18137
-4.96222
-4.74861
-4.54041
-4.3375
-4.13975
-3.94708
-3.7594
-3.57665
-3.39874
-3.22562
-3.05723
-2.89351
-2.73441
-2.57989
-2.42988
-2.28436
-2.1433
-2.00667
-1.87444
-1.74659
-1.6231
-1.50394
-1.38906
-1.27841
-1.17195
-1.06964
-0.9714
-0.877193
-0.786954
-0.700617
-0.618107
-0.539343
-0.464231
-0.39266
-0.324472
-0.259455
-0.197334
-0.137835
-0.0807947
-0.0265058
-17.6382
-17.4233
-17.1316
-16.7808
-16.3862
-15.9604
-15.5141
-15.0554
-14.5912
-14.1266
-13.6658
-13.2116
-12.7662
-12.3313
-11.9075
-11.4954
-11.0951
-10.7065
-10.3294
-9.96333
-9.60803
-9.2631
-8.92818
-8.60294
-8.28703
-7.98014
-7.68195
-7.39215
-7.11045
-6.83656
-6.57019
-6.31109
-6.05898
-5.81363
-5.57481
-5.34228
-5.11585
-4.89532
-4.68052
-4.47129
-4.26749
-4.069
-3.87571
-3.68753
-3.5044
-3.32623
-3.15296
-2.98454
-2.82091
-2.66201
-2.5078
-2.35822
-2.21325
-2.07286
-1.93702
-1.80572
-1.67894
-1.55666
-1.43886
-1.3255
-1.21654
-1.11195
-1.01168
-0.915676
-0.823893
-0.736284
-0.652795
-0.573364
-0.497922
-0.426386
-0.358659
-0.294601
-0.234007
-0.176606
-0.12212
-0.070395
-0.0215683
-18.62
-18.332
-17.9599
-17.5262
-17.0493
-16.5445
-16.0237
-15.4962
-14.9691
-14.4479
-13.9366
-13.4378
-12.9534
-12.4841
-12.0305
-11.5923
-11.1694
-10.761
-10.3667
-9.98572
-9.61737
-9.26105
-8.91616
-8.58217
-8.2586
-7.945
-7.64094
-7.346
-7.0598
-6.78197
-6.51216
-6.25003
-5.99527
-5.74759
-5.50671
-5.27239
-5.04439
-4.82248
-4.60648
-4.39621
-4.19152
-3.99228
-3.79837
-3.60971
-3.4262
-3.24778
-3.07439
-2.90596
-2.74244
-2.58377
-2.4299
-2.2808
-2.13644
-1.99678
-1.86181
-1.73152
-1.60589
-1.48492
-1.36859
-1.25686
-1.14971
-1.04711
-0.949022
-0.855402
-0.766214
-0.681418
-0.600974
-0.524837
-0.45295
-0.385249
-0.321654
-0.262039
-0.206213
-0.153917
-0.104873
-0.0589318
-0.0160902
-19.7482
-19.3675
-18.8956
-18.3604
-17.7844
-17.1852
-16.5766
-15.9689
-15.3697
-14.7844
-14.2166
-13.6686
-13.1415
-12.6355
-12.1501
-11.6847
-11.2382
-10.8096
-10.3978
-10.0018
-9.62035
-9.2527
-8.898
-8.55548
-8.22444
-7.90424
-7.59436
-7.29431
-7.00362
-6.72185
-6.44859
-6.18343
-5.92601
-5.67598
-5.43303
-5.19689
-4.96727
-4.74395
-4.52671
-4.31535
-4.10972
-3.90968
-3.71512
-3.52593
-3.34203
-3.16335
-2.98982
-2.82139
-2.65799
-2.49958
-2.3461
-2.19752
-2.05381
-1.91495
-1.78092
-1.65173
-1.52735
-1.4078
-1.29304
-1.18308
-1.07788
-0.977415
-0.881659
-0.790582
-0.704156
-0.622354
-0.545149
-0.472509
-0.4044
-0.340776
-0.281578
-0.226703
-0.175983
-0.129177
-0.0860151
-0.0462999
-0.00998969
-21.058
-20.5594
-19.9626
-19.3027
-18.6064
-17.8942
-17.1818
-16.4807
-15.7986
-15.1405
-14.5095
-13.907
-13.3331
-12.7871
-12.2677
-11.7732
-11.3021
-10.8524
-10.4226
-10.011
-9.61623
-9.2371
-8.87254
-8.52151
-8.18305
-7.85635
-7.54076
-7.2357
-6.94062
-6.655
-6.37836
-6.11023
-5.85019
-5.59786
-5.35287
-5.11491
-4.88371
-4.65902
-4.44059
-4.22823
-4.02173
-3.82093
-3.62572
-3.436
-3.2517
-3.07276
-2.89911
-2.73069
-2.56745
-2.40933
-2.25629
-2.10828
-1.96529
-1.8273
-1.69429
-1.56627
-1.44323
-1.32518
-1.21212
-1.10402
-1.00089
-0.902692
-0.809418
-0.721044
-0.63755
-0.558923
-0.485148
-0.416211
-0.352095
-0.292777
-0.238219
-0.188352
-0.143043
-0.102086
-0.065249
-0.0323091
-0.00316043
-21.923
-21.1721
-20.3599
-19.5181
-18.6707
-17.8356
-17.0253
-16.2476
-15.507
-14.8057
-14.1438
-13.5202
-12.9327
-12.3787
-11.8552
-11.3597
-10.8893
-10.4419
-10.0152
-9.60751
-9.21708
-8.84259
-8.48283
-8.13674
-7.80341
-7.48205
-7.17194
-6.87245
-6.58297
-6.30292
-6.0318
-5.7691
-5.5144
-5.2673
-5.02746
-4.79457
-4.56839
-4.34868
-4.13521
-3.92774
-3.72611
-3.53017
-3.33986
-3.15512
-2.97588
-2.80208
-2.63367
-2.47058
-2.31277
-2.16019
-2.01281
-1.87059
-1.73354
-1.60164
-1.47491
-1.35334
-1.23694
-1.12572
-1.01967
-0.918785
-0.823042
-0.732429
-0.646938
-0.566561
-0.491295
-0.421142
-0.356103
-0.29618
-0.241376
-0.191681
-0.147059
-0.107416
-0.0725993
-0.0424401
-0.0167862
0.00459226
-23.5091
-22.5649
-21.5658
-20.5477
-19.5383
-18.5586
-17.6218
-16.7343
-15.8995
-15.1182
-14.3893
-13.71
-13.0765
-12.4846
-11.93
-11.4088
-10.9172
-10.452
-10.0105
-9.59006
-9.18875
-8.80478
-8.4367
-8.08328
-7.74349
-7.41643
-7.10129
-6.79737
-6.504
-6.22055
-5.94642
-5.68107
-5.42401
-5.17481
-4.9331
-4.69854
-4.47082
-4.24969
-4.0349
-3.82626
-3.62364
-3.42692
-3.23602
-3.05085
-2.87134
-2.69744
-2.52908
-2.36622
-2.20878
-2.05674
-1.91006
-1.76872
-1.63271
-1.50203
-1.37669
-1.2567
-1.14208
-1.03286
-0.929031
-0.830576
-0.737478
-0.649732
-0.567338
-0.490301
-0.41863
-0.352335
-0.291429
-0.235934
-0.185871
-0.141265
-0.102122
-0.0683945
-0.040001
-0.0168728
0.00100561
0.0139389
-25.3486
-24.1558
-22.9191
-21.6788
-20.4675
-19.3121
-18.2268
-17.2161
-16.2804
-15.4176
-14.6231
-13.8909
-13.2146
-12.5877
-12.0042
-11.4588
-10.9471
-10.4649
-10.0089
-9.57611
-9.1641
-8.77078
-8.3944
-8.03354
-7.68704
-7.3539
-7.03327
-6.72442
-6.42662
-6.13919
-5.86147
-5.59286
-5.33282
-5.0809
-4.83671
-4.59987
-4.3701
-4.14711
-3.93068
-3.7206
-3.51671
-3.31891
-3.12709
-2.94119
-2.76116
-2.58693
-2.41845
-2.25567
-2.09852
-1.94697
-1.80099
-1.66054
-1.52563
-1.39625
-1.2724
-1.15409
-1.04135
-0.934185
-0.832616
-0.736644
-0.646275
-0.561509
-0.482352
-0.408814
-0.340909
-0.278659
-0.222086
-0.171213
-0.12607
-0.0867042
-0.0531542
-0.0254229
-0.00350676
0.012522
0.022442
0.0264622
-27.5471
-26.0572
-24.5297
-23.0162
-21.5644
-20.2023
-18.9355
-17.7668
-16.6987
-15.729
-14.8505
-14.0538
-13.3284
-12.6638
-12.0512
-11.4829
-10.9526
-10.4553
-9.98659
-9.54304
-9.1217
-8.72015
-8.33642
-7.96894
-7.61644
-7.27787
-6.95238
-6.63927
-6.33776
-6.04703
-5.76629
-5.49486
-5.23218
-4.97781
-4.73137
-4.49251
-4.26092
-4.03631
-3.81843
-3.60708
-3.40204
-3.20321
-3.01052
-2.82394
-2.64342
-2.46891
-2.30035
-2.13769
-1.98089
-1.82988
-1.68466
-1.54518
-1.41145
-1.28347
-1.16125
-1.04481
-0.93416
-0.829308
-0.730265
-0.637042
-0.549655
-0.468116
-0.392438
-0.322642
-0.258751
-0.20079
-0.148786
-0.102771
-0.0627762
-0.0288313
-0.000954871
0.0208515
0.0365578
0.0459809
0.0486698
0.0447013
-30.0334
-28.1353
-26.2252
-24.3254
-22.5824
-21.0302
-19.6235
-18.3404
-17.1748
-16.1215
-15.1723
-14.3171
-13.5434
-12.8386
-12.1922
-11.5957
-11.0417
-10.5244
-10.0385
-9.57985
-9.1449
-8.7308
-8.33533
-7.95679
-7.59385
-7.24542
-6.91082
-6.58947
-6.28058
-5.9831
-5.69601
-5.41855
-5.15015
-4.89043
-4.63908
-4.39579
-4.1602
-3.93197
-3.71082
-3.49654
-3.28895
-3.08793
-2.89344
-2.70543
-2.52386
-2.34862
-2.17965
-2.01686
-1.86019
-1.70957
-1.56498
-1.42638
-1.29376
-1.16713
-1.04652
-0.93194
-0.823416
-0.720943
-0.624525
-0.53417
-0.449895
-0.371724
-0.29968
-0.233786
-0.174066
-0.120536
-0.0732069
-0.0321076
0.00272541
0.0312927
0.0536469
0.0698788
0.0800593
0.0841179
0.0817673
0.0743738
-30.4561
-28.2016
-25.7815
-23.5728
-21.6655
-20.0077
-18.5641
-17.3057
-16.2062
-15.2387
-14.3806
-13.6087
-12.9049
-12.2575
-11.6575
-11.098
-10.5738
-10.0805
-9.6144
-9.17214
-8.75094
-8.34837
-7.96274
-7.59268
-7.23709
-6.8959
-6.56885
-6.25512
-5.95309
-5.66138
-5.37913
-5.10569
-4.84085
-4.58447
-4.33629
-4.09591
-3.86287
-3.63694
-3.41801
-3.20595
-3.00072
-2.80246
-2.61121
-2.42692
-2.24949
-2.07875
-1.91455
-1.75682
-1.60547
-1.46046
-1.32174
-1.1893
-1.06312
-0.943251
-0.829726
-0.72256
-0.62175
-0.527293
-0.439204
-0.357511
-0.282248
-0.213447
-0.151133
-0.0953221
-0.0460074
-0.00317036
0.0332005
0.06312
0.0866511
0.103946
0.115287
0.12109
0.121896
0.118642
0.118095
-30.2569
-28.4079
-26.6
-24.6311
-22.6681
-20.8717
-19.2616
-17.8356
-16.5979
-15.5247
-14.5952
-13.7792
-13.0498
-12.3871
-11.7779
-11.2139
-10.6889
-10.1961
-9.72956
-9.28429
-8.85613
-8.44301
-8.04469
-7.65938
-7.2863
-6.92744
-6.58554
-6.26055
-5.94918
-5.64902
-5.35885
-5.07817
-4.80723
-4.54579
-4.29325
-4.0489
-3.81197
-3.58234
-3.35997
-3.14446
-2.9357
-2.734
-2.53955
-2.35246
-2.1727
-2.00009
-1.83443
-1.67561
-1.52353
-1.37803
-1.23906
-1.10657
-0.980548
-0.861078
-0.74823
-0.642003
-0.542366
-0.449308
-0.36286
-0.283086
-0.210044
-0.143768
-0.0842944
-0.031639
0.0142449
0.0534155
0.0858905
0.111713
0.131018
0.1441
0.151511
0.154171
0.153552
0.152614
0.165849
-31.4314
-29.0533
-26.9992
-24.945
-22.9642
-21.1454
-19.5114
-18.0585
-16.7841
-15.6818
-14.7299
-13.8898
-13.1366
-12.452
-11.8223
-11.2381
-10.6926
-10.1797
-9.69444
-9.23312
-8.79343
-8.37517
-7.97843
-7.6035
-7.24797
-6.90575
-6.57139
-6.2445
-5.92947
-5.62828
-5.34074
-5.06494
-4.79725
-4.53626
-4.28189
-4.03289
-3.78952
-3.55365
-3.32563
-3.10501
-2.89207
-2.6871
-2.48996
-2.30044
-2.11848
-1.94404
-1.777
-1.61733
-1.46479
-1.31902
-1.17989
-1.04724
-0.921043
-0.801565
-0.689006
-0.583374
-0.484597
-0.392624
-0.307492
-0.229312
-0.158155
-0.0940425
-0.0370534
0.0127604
0.0555711
0.0915507
0.1207
0.143056
0.158812
0.168372
0.172505
0.172579
0.170907
0.17234
0.198655
-31.8852
-29.3424
-27.0058
-24.8328
-22.8193
-20.9988
-19.3843
-17.9622
-16.7283
-15.6558
-14.7178
-13.8855
-13.1368
-12.455
-11.8276
-11.2447
-10.699
-10.1855
-9.70036
-9.24024
-8.80265
-8.38647
-7.99021
-7.61159
-7.24735
-6.89417
-6.55004
-6.21624
-5.89554
-5.5882
-5.29338
-5.00964
-4.73507
-4.46936
-4.21294
-3.96606
-3.72832
-3.49796
-3.27424
-3.0578
-2.84874
-2.64655
-2.45109
-2.26246
-2.0808
-1.90619
-1.73863
-1.57801
-1.42428
-1.2775
-1.13744
-1.0041
-0.877643
-0.757925
-0.644923
-0.538801
-0.439739
-0.347851
-0.263213
-0.185825
-0.115664
-0.0527561
0.00288226
0.0512542
0.0923209
0.126061
0.152552
0.171975
0.184632
0.190917
0.191622
0.188296
0.183595
0.183678
0.211014
-31.3105
-28.4034
-25.8236
-23.6161
-21.6778
-19.9778
-18.5148
-17.2446
-16.1406
-15.1743
-14.3202
-13.5549
-12.8595
-12.2204
-11.6281
-11.0752
-10.5554
-10.064
-9.59683
-9.15049
-8.72291
-8.31331
-7.92117
-7.54514
-7.18317
-6.83339
-6.49476
-6.16761
-5.85251
-5.54908
-5.25646
-4.97368
-4.69953
-4.43371
-4.1767
-3.92847
-3.68847
-3.45594
-3.23088
-3.01386
-2.80451
-2.60199
-2.40613
-2.21707
-2.03488
-1.85963
-1.69132
-1.52984
-1.37517
-1.22739
-1.08643
-0.95234
-0.825193
-0.704919
-0.591537
-0.485191
-0.386014
-0.294179
-0.209751
-0.132676
-0.0629417
-0.000640611
0.0541449
0.101462
0.141227
0.17325
0.197535
0.214271
0.223733
0.226388
0.223075
0.215051
0.204203
0.195044
0.206559
-31.5157
-28.079
-24.9193
-22.2027
-20.0643
-18.3675
-16.9932
-15.8536
-14.8938
-14.0723
-13.356
-12.7176
-12.137
-11.6003
-11.0975
-10.6211
-10.1658
-9.72839
-9.30643
-8.89812
-8.50289
-8.12081
-7.75195
-7.39545
-7.04989
-6.71417
-6.38752
-6.07001
-5.76199
-5.46367
-5.17527
-4.89654
-4.62733
-4.3668
-4.1135
-3.86737
-3.62887
-3.39787
-3.1744
-2.95851
-2.74971
-2.54767
-2.35239
-2.16391
-1.98228
-1.80756
-1.63976
-1.4788
-1.32475
-1.17765
-1.03751
-0.904362
-0.778223
-0.659088
-0.546971
-0.441926
-0.344044
-0.253418
-0.170102
-0.0941278
-0.025528
0.0356406
0.0893096
0.135448
0.174008
0.204942
0.228244
0.243958
0.252238
0.253399
0.247945
0.236619
0.220438
0.201774
0.190808
-35.5332
-33.0987
-29.6271
-25.9982
-22.7746
-20.2735
-18.3442
-16.8009
-15.5258
-14.4613
-13.5645
-12.8007
-12.1406
-11.5584
-11.0333
-10.5502
-10.0991
-9.67403
-9.2685
-8.87649
-8.49651
-8.12861
-7.77299
-7.42937
-7.09707
-6.77503
-6.46214
-6.15741
-5.86063
-5.57227
-5.29254
-5.02132
-4.758
-4.50194
-4.25256
-4.00899
-3.77087
-3.53875
-3.31312
-3.09426
-2.88222
-2.67672
-2.47758
-2.28487
-2.09869
-1.91913
-1.74616
-1.57974
-1.41986
-1.26661
-1.12016
-0.980683
-0.848369
-0.72328
-0.605377
-0.494569
-0.390802
-0.294145
-0.204706
-0.122598
-0.0479276
0.0192547
0.0789035
0.130961
0.175372
0.212071
0.241097
0.262515
0.276211
0.282131
0.280476
0.271498
0.255568
0.233111
0.205245
0.173775
-35.3875
-32.5196
-29.1954
-25.8252
-22.9249
-20.657
-18.8447
-17.3129
-15.9851
-14.833
-13.8314
-12.9566
-12.19
-11.5137
-10.9104
-10.3672
-9.87634
-9.43475
-9.02701
-8.63416
-8.25374
-7.88688
-7.53325
-7.1917
-6.86139
-6.54184
-6.23248
-5.93273
-5.64221
-5.36067
-5.08782
-4.8235
-4.56706
-4.31782
-4.07529
-3.83894
-3.60838
-3.38398
-3.16617
-2.95506
-2.75041
-2.55187
-2.35937
-2.173
-1.99284
-1.81887
-1.65108
-1.48938
-1.3337
-1.18411
-1.04083
-0.904181
-0.774469
-0.651916
-0.536509
-0.428088
-0.326571
-0.232028
-0.144609
-0.064468
0.00824429
0.0733885
0.130871
0.180645
0.22267
0.256818
0.282961
0.300992
0.310798
0.312326
0.305646
0.290899
0.268232
0.237529
0.198072
0.148843
-32.4641
-29.8847
-27.1771
-24.5085
-22.1131
-20.0819
-18.3699
-16.9128
-15.6695
-14.6059
-13.6883
-12.8867
-12.179
-11.5451
-10.9661
-10.429
-9.92465
-9.43869
-8.96739
-8.51862
-8.09355
-7.69055
-7.30761
-6.94337
-6.59707
-6.26908
-5.95883
-5.66386
-5.38057
-5.10708
-4.84353
-4.58899
-4.34224
-4.10216
-3.86817
-3.64018
-3.41814
-3.20199
-2.9918
-2.78761
-2.58925
-2.39651
-2.2093
-2.02763
-1.85153
-1.68113
-1.51663
-1.35812
-1.20567
-1.0595
-0.919886
-0.787118
-0.661414
-0.54287
-0.431448
-0.327034
-0.229581
-0.139158
-0.055885
0.0200938
0.0886396
0.149647
0.203016
0.248694
0.286606
0.31651
0.338132
0.351252
0.355728
0.351443
0.338281
0.316134
0.284812
0.243663
0.190849
0.123195
-30.2792
-28.1213
-25.914
-23.7367
-21.7048
-19.8953
-18.3188
-16.9475
-15.7486
-14.6928
-13.7557
-12.9171
-12.1614
-11.4753
-10.8469
-10.2669
-9.728
-9.22407
-8.75346
-8.31462
-7.90303
-7.51439
-7.14561
-6.79433
-6.45832
-6.13459
-5.82052
-5.5155
-5.2208
-4.93726
-4.66404
-4.40003
-4.14469
-3.89811
-3.6602
-3.43028
-3.20748
-2.99124
-2.78169
-2.57899
-2.38302
-2.19341
-2.00988
-1.83229
-1.66065
-1.49497
-1.33531
-1.18174
-1.03446
-0.893706
-0.759677
-0.632486
-0.512185
-0.398772
-0.292257
-0.19264
-0.0999238
-0.0141917
0.0644556
0.135899
0.200014
0.25667
0.305709
0.346998
0.380287
0.405135
0.421159
0.428093
0.42566
0.413567
0.391524
0.359177
0.315971
0.260706
0.190515
0.099251
-26.7438
-24.8469
-22.982
-21.2185
-19.6083
-18.1662
-16.8801
-15.7305
-14.6994
-13.7711
-12.9313
-12.1674
-11.4684
-10.8252
-10.2299
-9.67592
-9.15802
-8.6722
-8.21507
-7.78356
-7.37507
-6.98749
-6.61887
-6.26744
-5.93167
-5.61069
-5.30403
-5.01106
-4.73063
-4.46148
-4.20266
-3.95317
-3.71154
-3.47679
-3.2489
-3.02817
-2.8148
-2.60839
-2.40855
-2.21514
-2.02796
-1.84664
-1.67107
-1.50134
-1.33755
-1.17978
-1.02804
-0.882498
-0.743365
-0.610835
-0.485088
-0.366252
-0.254423
-0.149656
-0.0519991
0.0384585
0.121627
0.197424
0.265781
0.326605
0.379719
0.424885
0.461808
0.490113
0.509421
0.519378
0.519622
0.509724
0.489215
0.457593
0.414229
0.35817
0.287655
0.199071
0.0828869
-25.7644
-24.0972
-22.4613
-20.9005
-19.4476
-18.1153
-16.9008
-15.795
-14.787
-13.8661
-13.022
-12.2452
-11.5274
-10.8619
-10.2427
-9.66482
-9.12393
-8.6166
-8.14009
-7.69193
-7.2697
-6.87103
-6.49368
-6.13568
-5.79521
-5.47066
-5.16059
-4.86366
-4.57873
-4.30488
-4.04139
-3.78751
-3.54248
-3.30588
-3.07753
-2.8572
-2.64453
-2.43898
-2.23992
-2.04689
-1.8599
-1.67929
-1.50525
-1.33775
-1.17673
-1.022
-0.873467
-0.731266
-0.595632
-0.466749
-0.344687
-0.229479
-0.121184
-0.019867
0.0743993
0.161504
0.241344
0.313828
0.37885
0.436245
0.485776
0.527176
0.560124
0.584213
0.598981
0.60394
0.598565
0.582278
0.55444
0.514312
0.461015
0.393402
0.309676
0.206715
0.0775546
-25.0022
-23.5032
-22.0291
-20.611
-19.2714
-18.0221
-16.8653
-15.7973
-14.8117
-13.9015
-13.0594
-12.2787
-11.5529
-10.8769
-10.2458
-9.65552
-9.10224
-8.58286
-8.09462
-7.63502
-7.20165
-6.79221
-6.40461
-6.03694
-5.6875
-5.35472
-5.03725
-4.73392
-4.44365
-4.1655
-3.89863
-3.6423
-3.39575
-3.1583
-2.9294
-2.70862
-2.49559
-2.28988
-2.09112
-1.89911
-1.71384
-1.5353
-1.36335
-1.19779
-1.03836
-0.885019
-0.738035
-0.597655
-0.464088
-0.337363
-0.217436
-0.104363
0.00178506
0.100916
0.192947
0.27779
0.355307
0.425324
0.48766
0.542118
0.588468
0.626433
0.655659
0.675696
0.686025
0.686065
0.675156
0.652544
0.617393
0.568767
0.505628
0.426843
0.331175
0.217263
0.0840628
-24.4291
-23.0511
-21.6924
-20.3771
-19.1227
-17.9393
-16.8307
-15.7962
-14.8322
-13.9342
-13.0971
-12.3159
-11.5859
-10.9028
-10.2626
-9.6621
-9.09804
-8.56777
-8.06886
-7.59898
-7.15593
-6.73755
-6.34183
-5.9669
-5.61103
-5.27261
-4.95024
-4.64261
-4.34855
-4.06701
-3.79708
-3.53794
-3.28885
-3.04915
-2.8183
-2.59586
-2.38141
-2.1746
-1.97509
-1.78267
-1.59719
-1.41853
-1.24654
-1.08111
-0.922171
-0.769765
-0.623999
-0.484949
-0.35261
-0.227014
-0.108293
0.00342135
0.108039
0.205498
0.295723
0.378606
0.454008
0.521759
0.581673
0.633535
0.677102
0.712092
0.738133
0.754747
0.761361
0.757299
0.741766
0.713846
0.672521
0.616703
0.54532
0.457427
0.352477
0.230823
0.0958548
-23.9888
-22.6953
-21.4171
-20.1743
-18.9812
-17.8467
-16.7751
-15.7672
-14.8213
-13.9346
-13.1035
-12.3244
-11.5935
-10.9074
-10.263
-9.65721
-9.0875
-8.55138
-8.0466
-7.57096
-7.12236
-6.69873
-6.29809
-5.91856
-5.55837
-5.21589
-4.88965
-4.57844
-4.28109
-3.99658
-3.72397
-3.46243
-3.21122
-2.96969
-2.73728
-2.51351
-2.29793
-2.09017
-1.8899
-1.69689
-1.51096
-1.332
-1.15991
-0.994572
-0.835911
-0.683933
-0.538677
-0.400187
-0.268479
-0.143617
-0.0256996
0.0852038
0.189012
0.285581
0.374771
0.456473
0.530582
0.596942
0.655357
0.705599
0.747389
0.780394
0.804206
0.818321
0.822124
0.814876
0.795698
0.763578
0.717395
0.655992
0.578316
0.48365
0.371992
0.244849
0.107655
-23.6917
-22.4506
-21.2226
-20.0258
-18.8724
-17.7705
-16.7245
-15.7357
-14.8036
-13.9264
-13.1013
-12.3255
-11.596
-10.9097
-10.2641
-9.65631
-9.0841
-8.54514
-8.03727
-7.55842
-7.10654
-6.67967
-6.27587
-5.89331
-5.53027
-5.18515
-4.85652
-4.54308
-4.24369
-3.95728
-3.68292
-3.41976
-3.16708
-2.92423
-2.69062
-2.46575
-2.24915
-2.04044
-1.8393
-1.64551
-1.45891
-1.27936
-1.10678
-0.94104
-0.782105
-0.629953
-0.484601
-0.346105
-0.214528
-0.0899097
0.0276952
0.138197
0.241501
0.337521
0.426149
0.507264
0.580733
0.646388
0.704013
0.753361
0.794143
0.826007
0.848508
0.861109
0.863171
0.853918
0.832422
0.797606
0.748288
0.683262
0.601492
0.502405
0.386367
0.255649
0.116659
-23.5135
-22.2981
-21.0959
-19.9234
-18.7922
-17.7094
-16.6791
-15.7029
-14.7806
-13.9107
-13.0911
-12.3192
-11.5924
-10.9079
-10.2632
-9.65587
-9.08365
-8.54435
-8.03586
-7.55619
-7.10333
-6.67537
-6.27043
-5.88671
-5.52253
-5.17631
-4.84664
-4.53221
-4.23185
-3.94451
-3.66925
-3.40523
-3.15172
-2.90808
-2.67372
-2.44814
-2.23089
-2.02159
-1.81993
-1.62566
-1.43862
-1.25866
-1.08567
-0.919564
-0.760288
-0.607826
-0.462201
-0.323432
-0.191596
-0.0667613
0.0510319
0.161672
0.265021
0.360991
0.449512
0.530471
0.603712
0.66912
0.726509
0.775604
0.816088
0.847583
0.869614
0.881601
0.882899
0.872746
0.850178
0.814086
0.763264
0.696499
0.61277
0.511565
0.393436
0.259987
0.119773
-23.4779
-22.2607
-21.0591
-19.8894
-18.7624
-17.6846
-16.6595
-15.6884
-14.7708
-13.9053
-13.0897
-12.3215
-11.5978
-10.9162
-10.2741
-9.66905
-9.09877
-8.56112
-8.05402
-7.57547
-7.12351
-6.69623
-6.29179
-5.90842
-5.54446
-5.19835
-4.86869
-4.5542
-4.2537
-3.96617
-3.69065
-3.42633
-3.17245
-2.92838
-2.69354
-2.46741
-2.24958
-2.03966
-1.83737
-1.64244
-1.45472
-1.27407
-1.10038
-0.933577
-0.773584
-0.620406
-0.474077
-0.334621
-0.202126
-0.0766668
0.0417199
0.15293
0.256864
0.353431
0.442531
0.524028
0.59777
0.663612
0.721373
0.7708
0.811591
0.843365
0.865663
0.877917
0.879461
0.869508
0.847112
0.811186
0.760544
0.693993
0.610539
0.509692
0.392
0.259093
0.11924
-23.5766
-22.331
-21.1061
-19.9188
-18.7791
-17.6929
-16.6629
-15.6897
-14.7722
-13.9083
-13.0953
-12.3304
-11.6106
-10.933
-10.2949
-9.69382
-9.12737
-8.59333
-8.08959
-7.61411
-7.16493
-6.74013
-6.33788
-5.95644
-5.59414
-5.24944
-4.92095
-4.60738
-4.3076
-4.02062
-3.74548
-3.48138
-3.22759
-2.98345
-2.74839
-2.52191
-2.30362
-2.09315
-1.89019
-1.69452
-1.50598
-1.32443
-1.14981
-0.98202
-0.821004
-0.666775
-0.519377
-0.37888
-0.245345
-0.118816
0.000643117
0.112936
0.21797
0.315641
0.405826
0.488372
0.56315
0.630005
0.688736
0.739085
0.78076
0.813415
0.836613
0.849825
0.852414
0.843612
0.822505
0.788059
0.739152
0.674651
0.593596
0.495481
0.380687
0.251429
0.113965
-23.7785
-22.4801
-21.2105
-19.9871
-18.8197
-17.7136
-16.6704
-15.6895
-14.7686
-13.9045
-13.0936
-12.3325
-11.6175
-10.9455
-10.3133
-9.71822
-9.15771
-8.62945
-8.13127
-7.66103
-7.21673
-6.79642
-6.39827
-6.02055
-5.66158
-5.31984
-4.99393
-4.68257
-4.38468
-4.09927
-3.82545
-3.56242
-3.30946
-3.06593
-2.8313