/*--------------------------------*- C++ -*----------------------------------*\
  =========                 |
  \\      /  F ield         | OpenFOAM: The Open Source CFD Toolbox
   \\    /   O peration     | Website:  https://openfoam.org
    \\  /    A nd           | Version:  13
     \\/     M anipulation  |
\*---------------------------------------------------------------------------*/
FoamFile
{
    format      ascii;
    class       volScalarField;
    location    "700";
    object      nut;
}
// * * * * * * * * * * * * * * * * * * * * * * * * * * * * * * * * * * * * * //

dimensions      [0 2 -1 0 0 0 0];

internalField   nonuniform List<scalar> 
172836
(
0.0176196
0.0176089
0.0175982
0.0175876
0.0175771
0.0175666
0.0175563
0.017546
0.0176358
0.0176251
0.0176145
0.017604
0.0175936
0.0175832
0.0175729
0.0175627
0.0176838
0.0176731
0.0176625
0.017652
0.0176416
0.0176312
0.017621
0.0176108
0.0176006
0.0177517
0.0177411
0.0177306
0.0177202
0.0177099
0.0176997
0.0176895
0.0176794
0.0176693
0.0178603
0.0178498
0.0178394
0.0178291
0.0178189
0.0178087
0.0177985
0.0177884
0.0177784
0.0180165
0.0180061
0.0179957
0.0179854
0.0179751
0.0179649
0.0179547
0.0179445
0.0179344
0.0182216
0.0182112
0.0182008
0.0181905
0.0181801
0.0181698
0.0181596
0.0181493
0.0181391
0.0184711
0.0184608
0.0184504
0.0184402
0.0184299
0.0184196
0.0184094
0.0183991
0.0183889
0.0187355
0.0187256
0.0187156
0.0187057
0.0186957
0.0186858
0.0186758
0.0186658
0.0176461
0.017635
0.0176241
0.0176132
0.0176024
0.0175917
0.0175811
0.0175705
0.0175601
0.0175497
0.0175394
0.0175293
0.0175197
0.0176617
0.0176508
0.0176399
0.017629
0.0176183
0.0176077
0.0175972
0.0175867
0.0175763
0.017566
0.0175558
0.0175457
0.0175362
0.017698
0.0176872
0.0176764
0.0176657
0.0176551
0.0176446
0.0176341
0.0176238
0.0176135
0.0176032
0.0175931
0.017583
0.0175736
0.0177647
0.017754
0.0177434
0.0177328
0.0177224
0.017712
0.0177016
0.0176914
0.0176812
0.017671
0.017661
0.017651
0.0176417
0.0178721
0.0178615
0.017851
0.0178406
0.0178302
0.0178199
0.0178096
0.0177994
0.0177893
0.0177792
0.0177692
0.0177592
0.0177499
0.0180272
0.0180167
0.0180063
0.0179959
0.0179855
0.0179752
0.017965
0.0179548
0.0179446
0.0179345
0.0179245
0.0179145
0.0179051
0.0182314
0.0182209
0.0182105
0.0182001
0.0181898
0.0181795
0.0181692
0.018159
0.0181488
0.0181387
0.0181285
0.0181185
0.018109
0.0184796
0.0184692
0.0184589
0.0184487
0.0184385
0.0184283
0.0184181
0.0184079
0.0183978
0.0183876
0.0183775
0.0183674
0.0183579
0.0187513
0.0187414
0.0187316
0.0187217
0.0187119
0.0187021
0.0186923
0.0186825
0.0186726
0.0186628
0.018653
0.0186431
0.0186338
0.0189055
0.0184039
0.0183912
0.0183785
0.0183657
0.0183529
0.01834
0.0183271
0.0183141
0.0183012
0.0182882
0.0182753
0.0182623
0.0182494
0.0182365
0.0182236
0.0182108
0.0181981
0.0181854
0.0181727
0.0181601
0.0181476
0.0181352
0.0181229
0.0181106
0.0180985
0.0180864
0.0180744
0.0180626
0.0180507
0.018039
0.0180274
0.0180158
0.0180043
0.0179928
0.0179814
0.0179701
0.0179587
0.0179474
0.0179361
0.0179248
0.0179136
0.0179023
0.0178909
0.0178796
0.0178683
0.0178569
0.0178455
0.017834
0.0178226
0.0178111
0.0177995
0.017788
0.0177765
0.0177649
0.0177533
0.0177418
0.0177303
0.0177187
0.0177073
0.0176958
0.0176844
0.0176731
0.0176619
0.0176507
0.0176396
0.0176286
0.0176176
0.0176067
0.0175959
0.0175852
0.0175745
0.017564
0.0175535
0.0175431
0.0175328
0.0175226
0.0175131
0.0184126
0.0184001
0.0183876
0.018375
0.0183623
0.0183496
0.0183368
0.0183241
0.0183113
0.0182985
0.0182857
0.0182729
0.0182601
0.0182473
0.0182345
0.0182218
0.0182092
0.0181966
0.018184
0.0181716
0.0181592
0.0181468
0.0181346
0.0181224
0.0181103
0.0180983
0.0180864
0.0180746
0.0180629
0.0180512
0.0180396
0.0180281
0.0180167
0.0180053
0.017994
0.0179827
0.0179715
0.0179602
0.017949
0.0179378
0.0179266
0.0179154
0.0179042
0.0178929
0.0178816
0.0178704
0.017859
0.0178477
0.0178363
0.0178249
0.0178135
0.0178021
0.0177906
0.0177792
0.0177677
0.0177563
0.0177448
0.0177334
0.017722
0.0177107
0.0176994
0.0176882
0.017677
0.0176659
0.0176549
0.0176439
0.017633
0.0176222
0.0176115
0.0176008
0.0175903
0.0175798
0.0175694
0.0175591
0.0175488
0.0175387
0.0175292
0.0184369
0.0184249
0.0184127
0.0184005
0.0183881
0.0183758
0.0183634
0.0183509
0.0183384
0.0183259
0.0183134
0.0183008
0.0182883
0.0182757
0.0182632
0.0182507
0.0182382
0.0182258
0.0182134
0.0182011
0.0181888
0.0181767
0.0181645
0.0181525
0.0181405
0.0181287
0.0181169
0.0181052
0.0180935
0.018082
0.0180705
0.0180591
0.0180478
0.0180365
0.0180253
0.0180141
0.018003
0.0179918
0.0179807
0.0179697
0.0179586
0.0179475
0.0179364
0.0179253
0.0179142
0.017903
0.0178919
0.0178807
0.0178695
0.0178582
0.017847
0.0178357
0.0178244
0.0178131
0.0178018
0.0177906
0.0177793
0.017768
0.0177568
0.0177456
0.0177345
0.0177234
0.0177124
0.0177015
0.0176906
0.0176797
0.017669
0.0176583
0.0176476
0.0176371
0.0176266
0.0176162
0.0176059
0.0175957
0.0175855
0.0175754
0.017566
0.0184907
0.0184793
0.0184677
0.018456
0.0184443
0.0184324
0.0184204
0.0184084
0.0183963
0.0183842
0.018372
0.0183598
0.0183476
0.0183353
0.018323
0.0183107
0.0182985
0.0182862
0.018274
0.0182619
0.0182498
0.0182377
0.0182257
0.0182138
0.0182019
0.0181901
0.0181784
0.0181667
0.0181551
0.0181436
0.0181322
0.0181208
0.0181095
0.0180983
0.0180871
0.018076
0.0180649
0.0180538
0.0180428
0.0180318
0.0180207
0.0180097
0.0179987
0.0179877
0.0179767
0.0179656
0.0179546
0.0179435
0.0179324
0.0179214
0.0179102
0.0178991
0.017888
0.0178769
0.0178658
0.0178546
0.0178436
0.0178325
0.0178214
0.0178104
0.0177995
0.0177886
0.0177778
0.017767
0.0177563
0.0177456
0.017735
0.0177244
0.017714
0.0177036
0.0176932
0.017683
0.0176728
0.0176627
0.0176526
0.0176426
0.0176333
0.0185919
0.0185812
0.0185703
0.0185593
0.0185481
0.0185367
0.0185253
0.0185137
0.018502
0.0184902
0.0184783
0.0184664
0.0184544
0.0184423
0.0184302
0.0184181
0.0184059
0.0183937
0.0183815
0.0183694
0.0183573
0.0183452
0.0183331
0.0183211
0.0183091
0.0182972
0.0182854
0.0182736
0.0182618
0.0182502
0.0182386
0.0182271
0.0182156
0.0182042
0.0181928
0.0181815
0.0181703
0.0181591
0.0181479
0.0181367
0.0181256
0.0181145
0.0181034
0.0180923
0.0180812
0.0180702
0.0180591
0.018048
0.0180369
0.0180259
0.0180148
0.0180037
0.0179927
0.0179816
0.0179706
0.0179596
0.0179486
0.0179377
0.0179268
0.0179159
0.0179051
0.0178944
0.0178837
0.0178731
0.0178625
0.017852
0.0178415
0.0178311
0.0178207
0.0178104
0.0178002
0.0177901
0.01778
0.0177699
0.0177599
0.01775
0.0177407
0.018753
0.018743
0.0187327
0.0187221
0.0187114
0.0187005
0.0186893
0.0186781
0.0186666
0.018655
0.0186433
0.0186315
0.0186195
0.0186075
0.0185953
0.0185831
0.0185708
0.0185585
0.0185462
0.0185338
0.0185214
0.0185091
0.0184967
0.0184843
0.018472
0.0184597
0.0184475
0.0184352
0.0184231
0.018411
0.0183989
0.0183869
0.018375
0.0183631
0.0183513
0.0183395
0.0183278
0.0183162
0.0183046
0.018293
0.0182815
0.0182701
0.0182586
0.0182472
0.0182359
0.0182245
0.0182132
0.0182019
0.0181907
0.0181795
0.0181683
0.0181571
0.018146
0.018135
0.0181239
0.0181129
0.018102
0.0180911
0.0180802
0.0180694
0.0180587
0.018048
0.0180374
0.0180269
0.0180164
0.018006
0.0179956
0.0179852
0.017975
0.0179647
0.0179546
0.0179445
0.0179344
0.0179244
0.0179144
0.0179045
0.0178952
0.0189707
0.0189611
0.0189513
0.0189412
0.0189308
0.0189201
0.0189092
0.0188981
0.0188869
0.0188754
0.0188637
0.0188519
0.0188399
0.0188278
0.0188156
0.0188032
0.0187908
0.0187782
0.0187656
0.0187529
0.0187402
0.0187274
0.0187146
0.0187018
0.018689
0.0186762
0.0186634
0.0186506
0.0186378
0.0186251
0.0186124
0.0185998
0.0185872
0.0185747
0.0185622
0.0185498
0.0185375
0.0185252
0.018513
0.0185009
0.0184888
0.0184768
0.0184648
0.018453
0.0184412
0.0184294
0.0184177
0.0184061
0.0183946
0.0183831
0.0183717
0.0183603
0.0183491
0.0183379
0.0183267
0.0183157
0.0183047
0.0182938
0.0182829
0.0182721
0.0182615
0.0182508
0.0182403
0.0182299
0.0182194
0.018209
0.0181987
0.0181885
0.0181783
0.0181681
0.018158
0.0181479
0.0181378
0.0181278
0.0181177
0.0181078
0.0180984
0.0192185
0.0192097
0.0192005
0.0191911
0.0191813
0.0191712
0.0191609
0.0191503
0.0191395
0.0191284
0.0191172
0.0191057
0.0190941
0.0190823
0.0190703
0.0190582
0.019046
0.0190336
0.019021
0.0190084
0.0189957
0.0189829
0.01897
0.0189571
0.0189441
0.018931
0.018918
0.0189049
0.0188918
0.0188787
0.0188656
0.0188526
0.0188396
0.0188266
0.0188137
0.0188008
0.018788
0.0187753
0.0187626
0.0187501
0.0187376
0.0187252
0.0187128
0.0187006
0.0186885
0.0186764
0.0186645
0.0186526
0.0186409
0.0186292
0.0186177
0.0186062
0.0185949
0.0185837
0.0185725
0.0185615
0.0185505
0.0185397
0.0185289
0.0185183
0.0185077
0.0184973
0.0184869
0.0184766
0.0184663
0.0184562
0.018446
0.0184359
0.0184258
0.0184158
0.0184058
0.0183958
0.0183858
0.0183759
0.0183659
0.0183559
0.0183465
0.0194536
0.0194461
0.0194381
0.0194298
0.0194212
0.0194122
0.019403
0.0193935
0.0193838
0.0193738
0.0193636
0.0193531
0.0193425
0.0193316
0.0193206
0.0193094
0.0192981
0.0192865
0.0192748
0.019263
0.019251
0.0192389
0.0192266
0.0192143
0.0192018
0.0191893
0.0191767
0.019164
0.0191513
0.0191386
0.0191258
0.0191131
0.0191003
0.0190876
0.0190749
0.0190622
0.0190496
0.019037
0.0190245
0.0190121
0.0189997
0.0189875
0.0189753
0.0189632
0.0189513
0.0189394
0.0189277
0.0189161
0.0189046
0.0188932
0.0188819
0.0188708
0.0188598
0.0188489
0.0188381
0.0188274
0.0188169
0.0188064
0.0187961
0.0187859
0.0187758
0.0187658
0.0187559
0.0187461
0.0187363
0.0187266
0.0187169
0.0187072
0.0186976
0.018688
0.0186784
0.0186688
0.0186591
0.0186495
0.0186398
0.0186301
0.018621
0.019651
0.019645
0.0196385
0.0196317
0.0196245
0.0196171
0.0196093
0.0196012
0.0195929
0.0195843
0.0195755
0.0195664
0.0195572
0.0195477
0.019538
0.0195282
0.0195181
0.0195079
0.0194975
0.0194868
0.0194761
0.0194651
0.019454
0.0194428
0.0194314
0.0194199
0.0194084
0.0193967
0.0193849
0.0193731
0.0193612
0.0193493
0.0193373
0.0193254
0.0193135
0.0193015
0.0192897
0.0192778
0.019266
0.0192543
0.0192427
0.0192311
0.0192196
0.0192083
0.019197
0.0191858
0.0191748
0.0191639
0.0191531
0.0191424
0.0191319
0.0191215
0.0191112
0.019101
0.019091
0.0190811
0.0190713
0.0190616
0.0190521
0.0190426
0.0190333
0.0190241
0.019015
0.0190059
0.0189969
0.0189879
0.018979
0.0189701
0.0189613
0.0189524
0.0189435
0.0189346
0.0189256
0.0189166
0.0189075
0.0188985
0.0188898
0.0198107
0.0198063
0.0198014
0.0197961
0.0197905
0.0197845
0.0197782
0.0197716
0.0197648
0.0197576
0.0197503
0.0197427
0.0197349
0.0197268
0.0197186
0.0197101
0.0197015
0.0196926
0.0196835
0.0196743
0.0196648
0.0196552
0.0196453
0.0196353
0.0196252
0.0196149
0.0196044
0.0195939
0.0195832
0.0195725
0.0195616
0.0195508
0.0195398
0.0195289
0.0195179
0.019507
0.0194961
0.0194852
0.0194743
0.0194635
0.0194528
0.0194421
0.0194316
0.0194211
0.0194108
0.0194005
0.0193904
0.0193804
0.0193705
0.0193607
0.0193511
0.0193416
0.0193322
0.019323
0.0193139
0.0193049
0.019296
0.0192873
0.0192786
0.0192701
0.0192617
0.0192534
0.0192452
0.0192371
0.019229
0.0192209
0.0192129
0.0192049
0.0191969
0.0191889
0.0191809
0.0191728
0.0191647
0.0191565
0.0191482
0.0191399
0.019132
0.0199436
0.0199408
0.0199375
0.0199337
0.0199296
0.0199251
0.0199202
0.0199151
0.0199096
0.0199039
0.019898
0.0198918
0.0198854
0.0198787
0.0198718
0.0198647
0.0198573
0.0198497
0.0198419
0.0198339
0.0198256
0.0198172
0.0198085
0.0197996
0.0197905
0.0197813
0.0197719
0.0197623
0.0197526
0.0197428
0.0197329
0.0197229
0.0197129
0.0197028
0.0196927
0.0196826
0.0196725
0.0196624
0.0196524
0.0196424
0.0196325
0.0196227
0.019613
0.0196034
0.0195939
0.0195845
0.0195752
0.0195661
0.0195571
0.0195482
0.0195395
0.0195309
0.0195225
0.0195142
0.019506
0.0194979
0.01949
0.0194822
0.0194746
0.019467
0.0194596
0.0194522
0.019445
0.0194377
0.0194306
0.0194235
0.0194165
0.0194094
0.0194023
0.0193952
0.019388
0.0193808
0.0193736
0.0193662
0.0193588
0.0193514
0.0193442
0.0200624
0.0200611
0.0200594
0.0200571
0.0200544
0.0200513
0.0200479
0.0200441
0.02004
0.0200357
0.020031
0.0200261
0.020021
0.0200156
0.0200099
0.020004
0.0199979
0.0199914
0.0199847
0.0199778
0.0199706
0.0199631
0.0199554
0.0199474
0.0199392
0.0199308
0.0199222
0.0199134
0.0199044
0.0198953
0.0198861
0.0198767
0.0198673
0.0198578
0.0198483
0.0198387
0.0198292
0.0198198
0.0198103
0.019801
0.0197917
0.0197825
0.0197734
0.0197644
0.0197556
0.0197469
0.0197384
0.01973
0.0197217
0.0197137
0.0197057
0.019698
0.0196904
0.0196829
0.0196756
0.0196685
0.0196615
0.0196546
0.0196478
0.0196412
0.0196347
0.0196283
0.0196219
0.0196157
0.0196095
0.0196033
0.0195971
0.0195909
0.0195848
0.0195785
0.0195723
0.0195659
0.0195595
0.019553
0.0195464
0.0195397
0.0195333
0.0201778
0.0201783
0.0201781
0.0201774
0.0201762
0.0201745
0.0201725
0.0201701
0.0201673
0.0201643
0.020161
0.0201573
0.0201534
0.0201493
0.0201448
0.0201401
0.0201351
0.0201297
0.020124
0.0201181
0.0201117
0.0201051
0.0200982
0.0200909
0.0200833
0.0200755
0.0200674
0.020059
0.0200505
0.0200417
0.0200328
0.0200237
0.0200146
0.0200053
0.019996
0.0199867
0.0199774
0.0199682
0.019959
0.0199499
0.0199409
0.019932
0.0199233
0.0199147
0.0199063
0.0198981
0.01989
0.0198822
0.0198746
0.0198671
0.0198599
0.0198528
0.019846
0.0198393
0.0198328
0.0198265
0.0198203
0.0198144
0.0198085
0.0198028
0.0197972
0.0197917
0.0197864
0.019781
0.0197758
0.0197705
0.0197653
0.0197601
0.0197547
0.0197494
0.0197439
0.0197384
0.0197327
0.019727
0.0197211
0.0197151
0.0197093
0.0202991
0.0203014
0.0203029
0.0203038
0.0203041
0.0203039
0.0203032
0.0203022
0.0203008
0.0202991
0.0202971
0.0202948
0.0202921
0.0202892
0.0202859
0.0202824
0.0202784
0.0202741
0.0202694
0.0202643
0.0202588
0.0202529
0.0202465
0.0202398
0.0202327
0.0202252
0.0202173
0.0202092
0.0202007
0.020192
0.0201831
0.020174
0.0201647
0.0201553
0.0201459
0.0201365
0.0201271
0.0201177
0.0201084
0.0200993
0.0200902
0.0200814
0.0200727
0.0200643
0.0200561
0.0200481
0.0200404
0.0200329
0.0200257
0.0200187
0.020012
0.0200056
0.0199994
0.0199934
0.0199877
0.0199822
0.0199769
0.0199717
0.0199668
0.019962
0.0199574
0.0199529
0.0199484
0.0199441
0.0199398
0.0199355
0.0199312
0.0199268
0.0199224
0.0199179
0.0199133
0.0199085
0.0199036
0.0198985
0.0198933
0.0198879
0.0198826
0.0204333
0.0204375
0.0204408
0.0204433
0.0204452
0.0204466
0.0204474
0.0204478
0.0204478
0.0204474
0.0204468
0.0204458
0.0204446
0.0204429
0.020441
0.0204386
0.0204358
0.0204326
0.0204289
0.0204246
0.0204199
0.0204145
0.0204087
0.0204023
0.0203954
0.020388
0.0203802
0.0203719
0.0203632
0.0203542
0.0203449
0.0203353
0.0203256
0.0203157
0.0203057
0.0202957
0.0202858
0.0202759
0.0202661
0.0202565
0.0202471
0.0202379
0.020229
0.0202204
0.0202121
0.0202041
0.0201965
0.0201892
0.0201822
0.0201756
0.0201693
0.0201634
0.0201578
0.0201525
0.0201475
0.0201428
0.0201383
0.0201341
0.0201301
0.0201263
0.0201227
0.0201192
0.0201158
0.0201124
0.0201092
0.0201059
0.0201027
0.0200992
0.0200957
0.020092
0.0200881
0.0200841
0.0200799
0.0200755
0.0200708
0.0200659
0.0200611
0.0205856
0.0205918
0.0205969
0.0206011
0.0206045
0.0206073
0.0206095
0.0206112
0.0206126
0.0206136
0.0206143
0.0206147
0.0206147
0.0206144
0.0206137
0.0206126
0.020611
0.0206089
0.0206061
0.0206028
0.0205987
0.0205939
0.0205884
0.0205823
0.0205755
0.020568
0.0205599
0.0205513
0.0205421
0.0205325
0.0205225
0.0205121
0.0205015
0.0204907
0.0204799
0.0204689
0.0204581
0.0204473
0.0204367
0.0204263
0.0204162
0.0204063
0.0203969
0.0203878
0.0203791
0.0203709
0.0203631
0.0203558
0.0203489
0.0203425
0.0203365
0.020331
0.0203259
0.0203212
0.0203169
0.0203129
0.0203092
0.0203059
0.0203028
0.0203
0.0202973
0.0202949
0.0202925
0.0202903
0.020288
0.0202857
0.0202833
0.0202808
0.0202782
0.0202753
0.0202722
0.0202688
0.0202652
0.0202613
0.0202571
0.0202525
0.0202479
0.020758
0.0207658
0.0207724
0.0207779
0.0207825
0.0207864
0.0207896
0.0207924
0.0207948
0.0207969
0.0207987
0.0208003
0.0208015
0.0208023
0.0208028
0.0208029
0.0208024
0.0208013
0.0207995
0.020797
0.0207937
0.0207894
0.0207843
0.0207782
0.0207713
0.0207636
0.0207551
0.0207459
0.020736
0.0207255
0.0207145
0.020703
0.0206912
0.0206792
0.020667
0.0206548
0.0206426
0.0206306
0.0206187
0.0206072
0.020596
0.0205852
0.0205748
0.0205649
0.0205556
0.0205468
0.0205386
0.020531
0.0205239
0.0205174
0.0205115
0.0205061
0.0205013
0.020497
0.0204931
0.0204897
0.0204867
0.020484
0.0204817
0.0204797
0.0204779
0.0204763
0.0204749
0.0204734
0.020472
0.0204705
0.0204691
0.0204673
0.0204653
0.020463
0.0204604
0.0204575
0.0204543
0.0204507
0.0204467
0.0204423
0.0204376
0.020946
0.0209544
0.0209613
0.0209669
0.0209715
0.0209753
0.0209784
0.0209811
0.0209835
0.0209856
0.0209876
0.0209894
0.0209909
0.0209922
0.0209933
0.0209939
0.0209941
0.0209937
0.0209927
0.0209908
0.0209881
0.0209844
0.0209798
0.020974
0.0209672
0.0209593
0.0209506
0.0209409
0.0209304
0.0209191
0.0209072
0.0208947
0.0208817
0.0208685
0.020855
0.0208415
0.020828
0.0208146
0.0208014
0.0207886
0.0207761
0.0207641
0.0207526
0.0207416
0.0207313
0.0207216
0.0207126
0.0207042
0.0206965
0.0206895
0.0206831
0.0206774
0.0206723
0.0206678
0.0206638
0.0206603
0.0206573
0.0206547
0.0206524
0.0206505
0.0206489
0.0206474
0.0206461
0.020645
0.0206437
0.0206424
0.0206409
0.0206393
0.0206375
0.0206353
0.0206327
0.0206298
0.0206265
0.0206228
0.0206188
0.0206141
0.0206093
0.0211272
0.0211333
0.0211377
0.0211409
0.0211429
0.0211441
0.0211447
0.0211449
0.0211449
0.0211448
0.0211448
0.0211447
0.0211447
0.0211446
0.0211446
0.0211445
0.0211442
0.0211437
0.0211427
0.0211413
0.0211392
0.0211363
0.0211325
0.0211278
0.0211219
0.021115
0.021107
0.0210979
0.0210879
0.0210769
0.0210651
0.0210525
0.0210394
0.0210258
0.0210119
0.0209978
0.0209836
0.0209694
0.0209553
0.0209415
0.020928
0.0209148
0.0209021
0.02089
0.0208784
0.0208673
0.0208569
0.0208472
0.020838
0.0208295
0.0208217
0.0208144
0.0208077
0.0208016
0.0207961
0.020791
0.0207864
0.0207822
0.0207783
0.0207748
0.0207716
0.0207686
0.0207658
0.020763
0.0207604
0.0207576
0.0207549
0.020752
0.0207488
0.0207455
0.0207419
0.020738
0.0207339
0.0207296
0.0207249
0.0207199
0.0207147
0.0212464
0.0212455
0.0212425
0.0212382
0.0212327
0.0212264
0.0212195
0.0212122
0.0212049
0.0211976
0.0211906
0.021184
0.0211779
0.0211723
0.0211674
0.0211632
0.0211597
0.0211569
0.0211547
0.021153
0.0211516
0.0211504
0.0211491
0.0211475
0.0211454
0.0211425
0.0211388
0.021134
0.0211282
0.0211212
0.0211132
0.0211042
0.0210943
0.0210837
0.0210724
0.0210605
0.0210482
0.0210356
0.0210226
0.0210096
0.0209964
0.0209832
0.02097
0.020957
0.0209441
0.0209314
0.020919
0.0209068
0.0208948
0.0208832
0.0208718
0.0208607
0.0208499
0.0208394
0.0208292
0.0208193
0.0208096
0.0208002
0.020791
0.0207821
0.0207734
0.020765
0.0207567
0.0207489
0.020741
0.0207334
0.0207258
0.0207185
0.0207114
0.0207044
0.0206976
0.020691
0.0206848
0.0206788
0.0206733
0.0206679
0.0206627
0.021182
0.0211622
0.0211409
0.0211183
0.0210948
0.0210707
0.0210461
0.0210216
0.0209973
0.0209737
0.020951
0.0209296
0.0209101
0.0208927
0.0208779
0.0208659
0.020857
0.0208512
0.0208486
0.0208489
0.0208519
0.0208571
0.0208641
0.0208723
0.0208811
0.02089
0.0208986
0.0209062
0.0209124
0.0209172
0.0209205
0.0209223
0.0209226
0.0209215
0.0209189
0.020915
0.0209098
0.0209032
0.0208954
0.0208864
0.0208762
0.0208649
0.0208525
0.0208392
0.0208249
0.0208097
0.0207936
0.0207767
0.020759
0.0207406
0.0207215
0.0207018
0.0206816
0.0206609
0.0206398
0.0206184
0.0205968
0.020575
0.0205531
0.0205313
0.0205098
0.0204886
0.0204676
0.0204474
0.0204277
0.0204089
0.0203909
0.020374
0.0203584
0.0203442
0.0203317
0.020321
0.0203123
0.0203055
0.0203008
0.0202975
0.0207499
0.020696
0.0206399
0.0205831
0.0205256
0.0204673
0.0204086
0.0203499
0.0202918
0.0202349
0.0201801
0.0201284
0.0200809
0.0200387
0.0200029
0.0199744
0.0199539
0.0199419
0.0199385
0.0199438
0.0199571
0.0199778
0.0200049
0.0200371
0.0200732
0.0201119
0.0201517
0.0201917
0.0202305
0.0202671
0.020301
0.0203322
0.0203603
0.0203852
0.0204068
0.0204249
0.0204395
0.0204504
0.0204576
0.0204611
0.0204609
0.0204569
0.0204493
0.020438
0.0204231
0.0204046
0.0203828
0.0203576
0.0203292
0.0202978
0.0202634
0.0202264
0.0201868
0.0201449
0.020101
0.0200552
0.020008
0.0199598
0.0199107
0.0198614
0.0198121
0.0197634
0.0197159
0.0196697
0.0196256
0.019584
0.0195457
0.0195112
0.0194811
0.019456
0.0194364
0.0194229
0.0194157
0.0194152
0.0194212
0.0194316
0.0195152
0.0194052
0.0192932
0.0191819
0.0190706
0.0189592
0.0188479
0.0187377
0.0186299
0.0185262
0.0184284
0.0183388
0.0182597
0.0181932
0.0181413
0.0181054
0.0180867
0.0180857
0.0181025
0.0181364
0.0181863
0.0182505
0.018327
0.0184134
0.0185072
0.0186061
0.0187072
0.0188087
0.0189079
0.0190027
0.0190923
0.0191761
0.0192536
0.0193243
0.0193876
0.0194431
0.0194906
0.0195297
0.0195601
0.0195819
0.0195947
0.0195987
0.0195937
0.0195799
0.0195574
0.0195264
0.019487
0.0194397
0.0193847
0.0193224
0.0192535
0.0191784
0.0190977
0.0190124
0.0189232
0.0188313
0.0187377
0.0186438
0.0185508
0.0184604
0.0183742
0.0182935
0.0182206
0.0181569
0.0181046
0.0180648
0.0180395
0.01803
0.0180375
0.0180626
0.0181057
0.0181672
0.018246
0.0183405
0.0184418
0.0170991
0.0169351
0.0167687
0.0166039
0.0164396
0.0162761
0.0161147
0.0159575
0.0158072
0.015667
0.0155403
0.0154303
0.0153402
0.0152726
0.0152294
0.0152122
0.0152216
0.0152577
0.0153199
0.0154072
0.0155176
0.015649
0.0157986
0.015963
0.0161392
0.0163231
0.016511
0.0167002
0.016886
0.0170651
0.0172358
0.0173966
0.0175461
0.0176828
0.0178057
0.0179136
0.0180057
0.0180814
0.01814
0.0181812
0.0182048
0.0182108
0.0181994
0.0181712
0.0181266
0.0180668
0.0179928
0.0179063
0.0178089
0.017703
0.0175909
0.0174757
0.0173604
0.0172486
0.0171438
0.0170498
0.0169705
0.0169098
0.0168712
0.0168581
0.0168739
0.0169205
0.0170006
0.0171153
0.0172658
0.0174518
0.0176733
0.0179288
0.0182157
0.0185322
0.0188751
0.0192393
0.0196174
0.0199859
0.0136304
0.0134557
0.0132853
0.0131185
0.0129562
0.0128009
0.0126561
0.0125256
0.0124135
0.0123229
0.0122563
0.0122148
0.0121986
0.0122069
0.0122384
0.0122916
0.0123652
0.0124584
0.0125705
0.0127015
0.0128513
0.0130198
0.0132065
0.0134103
0.01363
0.0138629
0.0141056
0.0143558
0.0146079
0.0148569
0.015099
0.0153304
0.0155477
0.0157481
0.0159289
0.0160881
0.0162245
0.0163372
0.0164262
0.0164923
0.0165372
0.016563
0.0165731
0.0165714
0.0165627
0.0165521
0.0165454
0.0165486
0.0165674
0.0166076
0.0166748
0.0167737
0.0169086
0.0170832
0.0173002
0.0175618
0.0178694
0.0182236
0.0186246
0.0190714
0.019563
0.0200974
0.0206725
0.0212847
0.0219308
0.0226072
0.023309
0.02403
0.0247673
0.0255148
0.0262638
0.0270041
0.0276956
0.0102707
0.0101907
0.0101262
0.0100812
0.0100615
0.0100741
0.010125
0.0102184
0.0103545
0.0105295
0.0107354
0.0109614
0.0111951
0.0114244
0.0116392
0.0118324
0.0120001
0.0121417
0.0122595
0.0123581
0.0124436
0.0125229
0.0126031
0.0126909
0.012792
0.012911
0.0130519
0.0132169
0.013406
0.0136224
0.013863
0.0141211
0.0143912
0.0146691
0.0149519
0.015238
0.0155272
0.0158201
0.016119
0.0164263
0.0167456
0.0170801
0.0174339
0.0178105
0.0182135
0.0186461
0.019111
0.0196107
0.0201469
0.0207213
0.0213348
0.0219881
0.0226813
0.0234143
0.0241865
0.0249969
0.0258441
0.0267264
0.0276414
0.0285866
0.0295584
0.0305539
0.0315685
0.032598
0.0336379
0.034683
0.035727
0.0367655
0.0377947
0.0388064
0.0397931
0.040749
0.0416197
0.00808178
0.00824193
0.00847841
0.00879991
0.0092233
0.00976063
0.0104132
0.0111682
0.0119994
0.0128696
0.013737
0.0145605
0.015305
0.0159446
0.0164636
0.0168568
0.0171277
0.0172871
0.0173502
0.0173353
0.0172626
0.0171519
0.0170229
0.0168933
0.0167801
0.0166994
0.0166639
0.016691
0.0167911
0.0169718
0.0172607
0.0176464
0.0181204
0.0186742
0.0192993
0.0199877
0.0207305
0.0215183
0.0223467
0.0232075
0.0240922
0.0249937
0.025908
0.0268326
0.0277662
0.0287084
0.0296603
0.0306235
0.0316001
0.0325927
0.0336036
0.0346349
0.0356879
0.0367634
0.0378615
0.0389816
0.0401223
0.0412817
0.0424569
0.0436443
0.0448408
0.0460413
0.047241
0.0484349
0.0496181
0.0507841
0.0519279
0.0530494
0.0541388
0.0551909
0.0562074
0.0571861
0.0580369
0.00882697
0.00979208
0.0110405
0.0125477
0.0143231
0.016304
0.0183968
0.0204938
0.0224905
0.0242989
0.0258566
0.0271283
0.0281042
0.0287945
0.0292249
0.0294311
0.0294537
0.0293346
0.0291154
0.028836
0.0285328
0.0282393
0.0279841
0.0277959
0.027697
0.0277123
0.0278564
0.0281429
0.0286028
0.0291988
0.0299264
0.030769
0.0317017
0.0327019
0.033751
0.0348306
0.035924
0.0370178
0.0381029
0.0391735
0.040227
0.0412636
0.0422889
0.0433055
0.0443162
0.0453257
0.0463399
0.0473648
0.0484086
0.049475
0.0505656
0.0516807
0.0528196
0.0539808
0.0551614
0.0563579
0.0575661
0.058781
0.0599982
0.0612115
0.0624156
0.0636046
0.0647742
0.065917
0.0670285
0.0681098
0.0691501
0.0701463
0.0711048
0.0720254
0.0728861
0.0736156
0.0169155
0.0200537
0.0236015
0.0272955
0.0310182
0.0345481
0.0377154
0.0404165
0.0426083
0.0442965
0.045519
0.0463329
0.0468036
0.0469992
0.046986
0.0468246
0.0465696
0.0462687
0.0459652
0.045694
0.045488
0.0453662
0.045353
0.0454585
0.0456841
0.0460601
0.0465507
0.0471141
0.047762
0.0484882
0.0492862
0.0501373
0.051044
0.0519777
0.0529104
0.0538212
0.0547009
0.0555606
0.0564071
0.0572455
0.05808
0.0589147
0.059757
0.060613
0.0614876
0.0623849
0.0633098
0.0642606
0.0652408
0.0662579
0.067311
0.0683935
0.0694987
0.07062
0.0717515
0.0728866
0.0740196
0.0751438
0.0762533
0.0773422
0.0784064
0.0794385
0.0804352
0.0813971
0.0823148
0.0831867
0.084021
0.0848142
0.0855569
0.0862509
0.0868271
0.0372326
0.0423046
0.0471323
0.0513494
0.0549029
0.0577856
0.0600329
0.061709
0.0628919
0.0636659
0.0641129
0.0643103
0.0643286
0.0642293
0.0640662
0.0638819
0.0637123
0.0635842
0.0635163
0.0635217
0.0636037
0.063766
0.0640146
0.0643335
0.0646659
0.0650402
0.0654965
0.0659508
0.0664273
0.066936
0.0674774
0.0680481
0.0686419
0.0692516
0.0698713
0.0704971
0.0711288
0.0717678
0.0724173
0.0730806
0.0737592
0.0744604
0.075189
0.0759453
0.0767288
0.0775451
0.0783952
0.0792734
0.0801739
0.081107
0.0820669
0.0830437
0.0840292
0.0850162
0.0859979
0.0869682
0.0879209
0.0888504
0.0897527
0.0906219
0.0914552
0.0922524
0.0930062
0.0937166
0.0943915
0.0950247
0.0956139
0.0961671
0.0966851
0.0971061
0.0605067
0.0651167
0.0687669
0.0716304
0.0738196
0.0754357
0.0765774
0.07734
0.0778123
0.078073
0.0781914
0.078224
0.0782167
0.0782048
0.0782103
0.0782516
0.0783336
0.0784551
0.078625
0.078825
0.0790412
0.0792608
0.0794558
0.079665
0.0799051
0.0801839
0.0804951
0.0808355
0.081202
0.0815911
0.0819988
0.0824214
0.082857
0.0833045
0.0837637
0.084235
0.0847209
0.0852244
0.0857483
0.0862933
0.0868637
0.0874626
0.0880902
0.0887423
0.0894241
0.0901348
0.0908694
0.0916149
0.0923872
0.0931756
0.0939714
0.0947674
0.0955568
0.096334
0.0970931
0.0978293
0.0985389
0.0992173
0.0998623
0.100473
0.101044
0.101576
0.102076
0.102538
0.102963
0.103359
0.103732
0.104081
0.104356
0.0744051
0.0783542
0.0812642
0.0833817
0.0849201
0.086016
0.086781
0.0873079
0.0876734
0.087939
0.0881542
0.0883496
0.0885511
0.088766
0.0889982
0.0892554
0.0895105
0.0897818
0.0900305
0.0902286
0.0904255
0.0906346
0.0908543
0.0910877
0.0913371
0.0916014
0.0918791
0.0921674
0.0924645
0.0927682
0.0930783
0.0933931
0.0937135
0.0940403
0.0943757
0.0947207
0.0950784
0.0954517
0.0958427
0.0962518
0.0966825
0.0971367
0.0976135
0.0981097
0.0986283
0.0991676
0.0997217
0.100284
0.100861
0.101445
0.102029
0.102607
0.103173
0.103724
0.104254
0.10476
0.105239
0.105689
0.106108
0.106493
0.106847
0.107172
0.107464
0.107727
0.107967
0.10819
0.108398
0.108592
0.108732
0.0870548
0.0890549
0.0904544
0.0915066
0.0923054
0.0929311
0.0934523
0.0939148
0.0943473
0.0947733
0.0951913
0.0956165
0.0960224
0.0964157
0.0967909
0.0971259
0.0974389
0.0977414
0.0980424
0.0983436
0.098648
0.0989509
0.0992544
0.0995534
0.0998496
0.100139
0.100422
0.100696
0.100963
0.101221
0.101473
0.101718
0.101961
0.102202
0.102446
0.102692
0.102947
0.10321
0.103484
0.10377
0.104072
0.104387
0.104714
0.105056
0.10541
0.10577
0.106135
0.106506
0.106877
0.107244
0.107602
0.107946
0.108273
0.108581
0.108866
0.109128
0.109364
0.109573
0.109757
0.109916
0.11005
0.110162
0.110256
0.110337
0.110409
0.110473
0.11053
0.110557
0.0927332
0.0937931
0.0946668
0.0954343
0.0961212
0.0967699
0.0973783
0.0979653
0.0985293
0.099059
0.0995734
0.100027
0.100462
0.100886
0.101308
0.101725
0.102149
0.102568
0.10299
0.103399
0.103803
0.104188
0.104563
0.104915
0.105255
0.105568
0.105865
0.106136
0.106391
0.106622
0.10684
0.107037
0.107224
0.107398
0.107565
0.107726
0.107885
0.108041
0.1082
0.108361
0.108526
0.108694
0.108867
0.109044
0.109218
0.109394
0.109568
0.109738
0.1099
0.110053
0.11019
0.110314
0.110418
0.110505
0.110571
0.110618
0.110644
0.110651
0.110642
0.110616
0.110579
0.11053
0.110478
0.11042
0.110362
0.1103
0.110239
0.093643
0.0946518
0.0955353
0.0963425
0.0183972
0.0183845
0.0183718
0.018359
0.0183462
0.0183333
0.0183204
0.0183075
0.0182946
0.0182816
0.0182687
0.0182557
0.0182428
0.0182299
0.0182171
0.0182042
0.0181914
0.0181787
0.0181661
0.0181535
0.0181409
0.0181285
0.0181161
0.0181039
0.0180917
0.0180796
0.0180676
0.0180556
0.0180438
0.018032
0.0180203
0.0180087
0.0179972
0.0179857
0.0179743
0.0179629
0.0179516
0.0179403
0.017929
0.0179177
0.0179064
0.0178951
0.0178838
0.0178725
0.0178612
0.0178498
0.0178384
0.017827
0.0178156
0.0178041
0.0177926
0.0177811
0.0177696
0.0177581
0.0177465
0.017735
0.0177235
0.017712
0.0177006
0.0176892
0.0176778
0.0176665
0.0176553
0.0176441
0.017633
0.017622
0.017611
0.0176001
0.0175893
0.0175786
0.017568
0.0175574
0.017547
0.0175366
0.0175263
0.0175161
0.0175065
0.0184055
0.018393
0.0183805
0.0183679
0.0183553
0.0183426
0.0183298
0.0183171
0.0183043
0.0182915
0.0182787
0.0182659
0.0182531
0.0182404
0.0182276
0.0182149
0.0182022
0.0181896
0.0181771
0.0181646
0.0181521
0.0181398
0.0181275
0.0181153
0.0181032
0.0180911
0.0180792
0.0180673
0.0180555
0.0180439
0.0180323
0.0180207
0.0180092
0.0179978
0.0179865
0.0179752
0.0179639
0.0179527
0.0179415
0.0179302
0.017919
0.0179078
0.0178966
0.0178854
0.0178742
0.0178629
0.0178516
0.0178403
0.0178289
0.0178176
0.0178062
0.0177948
0.0177834
0.0177719
0.0177605
0.0177491
0.0177377
0.0177263
0.017715
0.0177036
0.0176924
0.0176812
0.01767
0.017659
0.017648
0.017637
0.0176261
0.0176153
0.0176046
0.0175939
0.0175834
0.0175729
0.0175625
0.0175522
0.0175419
0.0175318
0.0175223
0.0184291