/*--------------------------------*- C++ -*----------------------------------*\
  =========                 |
  \\      /  F ield         | OpenFOAM: The Open Source CFD Toolbox
   \\    /   O peration     | Website:  https://openfoam.org
    \\  /    A nd           | Version:  13
     \\/     M anipulation  |
\*---------------------------------------------------------------------------*/
FoamFile
{
    format      ascii;
    class       volScalarField;
    location    "700";
    object      omega;
}
// * * * * * * * * * * * * * * * * * * * * * * * * * * * * * * * * * * * * * //

dimensions      [0 0 -1 0 0 0 0];

internalField   nonuniform List<scalar> 
172836
(
11.8748
11.8376
11.8007
11.764
11.7276
11.6914
11.6555
11.6198
11.8734
11.8361
11.7992
11.7624
11.726
11.6898
11.6538
11.6181
11.9057
11.8681
11.8308
11.7938
11.757
11.7205
11.6843
11.6483
11.6125
11.8933
11.8558
11.8186
11.7816
11.7449
11.7084
11.6722
11.6362
11.6005
11.8697
11.8323
11.7951
11.7583
11.7217
11.6853
11.6492
11.6134
11.5778
11.8312
11.794
11.7571
11.7205
11.6841
11.648
11.6122
11.5766
11.5413
11.7762
11.7394
11.7028
11.6665
11.6305
11.5947
11.5592
11.5239
11.489
11.7049
11.6684
11.6322
11.5963
11.5606
11.5252
11.49
11.4552
11.4206
11.5891
11.5532
11.5175
11.4821
11.447
11.4122
11.3776
11.3433
11.9834
11.9454
11.9077
11.8702
11.833
11.7961
11.7594
11.723
11.6868
11.6509
11.6152
11.5798
11.545
11.9821
11.9441
11.9063
11.8688
11.8315
11.7946
11.7578
11.7214
11.6852
11.6492
11.6135
11.578
11.5432
11.9768
11.9388
11.901
11.8634
11.8261
11.7891
11.7523
11.7158
11.6796
11.6435
11.6078
11.5723
11.5374
11.9643
11.9263
11.8885
11.851
11.8137
11.7767
11.74
11.7035
11.6673
11.6313
11.5956
11.5601
11.5252
11.9401
11.9022
11.8645
11.8271
11.79
11.7531
11.7165
11.6801
11.644
11.6082
11.5725
11.5372
11.5025
11.9007
11.863
11.8256
11.7884
11.7515
11.7148
11.6784
11.6423
11.6064
11.5708
11.5354
11.5003
11.4658
11.8443
11.807
11.7698
11.7329
11.6963
11.66
11.6239
11.5881
11.5525
11.5172
11.4822
11.4474
11.4133
11.7712
11.7342
11.6974
11.6609
11.6247
11.5887
11.553
11.5175
11.4823
11.4474
11.4127
11.3784
11.3446
11.6901
11.6533
11.6168
11.5806
11.5446
11.5089
11.4734
11.4382
11.4033
11.3687
11.3343
11.3002
11.2668
11.1952
14.9209
14.8656
14.8107
14.756
14.7017
14.6476
14.5939
14.5405
14.4874
14.4347
14.3822
14.3301
14.2783
14.2268
14.1756
14.1248
14.0743
14.0241
13.9743
13.9248
13.8756
13.8268
13.7783
13.7301
13.6823
13.6348
13.5876
13.5407
13.4941
13.4478
13.4019
13.3562
13.3108
13.2657
13.2209
13.1764
13.1321
13.088
13.0442
13.0006
12.9573
12.9141
12.8712
12.8285
12.7859
12.7436
12.7015
12.6596
12.6178
12.5763
12.5349
12.4937
12.4528
12.412
12.3715
12.3311
12.291
12.2511
12.2114
12.172
12.1328
12.0938
12.0552
12.0167
11.9785
11.9406
11.9029
11.8655
11.8283
11.7914
11.7547
11.7183
11.6822
11.6463
11.6106
11.5752
11.5405
14.92
14.8647
14.8098
14.7551
14.7008
14.6468
14.5931
14.5397
14.4866
14.4338
14.3814
14.3293
14.2775
14.226
14.1748
14.124
14.0735
14.0234
13.9735
13.924
13.8748
13.826
13.7775
13.7293
13.6814
13.6339
13.5866
13.5397
13.4931
13.4469
13.4009
13.3552
13.3098
13.2647
13.2198
13.1753
13.1309
13.0869
13.0431
12.9995
12.9561
12.913
12.87
12.8273
12.7848
12.7424
12.7003
12.6584
12.6167
12.5751
12.5338
12.4926
12.4516
12.4109
12.3703
12.33
12.2899
12.25
12.2103
12.1708
12.1316
12.0926
12.0539
12.0155
11.9772
11.9392
11.9015
11.864
11.8268
11.7898
11.7531
11.7167
11.6805
11.6445
11.6088
11.5734
11.5386
14.9156
14.8603
14.8053
14.7506
14.6963
14.6422
14.5885
14.5351
14.482
14.4292
14.3768
14.3246
14.2728
14.2213
14.1701
14.1193
14.0688
14.0186
13.9688
13.9192
13.87
13.8212
13.7726
13.7244
13.6765
13.6289
13.5817
13.5348
13.4881
13.4418
13.3958
13.3501
13.3047
13.2596
13.2147
13.1701
13.1258
13.0817
13.0379
12.9943
12.9509
12.9077
12.8648
12.8221
12.7795
12.7372
12.6951
12.6532
12.6114
12.5699
12.5285
12.4874
12.4464
12.4057
12.3651
12.3248
12.2847
12.2447
12.2051
12.1656
12.1264
12.0874
12.0486
12.0101
11.9719
11.9339
11.8961
11.8586
11.8213
11.7843
11.7476
11.7111
11.6748
11.6388
11.6031
11.5676
11.5327
14.9002
14.8449
14.7899
14.7352
14.6809
14.6269
14.5731
14.5198
14.4667
14.414
14.3615
14.3094
14.2577
14.2062
14.1551
14.1044
14.0539
14.0038
13.954
13.9046
13.8554
13.8066
13.7582
13.71
13.6622
13.6147
13.5675
13.5206
13.4741
13.4278
13.3819
13.3362
13.2909
13.2458
13.201
13.1564
13.1122
13.0681
13.0243
12.9808
12.9375
12.8943
12.8514
12.8088
12.7663
12.724
12.6819
12.64
12.5983
12.5568
12.5155
12.4744
12.4334
12.3927
12.3522
12.3119
12.2718
12.2319
12.1922
12.1528
12.1136
12.0746
12.0359
11.9975
11.9592
11.9212
11.8835
11.846
11.8088
11.7718
11.7351
11.6986
11.6624
11.6264
11.5907
11.5552
11.5204
14.8643
14.8091
14.7542
14.6996
14.6454
14.5915
14.538
14.4847
14.4319
14.3793
14.3271
14.2752
14.2237
14.1725
14.1216
14.0711
14.0209
13.971
13.9215
13.8723
13.8234
13.7749
13.7267
13.6788
13.6312
13.5839
13.537
13.4904
13.4441
13.3981
13.3524
13.307
13.2618
13.217
13.1724
13.1281
13.084
13.0402
12.9966
12.9532
12.91
12.8671
12.8244
12.7819
12.7395
12.6974
12.6555
12.6137
12.5721
12.5308
12.4896
12.4486
12.4078
12.3672
12.3267
12.2865
12.2465
12.2068
12.1672
12.1279
12.0888
12.0499
12.0113
11.9729
11.9348
11.8969
11.8593
11.8219
11.7848
11.7479
11.7113
11.6749
11.6388
11.603
11.5674
11.532
11.4973
14.7996
14.7447
14.6902
14.6361
14.5822
14.5288
14.4757
14.4229
14.3705
14.3184
14.2667
14.2153
14.1642
14.1135
14.0631
14.0131
13.9634
13.9141
13.8651
13.8164
13.7681
13.72
13.6723
13.625
13.5779
13.5312
13.4848
13.4386
13.3928
13.3473
13.3021
13.2571
13.2124
13.168
13.1239
13.08
13.0364
12.9929
12.9497
12.9068
12.864
12.8214
12.779
12.7369
12.6949
12.653
12.6114
12.5699
12.5287
12.4876
12.4466
12.4059
12.3653
12.325
12.2848
12.2448
12.205
12.1655
12.1261
12.087
12.0481
12.0095
11.9711
11.9329
11.895
11.8573
11.8199
11.7827
11.7458
11.7091
11.6727
11.6366
11.6007
11.5651
11.5297
11.4946
11.4601
14.7063
14.6521
14.5983
14.5448
14.4916
14.4389
14.3864
14.3344
14.2826
14.2312
14.1802
14.1295
14.0792
14.0292
13.9795
13.9302
13.8813
13.8326
13.7843
13.7364
13.6887
13.6414
13.5945
13.5478
13.5014
13.4554
13.4097
13.3643
13.3191
13.2743
13.2297
13.1854
13.1414
13.0977
13.0541
13.0109
12.9678
12.925
12.8824
12.84
12.7977
12.7557
12.7138
12.6722
12.6306
12.5893
12.5481
12.5071
12.4662
12.4255
12.385
12.3446
12.3044
12.2644
12.2246
12.185
12.1455
12.1063
12.0672
12.0284
11.9898
11.9515
11.9134
11.8755
11.8379
11.8005
11.7634
11.7265
11.6899
11.6535
11.6174
11.5816
11.546
11.5107
11.4757
11.4409
11.4067
14.5983
14.5448
14.4916
14.4388
14.3863
14.3341
14.2823
14.2309
14.1798
14.129
14.0786
14.0285
13.9788
13.9294
13.8803
13.8316
13.7833
13.7352
13.6876
13.6402
13.5932
13.5465
13.5001
13.4541
13.4083
13.3629
13.3178
13.273
13.2285
13.1842
13.1403
13.0966
13.0531
13.01
12.967
12.9243
12.8818
12.8396
12.7975
12.7556
12.7139
12.6724
12.631
12.5898
12.5488
12.5079
12.4672
12.4266
12.3862
12.3459
12.3058
12.2658
12.226
12.1864
12.147
12.1077
12.0686
12.0297
11.9911
11.9526
11.9144
11.8764
11.8386
11.8011
11.7638
11.7268
11.69
11.6535
11.6172
11.5812
11.5454
11.51
11.4748
11.4398
11.4051
11.3707
11.3369
14.5016
14.4484
14.3956
14.3431
14.2909
14.2391
14.1876
14.1364
14.0856
14.0351
13.9849
13.9351
13.8855
13.8364
13.7875
13.739
13.6909
13.643
13.5955
13.5484
13.5016
13.4551
13.4089
13.363
13.3175
13.2723
13.2274
13.1827
13.1384
13.0944
13.0506
13.0071
12.9639
12.9209
12.8782
12.8357
12.7934
12.7514
12.7095
12.6678
12.6263
12.585
12.5439
12.5029
12.4621
12.4214
12.3809
12.3405
12.3003
12.2603
12.2204
12.1806
12.141
12.1016
12.0624
12.0234
11.9845
11.9459
11.9074
11.8692
11.8312
11.7934
11.7559
11.7186
11.6816
11.6448
11.6083
11.572
11.536
11.5003
11.4648
11.4296
11.3947
11.36
11.3256
11.2915
11.258
14.432
14.3791
14.3264
14.274
14.2219
14.1702
14.1187
14.0676
14.0168
13.9663
13.9161
13.8662
13.8167
13.7674
13.7185
13.6699
13.6217
13.5737
13.5261
13.4788
13.4319
13.3852
13.3389
13.2929
13.2471
13.2017
13.1566
13.1118
13.0673
13.023
12.979
12.9353
12.8919
12.8487
12.8057
12.763
12.7205
12.6782
12.6362
12.5943
12.5526
12.5112
12.4698
12.4287
12.3878
12.347
12.3063
12.2659
12.2256
12.1855
12.1455
12.1057
12.0661
12.0267
11.9875
11.9485
11.9096
11.871
11.8326
11.7945
11.7566
11.7189
11.6815
11.6443
11.6073
11.5707
11.5343
11.4981
11.4623
11.4267
11.3913
11.3563
11.3215
11.287
11.2527
11.2187
11.1854
14.3908
14.338
14.2855
14.2332
14.1811
14.1294
14.0779
14.0267
13.9758
13.9253
13.875
13.825
13.7753
13.7259
13.6768
13.628
13.5796
13.5314
13.4835
13.436
13.3887
13.3418
13.2951
13.2487
13.2027
13.1569
13.1114
13.0661
13.0212
12.9765
12.9321
12.888
12.8441
12.8004
12.757
12.7138
12.6709
12.6282
12.5857
12.5434
12.5013
12.4594
12.4177
12.3762
12.3349
12.2938
12.2528
12.2121
12.1715
12.1311
12.091
12.051
12.0112
11.9716
11.9322
11.8931
11.8541
11.8154
11.777
11.7388
11.7008
11.6631
11.6256
11.5885
11.5515
11.5149
11.4784
11.4423
11.4065
11.3709
11.3356
11.3006
11.2658
11.2313
11.1971
11.1631
11.1299
14.3735
14.3209
14.2685
14.2163
14.1643
14.1126
14.0612
14.01
13.9591
13.9084
13.8581
13.808
13.7582
13.7087
13.6594
13.6105
13.5618
13.5134
13.4653
13.4175
13.3699
13.3226
13.2756
13.2289
13.1824
13.1362
13.0902
13.0445
12.999
12.9538
12.9089
12.8642
12.8197
12.7755
12.7315
12.6877
12.6442
12.6009
12.5579
12.515
12.4724
12.43
12.3877
12.3458
12.304
12.2624
12.221
12.1799
12.139
12.0983
12.0578
12.0175
11.9774
11.9376
11.8981
11.8587
11.8196
11.7808
11.7422
11.7039
11.6658
11.6281
11.5906
11.5533
11.5164
11.4797
11.4433
11.4072
11.3713
11.3357
11.3004
11.2654
11.2306
11.196
11.1617
11.1277
11.0945
14.3755
14.3231
14.271
14.219
14.1671
14.1155
14.0642
14.013
13.9621
13.9115
13.8611
13.811
13.7611
13.7115
13.6622
13.6131
13.5643
13.5157
13.4674
13.4193
13.3715
13.3239
13.2766
13.2295
13.1826
13.136
13.0895
13.0434
12.9974
12.9516
12.9061
12.8608
12.8158
12.7709
12.7263
12.682
12.6378
12.5939
12.5502
12.5068
12.4635
12.4205
12.3778
12.3352
12.2929
12.2509
12.209
12.1675
12.1261
12.085
12.0442
12.0036
11.9633
11.9232
11.8834
11.8439
11.8046
11.7656
11.7269
11.6885
11.6504
11.6125
11.5749
11.5377
11.5007
11.464
11.4276
11.3914
11.3556
11.32
11.2846
11.2495
11.2147
11.1801
11.1458
11.1117
11.0784
14.3937
14.3418
14.29
14.2383
14.1867
14.1353
14.0841
14.0331
13.9823
13.9317
13.8814
13.8313
13.7815
13.7319
13.6826
13.6334
13.5846
13.5359
13.4874
13.4392
13.3912
13.3433
13.2957
13.2482
13.201
13.1539
13.107
13.0603
13.0138
12.9675
12.9214
12.8754
12.8297
12.7842
12.7389
12.6939
12.649
12.6044
12.56
12.5159
12.472
12.4284
12.385
12.3419
12.299
12.2564
12.2141
12.1721
12.1303
12.0888
12.0476
12.0067
11.9661
11.9258
11.8858
11.846
11.8066
11.7675
11.7287
11.6902
11.652
11.6141
11.5766
11.5393
11.5023
11.4657
11.4293
11.3932
11.3573
11.3217
11.2864
11.2513
11.2165
11.1818
11.1474
11.1133
11.08
14.4274
14.376
14.3247
14.2733
14.2221
14.171
14.12
14.0692
14.0186
13.9683
13.9181
13.8681
13.8184
13.7689
13.7196
13.6705
13.6216
13.5729
13.5244
13.476
13.4278
13.3797
13.3318
13.284
13.2364
13.1888
13.1415
13.0942
13.0471
13.0002
12.9534
12.9068
12.8604
12.8141
12.7681
12.7222
12.6766
12.6313
12.5861
12.5413
12.4967
12.4523
12.4083
12.3645
12.3211
12.2779
12.235
12.1925
12.1503
12.1084
12.0669
12.0256
11.9847
11.9442
11.9039
11.8641
11.8245
11.7853
11.7464
11.7079
11.6697
11.6319
11.5943
11.5572
11.5202
11.4836
11.4473
11.4113
11.3755
11.34
11.3047
11.2696
11.2348
11.2002
11.1658
11.1316
11.0982
14.4777
14.427
14.3763
14.3255
14.2747
14.224
14.1734
14.1229
14.0726
14.0225
13.9726
13.9229
13.8734
13.824
13.7749
13.7259
13.6771
13.6285
13.5799
13.5314
13.483
13.4347
13.3865
13.3383
13.2902
13.2422
13.1942
13.1463
13.0985
13.0508
13.0032
12.9558
12.9084
12.8613
12.8143
12.7676
12.721
12.6747
12.6287
12.583
12.5375
12.4923
12.4475
12.403
12.3589
12.315
12.2716
12.2285
12.1858
12.1435
12.1016
12.06
12.0189
11.9781
11.9377
11.8977
11.8581
11.8189
11.7801
11.7416
11.7035
11.6657
11.6284
11.5913
11.5545
11.5181
11.482
11.4461
11.4105
11.3751
11.3399
11.305
11.2702
11.2357
11.2013
11.1671
11.1337
14.548
14.4983
14.4483
14.3982
14.348
14.2978
14.2477
14.1976
14.1477
14.098
14.0484
13.9991
13.9499
13.9008
13.852
13.8032
13.7546
13.706
13.6574
13.6089
13.5603
13.5117
13.4631
13.4145
13.3658
13.3171
13.2683
13.2196
13.1709
13.1222
13.0736
13.0251
12.9766
12.9283
12.8802
12.8323
12.7846
12.7372
12.6901
12.6432
12.5967
12.5506
12.5048
12.4595
12.4145
12.37
12.3259
12.2822
12.239
12.1962
12.1539
12.1121
12.0707
12.0298
11.9893
11.9493
11.9097
11.8705
11.8318
11.7935
11.7556
11.7181
11.6809
11.6442
11.6078
11.5716
11.5358
11.5002
11.4649
11.4298
11.3948
11.3601
11.3255
11.2911
11.2568
11.2226
11.1891
14.6444
14.5957
14.5467
14.4975
14.4481
14.3986
14.3491
14.2996
14.2503
14.2011
14.1521
14.1033
14.0547
14.0061
13.9577
13.9094
13.861
13.8127
13.7642
13.7156
13.6668
13.6178
13.5687
13.5193
13.4698
13.4201
13.3703
13.3204
13.2704
13.2203
13.1702
13.1202
13.0702
13.0204
12.9707
12.9212
12.872
12.823
12.7745
12.7262
12.6784
12.631
12.5841
12.5377
12.4918
12.4464
12.4015
12.3572
12.3134
12.2702
12.2276
12.1855
12.144
12.103
12.0626
12.0227
11.9834
11.9445
11.9061
11.8682
11.8308
11.7938
11.7572
11.7209
11.6851
11.6495
11.6143
11.5792
11.5444
11.5097
11.4752
11.4408
11.4066
11.3724
11.3382
11.3041
11.2706
14.775
14.728
14.6805
14.6325
14.5842
14.5358
14.4873
14.4389
14.3906
14.3424
14.2944
14.2466
14.1989
14.1513
14.1037
14.0561
14.0083
13.9603
13.912
13.8634
13.8143
13.7648
13.7148
13.6643
13.6135
13.5623
13.5108
13.4591
13.4071
13.355
13.3028
13.2506
13.1984
13.1464
13.0945
13.0428
12.9915
12.9406
12.89
12.84
12.7904
12.7415
12.6931
12.6454
12.5983
12.552
12.5063
12.4613
12.417
12.3735
12.3307
12.2886
12.2472
12.2064
12.1664
12.127
12.0882
12.0501
12.0125
11.9754
11.9389
11.9029
11.8673
11.8322
11.7973
11.7628
11.7285
11.6944
11.6605
11.6267
11.593
11.5593
11.5256
11.4919
11.4581
11.4241
11.3907
14.9553
14.9111
14.866
14.8203
14.7742
14.7279
14.6815
14.6351
14.5888
14.5428
14.4969
14.4512
14.4055
14.3598
14.3139
14.2677
14.2211
14.1739
14.126
14.0772
14.0276
13.977
13.9255
13.8731
13.8199
13.766
13.7115
13.6566
13.6013
13.5458
13.4901
13.4343
13.3786
13.3231
13.2678
13.2128
13.1583
13.1044
13.051
12.9984
12.9465
12.8954
12.8451
12.7957
12.7473
12.6998
12.6533
12.6078
12.5632
12.5197
12.477
12.4354
12.3946
12.3548
12.3159
12.2778
12.2405
12.2039
12.1681
12.1329
12.0984
12.0644
12.031
11.9979
11.9653
11.9329
11.9008
11.8687
11.8368
11.8048
11.7728
11.7407
11.7084
11.6758
11.643
11.6098
11.5768
15.2164
15.1774
15.1374
15.0965
15.055
15.0131
14.9712
14.9293
14.8875
14.8461
14.8047
14.7635
14.722
14.6803
14.6379
14.5946
14.5502
14.5044
14.457
14.4078
14.3567
14.3038
14.249
14.1925
14.1345
14.0751
14.0147
13.9535
13.8918
13.8298
13.7676
13.7055
13.6435
13.5819
13.5208
13.4604
13.4007
13.3419
13.2842
13.2276
13.1721
13.118
13.0651
13.0137
12.9636
12.915
12.8678
12.8221
12.7778
12.7349
12.6934
12.6534
12.6147
12.5772
12.5411
12.5061
12.4723
12.4395
12.4077
12.3769
12.3469
12.3176
12.289
12.261
12.2334
12.2062
12.1791
12.1523
12.1255
12.0985
12.0714
12.0439
12.0161
11.9876
11.9586
11.9287
11.8986
15.5976
15.5682
15.5374
15.5056
15.4735
15.4414
15.4094
15.3777
15.3463
15.3151
15.2835
15.2514
15.218
15.183
15.1456
15.1055
15.062
15.0149
14.9638
14.9088
14.8497
14.787
14.7208
14.6517
14.5801
14.5067
14.4319
14.3563
14.2807
14.2052
14.1302
14.0559
13.9826
13.9104
13.8397
13.7706
13.7032
13.6378
13.5744
13.5131
13.454
13.3972
13.3427
13.2907
13.241
13.1937
13.1488
13.1063
13.0661
13.0283
12.9927
12.9594
12.9283
12.8993
12.8723
12.8473
12.8241
12.8027
12.783
12.7649
12.7483
12.733
12.7188
12.7057
12.6935
12.6822
12.6713
12.6608
12.6504
12.6399
12.6291
12.6177
12.6055
12.5922
12.5773
12.5609
16.3241
16.3158
16.3064
16.2957
16.2845
16.2734
16.2628
16.2529
16.2435
16.2339
16.2235
16.2111
16.1956
16.1758
16.1504
16.1183
16.0784
16.0301
15.973
15.907
15.8324
15.7498
15.6602
15.5648
15.4647
15.3612
15.2558
15.1494
15.0432
14.9386
14.8359
14.7356
14.638
14.5434
14.4521
14.3644
14.2804
14.2004
14.1244
14.0526
13.9851
13.9219
13.8632
13.809
13.7592
13.7139
13.6732
13.637
13.6054
13.5783
13.5557
13.5377
13.5243
13.5154
13.511
13.5112
13.5158
13.5249
13.5383
13.5559
13.5778
13.6037
13.6337
13.6673
13.7044
13.7447
13.7879
13.8335
13.881
13.9298
13.9792
14.0282
14.0764
14.1226
14.1653
14.2025
17.7191
17.75
17.7821
17.8134
17.8456
17.8797
17.9158
17.9533
17.991
18.0268
18.0584
18.083
18.0977
18.0995
18.0856
18.0538
18.0025
17.9307
17.8385
17.7267
17.597
17.4517
17.2936
17.126
16.9519
16.7745
16.5969
16.4209
16.2493
16.0841
15.9259
15.7752
15.6322
15.4973
15.3708
15.2528
15.1436
15.0432
14.9518
14.8696
14.7967
14.7332
14.6792
14.635
14.6007
14.5764
14.5625
14.5592
14.5667
14.5854
14.6156
14.6576
14.7118
14.7786
14.8582
14.9509
15.0569
15.1763
15.3092
15.4555
15.615
15.787
15.9712
16.1665
16.3718
16.5855
16.806
17.0314
17.2594
17.4871
17.7124
17.9324
18.1438
18.3426
18.5215
20.5645
20.6701
20.7861
20.9066
21.0345
21.1705
21.3136
21.4608
21.6078
21.7489
21.8774
21.986
22.0671
22.1135
22.1188
22.0783
21.9889
21.85
21.6631
21.4319
21.1621
20.8606
20.5351
20.1942
19.8454
19.4965
19.1543
18.8226
18.5081
18.2139
17.9402
17.6872
17.455
17.2436
17.0532
16.8839
16.7359
16.6095
16.5051
16.423
16.3641
16.3287
16.3179
16.3324
16.3732
16.4413
16.5379
16.6641
16.821
17.0097
17.231
17.4858
17.7744
18.0971
18.4537
18.8434
19.2649
19.7165
20.1955
20.6987
21.2226
21.7622
22.3131
22.8695
23.4259
23.9763
24.5148
25.0355
25.5326
26.0016
26.4379
26.8371
27.1946
27.5009
26.2788
26.5597
26.8637
27.1982
27.5661
27.9661
28.3928
28.8367
29.2845
29.7195
30.1225
30.4731
30.7508
30.9369
31.0163
30.9781
30.8174
30.5346
30.1364
29.6339
29.043
28.382
27.6711
26.9311
26.1806
25.4389
24.7227
24.0392
23.4087
22.836
22.3204
21.8614
21.4587
21.112
20.8217
20.5882
20.4122
20.2946
20.2365
20.239
20.3036
20.4314
20.6233
20.8801
21.2021
21.5891
22.04
22.5533
23.1263
23.7559
24.4376
25.1663
25.9359
26.7398
27.5702
28.419
29.2778
30.1375
30.9895
31.8242
32.6338
33.4096
34.1447
34.832
35.4664
36.0433
36.5594
37.0129
37.4034
37.7306
37.9955
38.2002
38.3428
36.7737
37.3693
38.0536
38.8442
39.7492
40.7664
41.8823
43.073
44.3032
45.5296
46.7034
47.7739
48.6932
49.4194
49.9195
50.1711
50.1631
49.8955
49.3785
48.6312
47.6801
46.5573
45.2988
43.9427
42.5295
41.0943
39.6759
38.3124
37.0155
35.8325
34.7842
33.87
33.0892
32.4402
31.9209
31.5284
31.2596
31.11
31.0749
31.1489
31.3259
31.5991
31.9615
32.4053
32.9226
33.5048
34.1431
34.8283
35.5511
36.3019
37.0711
37.8493
38.627
39.395
40.1447
40.8679
41.5568
42.2047
42.8055
43.3544
43.8469
44.2804
44.6527
44.9635
45.2126
45.401
45.5306
45.605
45.6268
45.5992
45.5267
45.4145
45.2689
54.9334
56.0379
57.4171
59.0634
60.9703
63.1034
65.4026
67.788
70.1689
72.4531
74.5561
76.4075
77.9547
79.1633
80.0151
80.5071
80.6467
80.4509
79.9417
79.1464
78.0962
76.8242
75.3663
73.7582
72.0379
70.2455
68.4133
66.5802
64.7799
63.0164
61.3467
59.7814
58.328
56.9889
55.7636
54.65
53.6445
52.7416
51.9465
51.2556
50.6632
50.1643
49.7565
49.4361
49.1988
49.0387
48.9494
48.9228
48.9505
49.0234
49.1318
49.266
49.4166
49.5742
49.7302
49.8768
50.007
50.115
50.1958
50.2453
50.2614
50.2417
50.1859
50.0935
49.9655
49.8033
49.609
49.3853
49.1341
48.8585
48.562
48.2487
47.9304
84.6917
86.7981
89.1798
91.7138
94.3405
96.9068
99.2841
101.378
103.134
104.527
105.563
106.26
106.647
106.758
106.621
106.266
105.717
104.992
104.108
103.079
101.915
100.623
99.2075
97.6721
96.0159
94.2401
92.3324
90.2975
88.1484
85.8684
83.5266
81.163
78.8004
76.465
74.19
72.0031
69.9261
67.9766
66.1681
64.5093
63.0047
61.6545
60.4564
59.4033
58.4854
57.6913
57.0085
56.4241
55.9256
55.4994
55.1316
54.8093
54.5204
54.2543
54.0016
53.7544
53.5059
53.2507
52.9851
52.7053
52.4103
52.0985
51.7702
51.4253
51.065
50.6904
50.303
49.905
49.4981
49.0843
48.6682
48.2724
120.482
121.255
121.793
121.993
121.934
121.64
121.151
120.506
119.744
118.891
117.969
116.993
115.97
114.907
113.804
112.66
111.47
110.229
108.929
107.559
106.112
104.563
102.916
101.14
99.2282
97.1632
94.967
92.6536
90.2576
87.8098
85.342
82.8878
80.4721
78.126
75.8757
73.7375
71.7229
69.8442
68.1084
66.5175
65.0693
63.7577
62.5761
61.5156
60.5657
59.7147
58.9512
58.2611
57.6343
57.0655
56.5397
56.0471
55.5785
55.1264
54.6842
54.2469
53.8105
53.3716
52.9287
52.4804
52.0262
51.5659
51.1005
50.6302
50.1564
49.6809
49.204
48.7277
48.2551
47.7916
47.3665
136.398
133.69
131.119
128.678
126.395
124.256
122.232
120.299
118.438
116.632
114.868
113.137
111.428
109.734
108.049
106.363
104.67
102.96
101.225
99.4532
97.6338
95.7648
93.8344
91.8675
89.9003
87.9277
85.9364
83.9685
82.0213
80.0985
78.2101
76.3677
74.5837
72.8694
71.2338
69.6836
68.223
66.8543
65.5778
64.3925
63.2933
62.2766
61.3369
60.4673
59.6594
58.9058
58.1994
57.5329
56.9
56.2945
55.7106
55.1428
54.5865
54.0382
53.4948
52.9544
52.4158
51.8779
51.3406
50.8043
50.2696
49.7363
49.2062
48.6805
48.1587
47.6435
47.1374
46.6418
46.1626
45.7349
131.317
128.151
125.151
122.304
119.571
116.923
114.348
111.843
109.407
107.039
104.739
102.506
100.341
98.2409
96.2048
94.23
92.3144
90.452
88.6407
86.8799
85.1882
83.5773
82.0503
80.5769
79.1426
77.7363
76.3558
74.9995
73.6684
72.3647
71.0916
69.8527
68.6523
67.4935
66.3792
65.3107
64.2889
63.3136
62.3839
61.4976
60.6517
59.8435
59.0699
58.3267
57.6095
56.9147
56.2392
55.5811
54.9356
54.3008
53.6747
53.0561
52.4434
51.8362
51.2339
50.6365
50.0444
49.458
48.8781
48.3046
47.7393
47.1831
46.6348
46.098
45.5744
45.0643
44.569
44.0944
43.6797
124.898
121.332
117.789
114.346
110.977
107.685
104.495
101.43
98.5063
95.7347
93.122
90.673
88.3881
86.266
84.3047
82.4905
80.8282
79.2878
77.8889
76.6428
75.4993
74.4295
73.4198
72.4538
71.5202
70.61
69.7179
68.8397
67.9736
67.118
66.2727
65.4372
64.6124
63.7984
62.9963
62.2061
61.4284
60.6627
59.9092
59.1674
58.4361
57.7147
57.0031
56.3002
55.6039
54.9138
54.2301
53.5534
52.8807
52.2129
51.5507
50.8946
50.245
49.6027
48.9682
48.3425
47.7262
47.1203
46.5247
45.9413
45.3705
44.8108
44.2669
43.7387
43.2263
42.7298
42.2504
41.7939
41.3996
111.21
107.03
102.928
99.0414
95.3292
91.8273
88.591
85.6278
82.9365
80.5141
78.3522
76.4329
74.7514
73.2753
71.9833
70.867
69.9091
69.0694
68.3224
67.6415
67.0126
66.4192
65.8526
65.3016
64.7614
64.2242
63.6878
63.1464
62.5991
62.0419
61.4751
60.8958
60.305
59.7013
59.0862
58.4588
57.8205
57.1717
56.5138
55.8468
55.1725
54.4928
53.8086
53.1201
52.4291
51.7395
51.0502
50.3622
49.6777
48.9993
48.328
47.6658
47.0136
46.373
45.7444
45.1294
44.5278
43.9412
43.3691
42.8118
42.273
41.7512
41.2467
40.7588
40.2882
39.8353
39.4055
39.0384
93.2108
89.0457
85.2018
81.639
78.3082
75.5202
73.0887
70.9946
69.1975
67.682
66.3948
65.3412
64.4726
63.7447
63.1436
62.6311
62.1918
61.8006
61.451
61.1246
60.8191
60.5185
60.2239
59.9225
59.6163
59.2941
58.9583
58.5996
58.2209
57.8148
57.3845
56.9243
56.4383
55.9232
55.3825
54.8149
54.2248
53.6118
52.9791
52.3291
51.6667
50.9921
50.3084
49.6194
48.9308
48.2404
47.5514
46.8683
46.1926
45.5278
44.8739
44.2343
43.6086
42.9989
42.4047
41.8276
41.2663
40.7233
40.1999
39.6939
39.2062
38.7349
38.2813
37.844
37.4247
37.0266
36.6904
78.6754
75.0899
71.9158
68.9936
14.9142
14.859
14.804
14.7494
14.6951
14.6411
14.5874
14.534
14.481
14.4282
14.3758
14.3237
14.272
14.2205
14.1694
14.1186
14.0681
14.0179
13.9681
13.9186
13.8695
13.8206
13.7721
13.724
13.6761
13.6286
13.5814
13.5345
13.4879
13.4417
13.3957
13.3501
13.3047
13.2596
13.2148
13.1702
13.1259
13.0819
13.0381
12.9945
12.9512
12.9081
12.8652
12.8225
12.78
12.7377
12.6956
12.6537
12.612
12.5705
12.5292
12.4881
12.4472
12.4065
12.366
12.3257
12.2856
12.2458
12.2062
12.1668
12.1276
12.0887
12.0501
12.0117
11.9736
11.9357
11.898
11.8606
11.8235
11.7866
11.75
11.7137
11.6776
11.6417
11.6061
11.5707
11.536
14.9132
14.858
14.8031
14.7484
14.6941
14.6402
14.5865
14.5331
14.4801
14.4274
14.375
14.3229
14.2711
14.2197
14.1685
14.1177
14.0673
14.0171
13.9673
13.9178
13.8686
13.8198
13.7713
13.7231
13.6752
13.6277
13.5805
13.5335
13.487
13.4407
13.3947
13.349
13.3036
13.2585
13.2136
13.1691
13.1248
13.0807
13.0369
12.9933
12.95
12.9069
12.8639
12.8213
12.7788
12.7365
12.6944
12.6525
12.6108
12.5693
12.528
12.4869
12.446
12.4053
12.3648
12.3245
12.2844
12.2446
12.205
12.1656
12.1264
12.0875
12.0488
12.0104
11.9722
11.9343
11.8966
11.8591
11.822
11.785
11.7484
11.712
11.6758
11.6399
11.6043
11.5689
11.5341
14.9088
14.8535
14.7986
14.7439
14.6896
14.6356
14.5819
14.5285
14.4754
14.4227
14.3703
14.3182
14.2664
14.2149
14.1638
14.113
14.0625
14.0123
13.9625
13.913
13.8638
13.8149
13.7664
13.7182
13.6703
13.6227
13.5755
13.5285
13.4819
13.4356
13.3896
13.3439
13.2985
13.2533
13.2085
13.1639
13.1195
13.0755
13.0316
12.9881
12.9447
12.9016
12.8587
12.816
12.7735
12.7312
12.6891
12.6472
12.6055
12.564
12.5227
12.4816
12.4407
12.4
12.3595
12.3192
12.2791
12.2393
12.1996
12.1602
12.1211
12.0821
12.0434
12.005
11.9668
11.9288
11.8911
11.8536
11.8164
11.7794
11.7427
11.7063
11.6701
11.6341
11.5984
11.5629
11.5281
14.8935
14.8382
14.7833
14.7286
14.6743
14.6203
14.5666
14.5132
14.4602
14.4075
14.3551
14.303
14.2513
14.1999
14.1488
14.0981
14.0476
13.9975
13.9478
13.8983
13.8492
13.8004
13.752
13.7038
13.656
13.6085
13.5613
13.5144
13.4678
13.4216
13.3756
13.33
13.2846
13.2395
13.1947
13.1502
13.1059
13.0619
13.0181
12.9745
12.9312
12.8881
12.8453
12.8026
12.7601
12.7179
12.6758
12.634
12.5923
12.5508
12.5096
12.4685
12.4276
12.387
12.3465
12.3062
12.2662
12.2263
12.1867
12.1473
12.1082
12.0693
12.0306
11.9922
11.954
11.9161
11.8784
11.8409
11.8037
11.7668
11.7301
11.6937
11.6575
11.6216
11.5859
11.5504
11.5156
14.8578
14.8026
14.7477
14.6932
14.639
14.5851
14.5315
14.4783
14.4255
14.3729
14.3207
14.2689
14.2174
14.1662
14.1153
14.0648
14.0146
13.9648
13.9153
13.8661
13.8172
13.7687
13.7204
13.6726
13.625
13.5777
13.5308
13.4842
13.4378
13.3918
13.3461
13.3007
13.2555
13.2106
13.166
13.1217
13.0776
13.0338
12.9902
12.9468
12.9037
12.8608
12.8181
12.7756
12.7333
12.6912
12.6492
12.6075
12.566
12.5247
12.4835
12.4425
12.4018
12.3612
12.3209
12.2807
12.2407
12.201
12.1615
12.1222
12.0832
12.0443
12.0058
11.9674
11.9294
11.8915
11.8539
11.8166
11.7795
11.7427
11.7061
11.6698
11.6337
11.5979
11.5623
11.527
11.4923
14.7933
14.7384
14.6839
14.6297
14.5759
14.5224
14.4693
14.4165
14.3641
14.312
14.2602
14.2089
14.1578
14.1071
14.0567
14.0067
13.957
13.9077
13.8587
13.81
13.7617
13.7136
13.6659
13.6186
13.5715
13.5247
13.4783
13.4322
13.3863
13.3408
13.2955
13.2506
13.2059
13.1615
13.1173
13.0734
13.0298
12.9863
12.9431
12.9002
12.8574
12.8148
12.7725
12.7303
12.6883
12.6465
12.6049
12.5635
12.5222
12.4812
12.4403
12.3996
12.359
12.3187
12.2786
12.2386
12.1989
12.1594
12.1201
12.081
12.0421
12.0035
11.9651
11.927
11.8891
11.8515
11.8141
11.7769
11.7401
11.7034
11.6671
11.6309
11.5951
11.5595
11.5241
11.489
11.4546
14.6997
14.6455
14.5916
14.5381
14.4849
14.4321
14.3797
14.3276
14.2758
14.2244
14.1734
14.1227
14.0723
14.0223
13.9726
13.9233
13.8743
13.8257
13.7774
13.7295
13.6818
13.6345
13.5875
13.5408
13.4945
13.4484
13.4027
13.3572
13.3121
13.2672
13.2226
13.1783
13.1343
13.0905
13.047
13.0037
12.9606
12.9178
12.8752
12.8327
12.7905
12.7485
12.7066
12.665
12.6235
12.5821
12.541
12.5
12.4591
12.4185
12.378
12.3376
12.2975
12.2575
12.2177
12.1781
12.1387
12.0995
12.0605
12.0217
11.9832
11.9448
11.9068
11.8689
11.8313
11.794
11.7569
11.72
11.6834
11.6471
11.611
11.5752
11.5396
11.5043
11.4693
11.4345
11.4004
14.5909
14.5373
14.4841
14.4312
14.3786
14.3265
14.2746
14.2231
14.172
14.1212
14.0708
14.0207
13.971
13.9216
13.8725
13.8238
13.7754
13.7274
13.6797
13.6323
13.5852
13.5385
13.4921
13.4461
13.4003
13.3549
13.3097
13.2649
13.2204
13.1761
13.1321
13.0884
13.045
13.0018
12.9588
12.9161
12.8736
12.8314
12.7893
12.7474
12.7057
12.6642
12.6229
12.5817
12.5407
12.4998
12.4591
12.4186
12.3782
12.3379
12.2979
12.2579
12.2182
12.1786
12.1392
12.0999
12.0609
12.022
11.9834
11.945
11.9068
11.8688
11.8311
11.7935
11.7563
11.7193
11.6825
11.646
11.6097
11.5737
11.538
11.5026
11.4674
11.4324
11.3977
11.3633
11.3296
14.4929
14.4397
14.3868
14.3342
14.282
14.2301
14.1786
14.1274
14.0765
14.026
13.9758
13.926
13.8765
13.8273
13.7785
13.73
13.6818
13.6339
13.5864
13.5393
13.4924
13.4459
13.3997
13.3538
13.3083
13.263
13.2181
13.1734
13.1291
13.0851
13.0413
12.9978
12.9545
12.9116
12.8688
12.8263
12.784
12.742
12.7001
12.6584
12.617
12.5757
12.5345
12.4936
12.4528
12.4122
12.3717
12.3314
12.2912
12.2512
12.2113
12.1716
12.1321
12.0927
12.0535
12.0145
11.9757
11.9371
11.8987
11.8605
11.8225
11.7848
11.7473
11.71
11.673
11.6362
11.5997
11.5635
11.5275
11.4918
11.4563
11.4211
11.3862
11.3516
11.3172
11.2831
11.2497
14.4217
14.3687
14.3159
14.2635
14.2114
14.1596
14.1081
14.057
14.0061
13.9556
13.9054
13.8556
13.806
13.7568
13.7079
13.6593
13.6111
13.5631
13.5155
13.4682
13.4212
13.3746
13.3282
13.2822
13.2364
13.191
13.1459
13.1011
13.0565
13.0123
12.9683
12.9246
12.8812
12.838
12.795
12.7523
12.7098
12.6676
12.6256
12.5837
12.5421
12.5006
12.4594
12.4183
12.3773
12.3366
12.296
12.2556
12.2154
12.1753
12.1354
12.0957
12.0561
12.0168
11.9776
11.9386
11.8998
11.8612
11.8229
11.7848
11.7469
11.7092
11.6718
11.6347
11.5977
11.5611
11.5247
11.4886
11.4527
11.4172
11.3819
11.3468
11.312
11.2775
11.2433
11.2093
11.1761
14.3786
14.3257
14.273
14.2207
14.1686
14.1168
14.0653
14.0141
13.9632
13.9127
13.8624
13.8124
13.7628
13.7134
13.6644
13.6156
13.5672
13.519
13.4712
13.4236
13.3764
13.3294
13.2828
13.2364
13.1903
13.1445
13.099
13.0538
13.0089
12.9642
12.9198
12.8757
12.8318
12.7882
12.7448
12.7016
12.6587
12.616
12.5736
12.5313
12.4893
12.4474
12.4058
12.3644
12.3231
12.282
12.2412
12.2005
12.16
12.1197
12.0796
12.0396
11.9999
11.9604
11.9211
11.882
11.8431
11.8045
11.766
11.7279
11.6899
11.6523
11.6149
11.5777
11.5408
11.5042
11.4679
11.4318
11.396
11.3604
11.3252
11.2902
11.2554
11.221
11.1868
11.1528
11.1197
14.3589
14.3062
14.2537
14.2014
14.1494
14.0976
14.0462
13.995
13.9441
13.8934
13.8431
13.7931
13.7433
13.6938
13.6447
13.5957
13.5471
13.4988
13.4507
13.4029
13.3554
13.3081
13.2611
13.2144
13.168
13.1218
13.0758
13.0302
12.9847
12.9396
12.8947
12.85
12.8056
12.7614
12.7175
12.6738
12.6303
12.5871
12.5441
12.5013
12.4587
12.4164
12.3743
12.3323
12.2906
12.2492
12.2079
12.1668
12.126
12.0853
12.0449