/*--------------------------------*- C++ -*----------------------------------*\
  =========                 |
  \\      /  F ield         | OpenFOAM: The Open Source CFD Toolbox
   \\    /   O peration     | Website:  https://openfoam.org
    \\  /    A nd           | Version:  13
     \\/     M anipulation  |
\*---------------------------------------------------------------------------*/
FoamFile
{
    format      ascii;
    class       volScalarField;
    location    "1000";
    object      nut;
}
// * * * * * * * * * * * * * * * * * * * * * * * * * * * * * * * * * * * * * //

dimensions      [0 2 -1 0 0 0 0];

internalField   nonuniform List<scalar> 
171634
(
0.0190297
0.0190159
0.0190022
0.0189886
0.0189751
0.0189615
0.0189478
0.0189341
0.0189203
0.0189064
0.0188923
0.0188782
0.0188641
0.0188499
0.0188356
0.0188214
0.0188072
0.0187931
0.0187791
0.0187651
0.0187513
0.0187376
0.0190303
0.0190166
0.019003
0.0189895
0.018976
0.0189625
0.0189489
0.0189352
0.0189214
0.0189075
0.0188935
0.0188794
0.0188653
0.018851
0.0188368
0.0188225
0.0188083
0.0187942
0.0187801
0.0187662
0.0187523
0.0187386
0.0190318
0.0190182
0.0190048
0.0189914
0.0189781
0.0189647
0.0189512
0.0189376
0.0189239
0.01891
0.018896
0.018882
0.0188678
0.0188535
0.0188392
0.0188249
0.0188107
0.0187965
0.0187824
0.0187684
0.0187545
0.0187407
0.019034
0.0190207
0.0190075
0.0189944
0.0189812
0.018968
0.0189547
0.0189413
0.0189277
0.0189139
0.0188999
0.0188859
0.0188717
0.0188574
0.018843
0.0188287
0.0188144
0.0188001
0.0187859
0.0187719
0.0187579
0.0187442
0.0190372
0.0190242
0.0190114
0.0189986
0.0189858
0.0189729
0.0189598
0.0189466
0.0189331
0.0189194
0.0189056
0.0188915
0.0188773
0.018863
0.0188486
0.0188341
0.0188197
0.0188054
0.0187911
0.018777
0.018763
0.0187492
0.0190414
0.0190289
0.0190166
0.0190043
0.0189919
0.0189794
0.0189667
0.0189537
0.0189405
0.018927
0.0189132
0.0188992
0.018885
0.0188706
0.0188561
0.0188416
0.0188271
0.0188127
0.0187983
0.0187841
0.01877
0.0187562
0.0190469
0.0190351
0.0190234
0.0190117
0.019
0.018988
0.0189758
0.0189632
0.0189503
0.0189371
0.0189235
0.0189095
0.0188953
0.0188809
0.0188664
0.0188518
0.0188372
0.0188227
0.0188082
0.0187939
0.0187798
0.0187659
0.0190538
0.0190429
0.0190321
0.0190214
0.0190105
0.0189993
0.0189877
0.0189758
0.0189633
0.0189504
0.0189371
0.0189233
0.0189092
0.0188948
0.0188803
0.0188656
0.0188509
0.0188363
0.0188218
0.0188074
0.0187933
0.0187794
0.0190627
0.019053
0.0190434
0.0190339
0.0190241
0.019014
0.0190035
0.0189924
0.0189806
0.0189683
0.0189553
0.0189418
0.0189279
0.0189136
0.0188991
0.0188845
0.0188697
0.0188551
0.0188405
0.0188262
0.0188121
0.0187982
0.0190739
0.0190659
0.0190581
0.0190502
0.0190421
0.0190335
0.0190244
0.0190145
0.0190038
0.0189923
0.01898
0.018967
0.0189534
0.0189394
0.018925
0.0189105
0.0188958
0.0188812
0.0188667
0.0188525
0.0188385
0.0188248
0.0190884
0.0190826
0.0190771
0.0190717
0.0190659
0.0190596
0.0190524
0.0190444
0.0190352
0.019025
0.0190138
0.0190016
0.0189887
0.0189751
0.0189611
0.0189468
0.0189324
0.018918
0.0189037
0.0188897
0.0188759
0.0188626
0.019107
0.0191044
0.0191022
0.0191002
0.0190978
0.0190948
0.0190907
0.0190853
0.0190786
0.0190704
0.0190608
0.01905
0.0190381
0.0190254
0.019012
0.0189982
0.0189842
0.0189702
0.0189563
0.0189427
0.0189294
0.0189165
0.019131
0.0191329
0.0191356
0.0191387
0.0191414
0.0191432
0.0191437
0.0191425
0.0191393
0.0191342
0.0191271
0.0191183
0.019108
0.0190965
0.0190841
0.019071
0.0190577
0.0190442
0.0190309
0.0190178
0.019005
0.0189928
0.0191625
0.0191709
0.0191807
0.0191912
0.0192015
0.0192106
0.0192179
0.0192226
0.0192247
0.0192239
0.0192203
0.0192142
0.019206
0.019196
0.0191846
0.0191724
0.0191596
0.0191466
0.0191337
0.019121
0.0191087
0.0190969
0.0192039
0.0192217
0.0192418
0.0192631
0.0192839
0.0193031
0.0193194
0.0193319
0.0193404
0.0193447
0.0193451
0.0193418
0.0193355
0.0193266
0.0193158
0.0193037
0.0192908
0.0192776
0.0192644
0.0192514
0.0192388
0.0192267
0.0192583
0.0192886
0.0193215
0.019355
0.0193872
0.0194163
0.0194411
0.0194609
0.0194749
0.0194833
0.0194864
0.0194847
0.0194789
0.0194698
0.0194581
0.0194448
0.0194304
0.0194155
0.0194005
0.0193858
0.0193714
0.0193575
0.0193253
0.018767
0.0180107
0.0176166
0.0176215
0.0180577
0.0189486
0.0195469
0.0195636
0.0195738
0.0195777
0.0195761
0.0195696
0.019559
0.0195454
0.0195297
0.0195125
0.0194947
0.0194766
0.0194586
0.0194408
0.0194232
0.0170012
0.0158257
0.014974
0.0144727
0.0143586
0.0146626
0.0153992
0.0165591
0.0181465
0.0194899
0.019495
0.019494
0.0194874
0.0194761
0.0194611
0.0194435
0.0194241
0.0194036
0.0193824
0.0193606
0.0193386
0.0193161
0.0144114
0.01318
0.0122577
0.0116665
0.0114428
0.0116254
0.0122698
0.0133523
0.0148298
0.0167203
0.0191057
0.019103
0.0190959
0.0190844
0.019069
0.0190503
0.0190291
0.0190056
0.0189803
0.018953
0.0189237
0.0188921
0.0181556
0.0181385
0.0181175
0.0180905
0.0180568
0.018015
0.0179632
0.0178993
0.016471
0.0164517
0.0164111
0.0163433
0.0162416
0.0160995
0.0159124
0.0156776
0.0191891
0.0191919
0.0192135
0.0183371
0.019208
0.0192001
0.0191978
0.0192084
0.019242
0.0162804
0.0129945
0.0192098
0.0192039
0.0192054
0.0192226
0.0192656
0.0149603
0.0120451
0.0192111
0.0192064
0.0192101
0.0192309
0.0184543
0.0143159
0.0115654
0.00988232
0.0192111
0.0192064
0.0192101
0.0192309
0.018454
0.0143161
0.0115663
0.00988455
0.0192377
0.0192281
0.0192185
0.0192098
0.0192039
0.0192054
0.0192226
0.0192657
0.0149575
0.0120451
0.0102536
0.0192474
0.0192376
0.0192277
0.0192177
0.019208
0.0192001
0.0191978
0.0192085
0.0192422
0.016272
0.0129911
0.0109649
0.0192473
0.0192374
0.0192274
0.0192169
0.019206
0.0191957
0.0191891
0.0191919
0.0192137
0.0183212
0.0144059
0.0119433
0.0192474
0.0192375
0.0192275
0.0192167
0.0192049
0.0191926
0.0191819
0.0191775
0.0191877
0.0192226
0.0160631
0.0129777
0.0192476
0.019238
0.0192282
0.0192175
0.0192054
0.0191919
0.0191784
0.0191687
0.0191701
0.0191932
0.0175873
0.013769
0.0114432
0.0192577
0.0192482
0.0192391
0.0192299
0.0192199
0.0192084
0.019195
0.0191807
0.0191684
0.0191651
0.0191816
0.0184256
0.0140248
0.0113501
0.0192682
0.0192581
0.0192491
0.0192408
0.0192328
0.0192242
0.0192144
0.0192028
0.01919
0.0191788
0.0191758
0.0191926
0.0180731
0.0135581
0.0107934
0.0192682
0.0192586
0.0192503
0.0192432
0.0192368
0.0192305
0.0192237
0.0192159
0.0192077
0.0192019
0.0192055
0.0192309
0.0164683
0.0123644
0.00978745
0.0192682
0.0192592
0.0192518
0.0192461
0.0192418
0.0192387
0.0192364
0.0192348
0.0192349
0.0192401
0.0192583
0.0187943
0.0139563
0.0105278
0.00835018
0.00696101
0.00614759
0.00538129
0.00494692
0.0192682
0.0192597
0.0192533
0.0192493
0.0192476
0.0192485
0.0192522
0.0192594
0.019272
0.0192946
0.0190038
0.0147479
0.0109637
0.00812973
0.00631863
0.00504736
0.00518269
0.00632628
0.00438483
0.019268
0.0192601
0.0192547
0.0192524
0.0192537
0.0192592
0.0192701
0.0192883
0.0193172
0.0182601
0.0148424
0.01135
0.00822159
0.00569909
0.00433533
0.0055204
0.00368103
0.00345312
0.00318672
0.00277245
0.0192675
0.0192601
0.0192557
0.0192551
0.0192592
0.0192694
0.019288
0.0193183
0.0181385
0.0150799
0.0119598
0.0089838
0.00631907
0.00425455
0.0046195
0.0024477
0.0019844
0.00178877
0.00342221
0.00245755
0.00211168
0.0192667
0.0192596
0.019256
0.0192567
0.0192633
0.0192778
0.0193035
0.0191132
0.0160702
0.0130841
0.0102316
0.00761822
0.0053497
0.0036375
0.00317172
0.00169277
0.00115232
0.00134096
0.000677884
0.00179868
0.0015174
0.00193592
0.0192655
0.0192585
0.0192553
0.0192569
0.0192652
0.0192828
0.0193135
0.0179521
0.0149164
0.0120514
0.00941094
0.00706724
0.00509022
0.00365529
0.00291107
0.00177582
0.00131805
0.00102422
0.000958998
0.000907713
0.0010773
0.00101265
0.0192638
0.0192567
0.0192535
0.0192554
0.0192644
0.0192833
0.0193164
0.0175129
0.0145296
0.0117805
0.00930474
0.00715236
0.00535956
0.00396731
0.00308249
0.00285406
0.00208118
0.00230689
0.00175916
0.00167625
0.00166033
0.00161823
0.00151068
0.00179567
0.00202333
0.0192617
0.0192542
0.0192506
0.0192521
0.0192607
0.0192792
0.0193118
0.0176882
0.0147763
0.0121219
0.00977197
0.00775326
0.00609928
0.00480149
0.00401988
0.0035705
0.00311092
0.00242803
0.00217918
0.00241723
0.0029713
0.00363019
0.00344907
0.0033271
0.00341721
0.00330987
0.00319695
0.00309764
0.00300308
0.00291815
0.00284566
0.00278692
0.0027423
0.00271162
0.00269434
0.00268763
0.00269212
0.00270798
0.00273515
0.00277383
0.00282455
0.00288687
0.0192592
0.0192511
0.0192467
0.0192473
0.0192545
0.0192711
0.0193008
0.0183815
0.0155306
0.0129636
0.0107014
0.00876743
0.00717032
0.00590021
0.00494539
0.004467
0.00403181
0.00475758
0.00328345
0.00366583
0.00459867
0.00616782
0.00751262
0.00786916
0.00780044
0.00745066
0.00703422
0.00700717
0.006628
0.00624588
0.00588341
0.00555085
0.00525106
0.00498451
0.00474945
0.00454302
0.00436199
0.00420322
0.00406388
0.00394161
0.00383464
0.00374196
0.00366401
0.0192564
0.0192476
0.0192421
0.0192412
0.0192464
0.01926
0.0192852
0.0193254
0.0167101
0.0142009
0.0120008
0.0101094
0.00853205
0.00725419
0.00625679
0.00559638
0.00545545
0.00510886
0.00564801
0.00648428
0.00772489
0.00937812
0.0113501
0.0134946
0.0134555
0.0133961
0.0128651
0.0125256
0.0122481
0.0119543
0.0116493
0.011339
0.0108772
0.0103346
0.0098011
0.00928714
0.00879825
0.00833601
0.00789924
0.0074852
0.00709041
0.00671142
0.00634712
0.0192655
0.0192534
0.0192437
0.0192371
0.0192345
0.0192372
0.0192471
0.0192669
0.0192997
0.0182417
0.0157739
0.0136075
0.0117442
0.0101776
0.00890108
0.00791116
0.00723053
0.00697698
0.00727248
0.00782643
0.00872582
0.0100411
0.0118387
0.014136
0.0164122
0.0163981
0.0163873
0.0163703
0.0163378
0.0162823
0.0161961
0.016072
0.0159039
0.0156878
0.0154221
0.0151071
0.0147448
0.0143382
0.0138902
0.0134033
0.0128793
0.0123196
0.0111297
0.0100658
0.0192631
0.0192503
0.0192397
0.0192318
0.0192273
0.0192275
0.0192337
0.0192478
0.0192726
0.01931
0.0176588
0.0155159
0.0136703
0.0121194
0.0108584
0.0098904
0.00923636
0.00893568
0.00902403
0.00954747
0.010547
0.0120235
0.0139933
0.0165493
0.0181482
0.0181354
0.0181219
0.0181057
0.0180851
0.0180589
0.0180262
0.0179857
0.0179358
0.0178742
0.0177985
0.0177055
0.0175919
0.0174535
0.0172856
0.0170826
0.0168377
0.016543
0.0161907
0.0156584
0.0192608
0.0192473
0.0192357
0.0192265
0.0192203
0.0192179
0.0192204
0.0192293
0.0192465
0.0192741
0.0193129
0.0177254
0.0159055
0.0143787
0.0131507
0.0122298
0.0116372
0.0114096
0.0115864
0.0122252
0.0133117
0.0148179
0.0167732
0.019091
0.0190853
0.0190753
0.0190611
0.0190433
0.0190223
0.0189988
0.0189731
0.0189453
0.0189154
0.0188831
0.0188481
0.0188098
0.0187672
0.0187192
0.0186644
0.0186007
0.0185255
0.0184349
0.0183243
0.0181875
0.0192586
0.0192443
0.0192318
0.0192213
0.0192134
0.0192087
0.019208
0.0192122
0.0192228
0.0192411
0.0192689
0.0193061
0.0184306
0.0169556
0.0157835
0.0149337
0.0144321
0.0143158
0.0146174
0.0153546
0.0165252
0.0181465
0.0194855
0.0194892
0.0194867
0.0194785
0.0194657
0.0194494
0.0194304
0.0194098
0.0193881
0.0193656
0.0193426
0.0193193
0.0192956
0.0192714
0.0192467
0.0192214
0.0191953
0.0191682
0.0191399
0.0191099
0.0190775
0.0190417
0.0192564
0.0192415
0.0192282
0.0192165
0.0192071
0.0192003
0.0191966
0.0191969
0.019202
0.0192127
0.0192303
0.0192556
0.0192884
0.0193274
0.0187111
0.0179568
0.0175635
0.0175683
0.0180049
0.018901
0.0195475
0.0195638
0.0195735
0.0195768
0.0195743
0.019567
0.0195556
0.0195412
0.0195248
0.019507
0.0194885
0.0194698
0.0194511
0.0194326
0.0194145
0.0193968
0.0193794
0.0193625
0.019346
0.0193302
0.0193151
0.0193011
0.0192882
0.0192765
0.0192544
0.0192389
0.0192248
0.0192121
0.0192013
0.0191926
0.0191865
0.0191835
0.0191841
0.0191889
0.0191985
0.0192134
0.0192341
0.0192603
0.0192908
0.019324
0.0193577
0.0193899
0.0194191
0.019444
0.0194636
0.0194775
0.0194856
0.0194884
0.0194862
0.01948
0.0194704
0.0194583
0.0194444
0.0194296
0.0194144
0.019399
0.0193839
0.0193692
0.019355
0.0193413
0.0193283
0.0193159
0.0193043
0.0192935
0.0192837
0.019275
0.0192677
0.0192618
0.0192526
0.0192366
0.0192217
0.0192081
0.0191961
0.0191859
0.0191777
0.019172
0.019169
0.0191691
0.0191726
0.0191799
0.0191909
0.0192057
0.0192238
0.0192441
0.0192656
0.0192867
0.019306
0.0193224
0.0193351
0.0193435
0.0193477
0.0193479
0.0193445
0.0193379
0.0193287
0.0193177
0.0193054
0.0192922
0.0192788
0.0192654
0.0192522
0.0192395
0.0192272
0.0192156
0.0192046
0.0191943
0.0191847
0.019176
0.0191681
0.0191613
0.0191555
0.0191509
0.0192509
0.0192344
0.0192189
0.0192046
0.0191915
0.01918
0.0191701
0.0191621
0.0191563
0.0191528
0.0191518
0.0191534
0.0191575
0.0191641
0.0191727
0.0191827
0.0191934
0.0192039
0.0192132
0.0192206
0.0192254
0.0192275
0.0192267
0.0192231
0.019217
0.0192086
0.0191985
0.019187
0.0191746
0.0191617
0.0191486
0.0191355
0.0191228
0.0191104
0.0190985
0.0190872
0.0190765
0.0190664
0.0190571
0.0190484
0.0190406
0.0190335
0.0190273
0.019022
0.0192494
0.0192325
0.0192165
0.0192015
0.0191875
0.0191749
0.0191636
0.0191538
0.0191458
0.0191395
0.0191351
0.0191325
0.0191317
0.0191325
0.0191345
0.0191374
0.0191406
0.0191435
0.0191454
0.019146
0.0191449
0.0191418
0.0191367
0.0191297
0.0191208
0.0191105
0.0190989
0.0190864
0.0190733
0.0190599
0.0190464
0.019033
0.0190198
0.0190071
0.0189948
0.018983
0.0189717
0.0189611
0.018951
0.0189416
0.0189329
0.0189248
0.0189174
0.0189106
0.0192481
0.0192308
0.0192143
0.0191987
0.0191841
0.0191705
0.0191581
0.0191469
0.0191371
0.0191286
0.0191216
0.019116
0.0191116
0.0191083
0.0191058
0.0191038
0.0191019
0.0190997
0.0190967
0.0190928
0.0190875
0.0190808
0.0190727
0.0190631
0.0190523
0.0190404
0.0190276
0.0190142
0.0190004
0.0189864
0.0189724
0.0189585
0.0189449
0.0189316
0.0189187
0.0189062
0.0188943
0.0188829
0.018872
0.0188616
0.0188518
0.0188425
0.0188338
0.0188257
0.0192469
0.0192294
0.0192125
0.0191964
0.0191811
0.0191668
0.0191534
0.0191411
0.0191299
0.0191198
0.0191108
0.0191028
0.0190958
0.0190896
0.0190839
0.0190786
0.0190732
0.0190676
0.0190613
0.0190543
0.0190463
0.0190372
0.0190271
0.0190159
0.0190038
0.0189908
0.0189773
0.0189633
0.018949
0.0189346
0.0189202
0.0189059
0.0188919
0.0188782
0.0188648
0.0188519
0.0188394
0.0188273
0.0188157
0.0188045
0.0187938
0.0187836
0.0187738
0.0187644
0.0192459
0.0192281
0.0192109
0.0191943
0.0191786
0.0191636
0.0191495
0.0191363
0.0191239
0.0191125
0.019102
0.0190924
0.0190834
0.0190751
0.0190671
0.0190594
0.0190516
0.0190436
0.0190352
0.0190261
0.0190162
0.0190056
0.0189942
0.0189819
0.018969
0.0189555
0.0189414
0.0189271
0.0189126
0.0188979
0.0188834
0.0188689
0.0188547
0.0188407
0.0188271
0.0188138
0.0188009
0.0187883
0.0187762
0.0187645
0.0187531
0.0187421
0.0187315
0.0187212
0.0192451
0.019227
0.0192095
0.0191926
0.0191764
0.019161
0.0191462
0.0191323
0.0191191
0.0191067
0.019095
0.019084
0.0190736
0.0190637
0.0190541
0.0190447
0.0190352
0.0190255
0.0190155
0.019005
0.018994
0.0189823
0.01897
0.0189571
0.0189437
0.0189298
0.0189156
0.0189011
0.0188865
0.0188718
0.0188572
0.0188427
0.0188284
0.0188143
0.0188005
0.018787
0.0187738
0.018761
0.0187485
0.0187364
0.0187245
0.018713
0.0187018
0.0186908
0.0192443
0.0192261
0.0192083
0.0191912
0.0191746
0.0191587
0.0191435
0.019129
0.0191151
0.0191019
0.0190894
0.0190774
0.0190659
0.0190548
0.019044
0.0190333
0.0190226
0.0190118
0.0190007
0.0189892
0.0189773
0.0189649
0.0189521
0.0189388
0.0189251
0.018911
0.0188967
0.0188822
0.0188676
0.0188529
0.0188384
0.0188239
0.0188096
0.0187955
0.0187816
0.018768
0.0187547
0.0187417
0.018729
0.0187166
0.0187044
0.0186925
0.0186808
0.0186693
0.0192437
0.0192253
0.0192073
0.01919
0.0191731
0.0191569
0.0191413
0.0191263
0.0191119
0.0190981
0.0190848
0.0190721
0.0190598
0.0190478
0.0190361
0.0190245
0.0190129
0.0190012
0.0189893
0.0189772
0.0189647
0.0189519
0.0189386
0.0189251
0.0189112
0.0188971
0.0188827
0.0188683
0.0188537
0.0188392
0.0188246
0.0188102
0.018796
0.0187819
0.0187681
0.0187545
0.0187411
0.018728
0.0187151
0.0187024
0.01869
0.0186778
0.0186658
0.0186539
0.0192432
0.0192246
0.0192065
0.0191889
0.0191719
0.0191554
0.0191395
0.0191241
0.0191093
0.019095
0.0190812
0.0190679
0.019055
0.0190423
0.0190299
0.0190177
0.0190054
0.0189931
0.0189807
0.018968
0.0189551
0.018942
0.0189285
0.0189148
0.0189008
0.0188867
0.0188723
0.0188579
0.0188435
0.018829
0.0188146
0.0188003
0.0187861
0.0187721
0.0187583
0.0187447
0.0187313
0.0187181
0.0187051
0.0186923
0.0186797
0.0186673
0.018655
0.0186428
0.0192427
0.0192241
0.0192058
0.0191881
0.0191709
0.0191542
0.019138
0.0191223
0.0191072
0.0190925
0.0190784
0.0190646
0.0190512
0.0190381
0.0190252
0.0190124
0.0189997
0.018987
0.0189741
0.0189611
0.0189479
0.0189345
0.0189209
0.0189071
0.0188931
0.0188789
0.0188646
0.0188503
0.0188359
0.0188215
0.0188072
0.018793
0.0187789
0.018765
0.0187512
0.0187376
0.0187242
0.018711
0.0186979
0.018685
0.0186723
0.0186597
0.0186472
0.0186348
0.0192424
0.0192236
0.0192053
0.0191875
0.0191701
0.0191532
0.0191369
0.019121
0.0191056
0.0190907
0.0190762
0.0190621
0.0190484
0.0190349
0.0190216
0.0190085
0.0189955
0.0189824
0.0189692
0.018956
0.0189426
0.018929
0.0189153
0.0189014
0.0188874
0.0188732
0.018859
0.0188447
0.0188304
0.0188162
0.0188019
0.0187878
0.0187738
0.0187599
0.0187461
0.0187326
0.0187191
0.0187059
0.0186928
0.0186798
0.018667
0.0186543
0.0186417
0.0186291
0.0192421
0.0192233
0.019205
0.019187
0.0191696
0.0191526
0.0191361
0.01912
0.0191045
0.0190894
0.0190747
0.0190604
0.0190464
0.0190327
0.0190192
0.0190058
0.0189925
0.0189792
0.0189658
0.0189524
0.0189389
0.0189252
0.0189114
0.0188975
0.0188835
0.0188693
0.0188551
0.0188409
0.0188267
0.0188124
0.0187983
0.0187842
0.0187702
0.0187564
0.0187427
0.0187291
0.0187157
0.0187024
0.0186893
0.0186763
0.0186634
0.0186506
0.0186379
0.0186252
0.019242
0.0192231
0.0192047
0.0191867
0.0191692
0.0191521
0.0191355
0.0191194
0.0191037
0.0190885
0.0190737
0.0190592
0.0190451
0.0190312
0.0190175
0.019004
0.0189905
0.0189771
0.0189636
0.0189501
0.0189365
0.0189228
0.0189089
0.018895
0.0188809
0.0188668
0.0188526
0.0188384
0.0188242
0.0188101
0.018796
0.0187819
0.018768
0.0187542
0.0187405
0.018727
0.0187136
0.0187003
0.0186871
0.0186741
0.0186612
0.0186484
0.0186356
0.0186228
0.0192419
0.0192231
0.0192046
0.0191866
0.0191691
0.019152
0.0191353
0.0191192
0.0191034
0.0190881
0.0190732
0.0190587
0.0190445
0.0190305
0.0190168
0.0190032
0.0189896
0.0189761
0.0189626
0.018949
0.0189354
0.0189216
0.0189077
0.0188938
0.0188797
0.0188656
0.0188514
0.0188372
0.0188231
0.0188089
0.0187948
0.0187808
0.0187669
0.0187531
0.0187395
0.0187259
0.0187125
0.0186992
0.0186861
0.0186731
0.0186601
0.0186473
0.0186344
0.0186217
0.0190295
0.0190157
0.019002
0.0189884
0.0189748
0.0189612
0.0189476
0.0189339
0.0189201
0.0189062
0.0188922
0.0188781
0.0188639
0.0188497
0.0188355
0.0188213
0.0188072
0.0187931
0.018779
0.0187651
0.0187513
0.0187376
0.0190301
0.0190164
0.0190028
0.0189893
0.0189758
0.0189622
0.0189487
0.018935
0.0189212
0.0189073
0.0188933
0.0188793
0.0188651
0.0188509
0.0188367
0.0188225
0.0188083
0.0187942
0.0187801
0.0187662
0.0187523
0.0187386
0.0190316
0.019018
0.0190046
0.0189912
0.0189779
0.0189645
0.018951
0.0189374
0.0189237
0.0189099
0.0188959
0.0188818
0.0188677
0.0188534
0.0188392
0.0188249
0.0188107
0.0187965
0.0187824
0.0187684
0.0187546
0.0187408
0.0190339
0.0190206
0.0190074
0.0189943
0.0189811
0.0189679
0.0189546
0.0189412
0.0189276
0.0189138
0.0188999
0.0188858
0.0188717
0.0188574
0.0188431
0.0188288
0.0188145
0.0188003
0.0187861
0.0187721
0.0187582
0.0187444
0.0190372
0.0190242
0.0190114
0.0189986
0.0189858
0.0189729
0.0189599
0.0189466
0.0189332
0.0189195
0.0189057
0.0188916
0.0188775
0.0188632
0.0188488
0.0188344
0.0188201
0.0188057
0.0187915
0.0187774
0.0187635
0.0187497
0.0190416
0.0190291
0.0190167
0.0190044
0.0189921
0.0189796
0.0189669
0.0189539
0.0189407
0.0189273
0.0189135
0.0188995
0.0188854
0.018871
0.0188566
0.0188421
0.0188277
0.0188133
0.018799
0.0187848
0.0187708
0.018757
0.0190471
0.0190353
0.0190237
0.019012
0.0190002
0.0189883
0.0189761
0.0189636
0.0189507
0.0189375
0.0189239
0.01891
0.0188958
0.0188815
0.018867
0.0188525
0.0188379
0.0188234
0.0188091
0.0187948
0.0187808
0.0187669
0.0190541
0.0190432
0.0190325
0.0190217
0.0190108
0.0189996
0.0189881
0.0189761
0.0189637
0.0189508
0.0189375
0.0189238
0.0189097
0.0188954
0.0188809
0.0188663
0.0188517
0.0188371
0.0188227
0.0188084
0.0187943
0.0187805
0.019063
0.0190533
0.0190437
0.0190342
0.0190244
0.0190143
0.0190037
0.0189926
0.0189809
0.0189686
0.0189556
0.0189422
0.0189283
0.0189141
0.0188996
0.018885
0.0188704
0.0188558
0.0188414
0.0188271
0.018813
0.0187993
0.0190742
0.0190661
0.0190583
0.0190504
0.0190422
0.0190337
0.0190245
0.0190145
0.0190038
0.0189923
0.0189801
0.0189671
0.0189536
0.0189396
0.0189253
0.0189108
0.0188963
0.0188818
0.0188674
0.0188532
0.0188393
0.0188257
0.0190886
0.0190828
0.0190772
0.0190717
0.0190659
0.0190595
0.0190523
0.0190441
0.019035
0.0190247
0.0190135
0.0190014
0.0189885
0.018975
0.0189611
0.0189468
0.0189325
0.0189182
0.0189041
0.0188901
0.0188765
0.0188633
0.0191071
0.0191044
0.0191022
0.0191
0.0190975
0.0190944
0.0190902
0.0190847
0.0190779
0.0190696
0.0190601
0.0190493
0.0190374
0.0190247
0.0190114
0.0189977
0.0189839
0.01897
0.0189563
0.0189428
0.0189296
0.0189169
0.019131
0.0191328
0.0191354
0.0191382
0.0191407
0.0191424
0.0191426
0.0191412
0.0191379
0.0191327
0.0191256
0.0191168
0.0191066
0.0190952
0.0190829
0.01907
0.0190568
0.0190435
0.0190304
0.0190175
0.0190051
0.018993
0.0191624
0.0191706
0.0191803
0.0191905
0.0192004
0.0192092
0.0192161
0.0192206
0.0192224
0.0192214
0.0192178
0.0192118
0.0192037
0.0191938
0.0191827
0.0191708
0.0191583
0.0191457
0.0191331
0.0191208
0.0191089
0.0190975
0.0192038
0.0192214
0.0192413
0.0192621
0.0192825
0.0193011
0.0193169
0.019329
0.0193371
0.0193412
0.0193416
0.0193385
0.0193325
0.019324
0.0193138
0.0193023
0.01929
0.0192775
0.0192649
0.0192527
0.0192408
0.0192294
0.0192583
0.0192885
0.0193211
0.0193542
0.0193858
0.0194142
0.0194385
0.0194576
0.0194712
0.0194794
0.0194827
0.0194816
0.0194766
0.0194685
0.0194579
0.0194458
0.0194327
0.0194191
0.0194054
0.019392
0.0193789
0.0193663
0.0193259
0.0187887
0.0180625
0.0177144
0.0177796
0.0182825
0.0192301
0.0195459
0.0195617
0.0195715
0.0195759
0.0195754
0.0195706
0.0195622
0.0195509
0.0195377
0.0195231
0.0195078
0.0194922
0.0194767
0.0194613
0.0194463
0.0169563
0.0157958
0.0149747
0.0145263
0.0144881
0.0148788
0.0156842
0.0168694
0.0184019
0.019485
0.0194909
0.0194924
0.0194898
0.0194834
0.0194737
0.0194615
0.0194473
0.0194318
0.0194154
0.0193984
0.0193808
0.0193629
0.0143023
0.0130816
0.0121871
0.011653
0.0115251
0.0118486
0.0126109
0.0137443
0.0151553
0.0167971
0.018716
0.0190769
0.0190798
0.0190798
0.0190735
0.0190629
0.0190496
0.019035
0.0190197
0.0190022
0.0189825
0.0189606
0.0180744
0.0180726
0.0180673
0.0180591
0.0180482
0.0180327
0.0180097
0.017979
0.0160918
0.0161152
0.0161309
0.0161383
0.0161362
0.016108
0.0160537
0.0159722
0.0192085
0.0192193
0.0192514
0.0168255
0.0192189
0.0192157
0.0192203
0.0192409
0.0191076
0.0148468
0.0119265
0.0192216
0.0192209
0.0192303
0.0192584
0.0174127
0.0135802
0.0109663
0.0192233
0.0192242
0.0192363
0.0192686
0.0166186
0.0129836
0.0105085
0.00898568
0.0192233
0.0192242
0.0192363
0.0192686
0.0166183
0.0129838
0.0105095
0.00898792
0.0192418
0.0192338
0.0192267
0.0192216
0.0192209
0.0192303
0.0192585
0.0174075
0.013577
0.0109657
0.009355
0.0192502
0.0192414
0.0192332
0.0192254
0.0192189
0.0192157
0.0192204
0.0192411
0.0190953
0.0148375
0.0119214
0.010108
0.0192499
0.019241
0.0192324
0.0192239
0.0192159
0.0192096
0.0192085
0.0192194
0.0192516
0.0168074
0.0133475
0.0111605
0.0192498
0.0192408
0.019232
0.019223
0.0192135
0.0192044
0.019198
0.0191995
0.0192178
0.0192615
0.015129
0.0123356
0.0192498
0.019241
0.0192323
0.0192231
0.0192129
0.0192018
0.0191915
0.0191858
0.0191924
0.0192221
0.0168895
0.0133283
0.0111407
0.0192592
0.0192502
0.0192418
0.0192336
0.0192248
0.0192148
0.0192033
0.0191911
0.0191816
0.0191814
0.0192017
0.0180169
0.0137749
0.0111702
0.0192692
0.0192594
0.0192509
0.0192432
0.019236
0.0192284
0.0192199
0.0192098
0.0191987
0.0191894
0.0191886
0.0192081
0.0177662
0.0133538
0.0106455
0.0192691
0.0192598
0.0192519
0.0192453
0.0192396
0.0192343
0.0192286
0.0192222
0.0192157
0.019212
0.0192183
0.0192476
0.0158981
0.0119654
0.00954423
0.0192691
0.0192602
0.0192532
0.019248
0.0192444
0.0192422
0.019241
0.0192411
0.0192434
0.0192519
0.0192752
0.017488
0.0128952
0.00972099
0.00784529
0.00663986
0.00605231
0.005426
0.00455976
0.0192689
0.0192607
0.0192546
0.019251
0.01925
0.0192518
0.0192568
0.0192661
0.0192822
0.0193104
0.0174267
0.0131744
0.00956418
0.00693595
0.00556141
0.00668558
0.00535713
0.00471154
0.00426486
0.0192687
0.0192609
0.0192559
0.019254
0.0192559
0.0192624
0.0192749
0.019296
0.0193297
0.0169844
0.0133399
0.00981426
0.00677215
0.00479325
0.00581512
0.00341066
0.00346065
0.00377797
0.00381849
0.00317405
0.0192681
0.0192609
0.0192567
0.0192565
0.0192612
0.0192726
0.0192932
0.0193269
0.0172406
0.0139334
0.010637
0.00759702
0.00491523
0.00339825
0.00298487
0.0019653
0.0022543
0.00158131
0.00126443
0.000788646
0.0192673
0.0192603
0.0192569
0.019258
0.0192652
0.0192809
0.0193087
0.0184849
0.0152681
0.0120917
0.00910212
0.00636989
0.00442025
0.00399073
0.00190718
0.00125655
0.00117106
0.00016021
0.019266
0.0192591
0.0192561
0.019258
0.0192669
0.0192856
0.0193185
0.0174063
0.0142353
0.011224
0.00847929
0.00606998
0.00432519
0.00344479
0.00193987
0.00154053
0.000924768
0.0192642
0.0192573
0.0192542
0.0192564
0.0192659
0.0192859
0.0193209
0.0170551
0.0139679
0.0111081
0.00854599
0.00635496
0.00446879
0.00322809
0.00270009
0.00170809
0.00146419
0.000869551
0.00127163
0.00166849
0.0192621
0.0192547
0.0192512
0.0192529
0.0192619
0.0192813
0.0193155
0.017314
0.0143179
0.0115867
0.00916275
0.00709585
0.0053786
0.00414972
0.00338767
0.00288974
0.00220299
0.00204592
0.00225621
0.00183765
0.00175609
0.00178902
0.00188199
0.00212959
0.00231125
0.00291324
0.00300498
0.00305371
0.00307331
0.00307428
0.00306569
0.00305597
0.00304934
0.00304833
0.00305437
0.00306813
0.00309
0.00312038
0.00316012
0.0032105
0.00327413
0.00335678
0.0192596
0.0192516
0.0192473
0.019248
0.0192555
0.0192727
0.0193036
0.0180873
0.0151729
0.0125454
0.0102307
0.00824995
0.00661662
0.00530585
0.00458607
0.004083
0.00468751
0.00325622
0.00359154
0.00445513
0.0054023
0.00520599
0.00521015
0.00530933
0.00624333
0.00636882
0.00647173
0.00653966
0.00652579
0.00643586
0.00629977
0.00613773
0.0059653
0.00579319
0.00562854
0.00547353
0.00532871
0.0051942
0.00506938
0.00495325
0.00484179
0.00473757
0.00462436
0.0192568
0.019248
0.0192426
0.0192418
0.0192472
0.0192612
0.0192872
0.0192907
0.0164434
0.0138892
0.011649
0.00972525
0.00812037
0.0068203
0.00587405
0.00561133
0.00514124
0.00541746
0.00608185
0.0070956
0.00840373
0.00973997
0.0107712
0.0112206
0.0108657
0.0108828
0.0109705
0.0111756
0.0113908
0.0115688
0.0117095
0.0117989
0.0117696
0.0114851
0.0111719
0.0108391
0.0104928
0.0101364
0.00977051
0.00939392
0.00878547
0.00810375
0.00745921
0.0192659
0.0192538
0.0192441
0.0192375
0.0192349
0.0192378
0.019248
0.0192682
0.0193019
0.0180514
0.0155503
0.0133564
0.0114698
0.0098855
0.0086009
0.00762745
0.00711158
0.00721824
0.00760164
0.00825785
0.00924773
0.0105684
0.0120992
0.0136078
0.0148691
0.0159111
0.0159456
0.01597
0.0159891
0.0160004
0.0160024
0.0159816
0.0159326
0.0158545
0.0157466
0.0156082
0.0154379
0.0152342
0.0149943
0.0147145
0.0143894
0.0140132
0.0129369
0.0118496
0.0192635
0.0192507
0.01924
0.0192321
0.0192278
0.019228
0.0192343
0.0192487
0.019274
0.019312
0.0175091
0.0153462
0.0134869
0.0119286
0.0106703
0.00972481
0.00914021
0.00898593
0.00925414
0.00995398
0.0110751
0.0125408
0.0142464
0.0161201
0.0180026
0.0180137
0.0180173
0.0180167
0.0180126
0.0180051
0.0179945
0.0179801
0.0179575
0.0179265
0.0178865
0.0178368
0.0177759
0.0177018
0.017612
0.0175028
0.0173694
0.0172053
0.0170031
0.0167529
0.0192612
0.0192476
0.019236
0.0192268
0.0192206
0.0192183
0.0192209
0.0192299
0.0192473
0.0192753
0.0193146
0.0176238
0.0157963
0.0142699
0.0130523
0.0121587
0.0116224
0.0114899
0.0118071
0.0125631
0.0137012
0.0151438
0.0168583
0.0188863
0.0190561
0.0190557
0.0190532
0.0190459
0.0190344
0.0190203
0.019005
0.0189871
0.0189666
0.0189438
0.0189186
0.0188908
0.0188601
0.0188262
0.0187884
0.0187457
0.0186971
0.0186407
0.018574
0.0184939
0.0192589
0.0192447
0.0192322
0.0192217
0.0192138
0.0192091
0.0192083
0.0192126
0.0192233
0.0192418
0.0192698
0.0193073
0.0183815
0.0169109
0.0157539
0.0149344
0.0144854
0.0144448
0.0148331
0.0156395
0.016836
0.0184054
0.01948
0.0194844
0.0194842
0.0194799
0.0194719
0.0194607
0.019447
0.0194314
0.0194146
0.0193969
0.0193786
0.0193597
0.0193405
0.0193208
0.0193007
0.0192802
0.0192591
0.0192376
0.0192155
0.0191929
0.0191695
0.0191452
0.0192568
0.0192419
0.0192285
0.0192169
0.0192074
0.0192006
0.019197
0.0191972
0.0192023
0.0192131
0.0192308
0.0192561
0.019289
0.019328
0.0187333
0.0180091
0.0176617
0.017727
0.0182308
0.0191844
0.0195464
0.0195618
0.0195711
0.0195748
0.0195734
0.0195677
0.0195584
0.0195463
0.0195322
0.0195168
0.0195008
0.0194845
0.0194682
0.0194522
0.0194364
0.019421
0.019406
0.0193914
0.0193773
0.0193638
0.019351
0.0193392
0.0193286
0.0193194
0.0192548
0.0192393
0.0192251
0.0192125
0.0192016
0.019193
0.0191869
0.0191838
0.0191844
0.0191891
0.0191987
0.0192136
0.0192343
0.0192604
0.0192907
0.0193236
0.0193568
0.0193885
0.019417
0.0194412
0.0194603
0.0194737
0.0194817
0.0194846
0.019483
0.0194775
0.0194688
0.0194578
0.0194452
0.0194316
0.0194176
0.0194035
0.0193896
0.0193762
0.0193632
0.0193508
0.019339
0.0193278
0.0193174
0.0193078
0.0192991
0.0192915
0.0192852
0.0192803
0.0192529
0.0192369
0.0192221
0.0192085
0.0191965
0.0191862
0.019178
0.0191723
0.0191692
0.0191693
0.0191728
0.01918
0.019191
0.0192056
0.0192235
0.0192436
0.0192646
0.0192852
0.019304
0.0193199
0.019332
0.0193401
0.0193441
0.0193443
0.019341
0.0193347
0.019326
0.0193155
0.0193037
0.0192912
0.0192784
0.0192656
0.0192531
0.019241
0.0192295
0.0192185
0.0192081
0.0191985
0.0191896
0.0191815
0.0191742
0.0191679
0.0191627
0.0191585
0.0192513
0.0192348
0.0192193
0.0192049
0.0191919
0.0191803
0.0191704
0.0191625
0.0191566
0.0191531
0.019152
0.0191535
0.0191576
0.019164
0.0191724
0.0191823
0.0191927
0.0192028