/*--------------------------------*- C++ -*----------------------------------*\
  =========                 |
  \\      /  F ield         | OpenFOAM: The Open Source CFD Toolbox
   \\    /   O peration     | Website:  https://openfoam.org
    \\  /    A nd           | Version:  13
     \\/     M anipulation  |
\*---------------------------------------------------------------------------*/
FoamFile
{
    format      ascii;
    class       volScalarField;
    location    "1000";
    object      omega;
}
// * * * * * * * * * * * * * * * * * * * * * * * * * * * * * * * * * * * * * //

dimensions      [0 0 -1 0 0 0 0];

internalField   nonuniform List<scalar> 
171634
(
18.0617
17.9783
17.8958
17.8143
17.7337
17.6538
17.5747
17.4963
17.4186
17.3415
17.2651
17.1892
17.1141
17.0396
16.9657
16.8926
16.8202
16.7485
16.6775
16.6073
16.5379
16.4692
18.0621
17.9787
17.8963
17.8149
17.7344
17.6546
17.5756
17.4972
17.4195
17.3424
17.266
17.1902
17.115
17.0405
16.9666
16.8934
16.821
16.7493
16.6783
16.608
16.5386
16.4699
18.0632
17.98
17.8978
17.8166
17.7362
17.6565
17.5776
17.4994
17.4217
17.3447
17.2683
17.1924
17.1172
17.0427
16.9687
16.8955
16.823
16.7512
16.6801
16.6099
16.5403
16.4716
18.065
17.982
17.9001
17.8191
17.7389
17.6595
17.5807
17.5026
17.4251
17.3481
17.2717
17.1959
17.1206
17.046
16.972
16.8987
16.8261
16.7542
16.683
16.6126
16.543
16.4742
18.0674
17.9849
17.9034
17.8227
17.7429
17.6638
17.5853
17.5074
17.43
17.3531
17.2768
17.201
17.1257
17.051
16.9769
16.9034
16.8307
16.7586
16.6874
16.6169
16.5471
16.4782
18.0708
17.9888
17.9078
17.8277
17.7484
17.6697
17.5916
17.514
17.4368
17.3601
17.2838
17.208
17.1327
17.0579
16.9837
16.9101
16.8372
16.765
16.6935
16.6229
16.553
16.484
18.0754
17.9941
17.9138
17.8344
17.7558
17.6777
17.6001
17.5229
17.4461
17.3696
17.2934
17.2177
17.1423
17.0675
16.9931
16.9194
16.8463
16.7739
16.7022
16.6314
16.5614
16.4923
18.0814
18.0011
17.9218
17.8434
17.7656
17.6884
17.6115
17.5349
17.4586
17.3824
17.3065
17.2309
17.1555
17.0806
17.0061
16.9322
16.8589
16.7863
16.7145
16.6435
16.5734
16.5041
18.0893
18.0103
17.9324
17.8553
17.7788
17.7027
17.6268
17.5511
17.4755
17.3999
17.3244
17.2489
17.1737
17.0987
17.0242
16.9501
16.8766
16.8039
16.7318
16.6607
16.5904
16.521
18.0996
18.0224
17.9463
17.8711
17.7964
17.722
17.6476
17.5732
17.4986
17.4238
17.3489
17.2739
17.1988
17.124
17.0494
16.9752
16.9016
16.8286
16.7564
16.6851
16.6147
16.5452
18.1131
18.0385
17.965
17.8923
17.8202
17.7481
17.676
17.6034
17.5304
17.4569
17.383
17.3086
17.234
17.1594
17.0849
17.0107
16.937
16.864
16.7917
16.7202
16.6497
16.5802
18.131
18.0598
17.99
17.9212
17.8527
17.7842
17.7152
17.6455
17.575
17.5034
17.431
17.3578
17.284
17.2099
17.1357
17.0616
16.9879
16.9148
16.8425
16.771
16.7005
16.6309
18.1547
18.0885
18.024
17.9607
17.8977
17.8345
17.7705
17.7051
17.6382
17.5698
17.4998
17.4284
17.3559
17.2827
17.209
17.1353
17.0617
16.9887
16.9163
16.8448
16.7743
16.7049
18.1864
18.1273
18.0708
18.0157
17.9612
17.9061
17.8496
17.791
17.7299
17.6662
17.6
17.5315
17.4611
17.3892
17.3164
17.2431
17.1698
17.0968
17.0244
16.953
16.8825
16.8132
18.2289
18.1805
18.1358
18.0935
18.052
18.0098
17.9652
17.9173
17.8654
17.8092
17.7488
17.6848
17.6174
17.5475
17.4759
17.4031
17.33
17.257
17.1845
17.113
17.0426
16.9734
18.2864
18.2537
18.2271
18.2048
18.1842
18.1628
18.1379
18.1075
18.0706
18.0267
17.9758
17.9186
17.8559
17.7887
17.7184
17.6461
17.5728
17.4995
17.4267
17.3549
17.2844
17.2154
18.3639
18.3552
18.3574
18.368
18.3831
18.3977
18.4068
18.4069
18.3959
18.3727
18.3375
18.2911
18.235
18.1714
18.1023
18.0297
17.9555
17.8809
17.807
17.7344
17.6638
17.5953
18.469
18.4983
18.5484
18.6165
18.6959
18.777
18.8494
18.9054
18.9402
18.9525
18.9429
18.9128
18.8653
18.8046
18.7349
18.6602
18.5832
18.5063
18.4309
18.3581
18.2885
18.2226
18.6128
18.703
18.8347
19.0066
19.2083
19.4194
19.6155
19.7774
19.8954
19.9674
19.997
19.989
19.9503
19.8898
19.8163
19.7366
19.6557
19.577
19.5028
19.4346
19.3734
19.3203
21.7354
21.6567
21.5816
21.5174
21.468
21.4365
21.4258
21.4396
25.3299
25.2982
25.3106
25.3793
25.517
25.7354
26.0446
26.4532
18.374
18.2948
18.2383
18.219
18.5611
18.4684
18.3827
18.3125
18.2708
18.274
18.3396
18.5623
18.4719
18.3905
18.3279
18.2987
18.3218
18.4158
18.5634
18.4743
18.3955
18.3374
18.3157
18.3508
18.4619
18.6549
18.5634
18.4743
18.3955
18.3374
18.3157
18.3508
18.4619
18.6548
18.8478
18.7519
18.6565
18.5623
18.4719
18.3905
18.328
18.2988
18.3221
18.4161
18.587
18.9449
18.8484
18.7523
18.6564
18.5612
18.4685
18.3828
18.3127
18.271
18.2745
18.3402
18.4753
18.9459
18.8494
18.7531
18.6567
18.5602
18.4649
18.3741
18.2949
18.2386
18.2195
18.2534
18.3499
18.9473
18.851
18.7548
18.6582
18.5607
18.463
18.3676
18.2801
18.2101
18.1711
18.1778
18.2424
18.9494
18.8535
18.7577
18.6612
18.5635
18.4645
18.3659
18.2722
18.1919
18.138
18.1259
18.1704
18.2794
19.0482
18.9521
18.8569
18.762
18.6665
18.5695
18.4707
18.3711
18.2744
18.1885
18.1265
18.1054
18.1434
18.2545
19.1478
19.0508
18.9555
18.8615
18.768
18.6743
18.5794
18.4827
18.3849
18.2892
18.2033
18.1411
18.1222
18.1698
18.3047
19.1501
19.0538
18.9596
18.8671
18.7758
18.6849
18.5936
18.5014
18.4088
18.319
18.2401
18.1876
18.1856
18.2657
18.4602
19.1526
19.0572
18.9642
18.8736
18.7851
18.6981
18.6122
18.5273
18.4442
18.3666
18.3041
18.2758
18.3157
18.4738
18.8031
19.3641
20.1544
21.1761
22.3994
19.1553
19.0607
18.9692
18.8808
18.7956
18.7136
18.6349
18.5603
18.4916
18.4344
18.4017
18.4233
18.5604
18.9216
19.6327
20.8749
22.2555
22.5655
24.0801
19.1579
19.0643
18.9743
18.8883
18.8068
18.7304
18.6605
18.5989
18.5499
18.5227
18.5397
18.6548
18.9995
19.9165
21.7149
22.2302
24.6181
28.5325
33.8928
39.5765
19.1604
19.0677
18.9791
18.8954
18.8176
18.7473
18.6867
18.6399
18.6146
18.6271
18.715
18.9708
19.6609
21.5428
22.3463
27.7864
40.1024
63.8723
80.1314
91.0535
97.5787
19.1627
19.0707
18.9833
18.9016
18.8271
18.7622
18.7105
18.6782
18.6772
18.7319
18.8959
19.3019
20.3253
22.9446
24.6567
37.9911
84.2343
150.977
348.989
419.666
415.572
434.657
19.1646
19.073
18.9865
18.9063
18.8343
18.7735
18.7286
18.7076
18.7258
18.8127
19.0311
19.5278
20.6806
23.3157
25.5606
38.9993
82.2637
164.007
686.961
856.006
719.783
855.537
19.166
19.0747
18.9886
18.9091
18.8384
18.7798
18.7385
18.7234
18.7506
18.8501
19.082
19.5743
20.622
22.8833
27.3953
31.6192
53.2684
98.5669
183.406
346.102
514.537
598.33
650.28
572.791
544.284
19.167
19.0756
18.9894
18.9099
18.8392
18.7808
18.7396
18.7242
18.7492
18.8409
19.0473
19.4609
20.265
21.8332
24.6639
29.2405
34.1955
52.0532
78.4674
116.372
153.818
171.869
178.892
183.491
162.999
167.799
173.679
178.841
181.854
182.693
181.533
178.706
174.612
169.638
164.117
158.159
152.079
146.083
140.274
134.738
129.494
124.441
19.1675
19.0758
18.9891
18.9089
18.8372
18.777
18.7329
18.7122
18.7268
18.7965
18.9556
19.2627
19.8214
20.8175
22.5273
25.1384
28.6763
31.7157
41.1401
51.5676
60.5744
66.347
69.1591
64.1116
64.5896
66.2153
68.988
72.6254
76.9437
81.6641
86.5054
91.1679
95.4106
99.1021
102.172
104.593
106.383
107.599
108.31
108.594
108.526
108.159
107.533
19.1677
19.0754
18.9879
18.9064
18.8328
18.7697
18.7208
18.6917
18.6915
18.7341
18.8414
19.0482
19.4095
20.012
20.982
22.4173
24.2423
26.1768
28.2347
30.1977
31.7256
32.6819
33.1411
33.3825
33.4913
33.6838
34.07
34.7166
35.6575
36.9153
38.4903
40.3573
42.4724
44.7861
47.2497
49.8203
52.466
55.169
57.9266
60.7486
63.6533
66.6603
69.761
19.2644
19.1677
19.0746
18.986
18.903
18.827
18.7602
18.7055
18.6671
18.6513
18.6672
18.7283
18.8541
19.0721
19.4204
19.9468
20.6874
21.6058
22.572
23.5055
24.3191
24.9377
25.3363
25.5413
25.6066
25.5906
25.5475
25.5117
25.5063
25.5484
25.6534
25.8353
26.1065
26.4764
26.9531
27.5443
28.2585
29.1068
30.1051
31.2764
32.6517
34.2696
36.1723
38.4008
19.2648
19.1674
19.0736
18.9838
18.8991
18.8205
18.7497
18.6891
18.6416
18.6112
18.6039
18.6275
18.6924
18.8118
19.0012
19.2763
19.6446
20.0903
20.5661
21.0165
21.3953
21.6775
21.8589
21.9505
21.972
21.9421
21.8828
21.8108
21.7379
21.6718
21.6181
21.581
21.5638
21.5701
21.6036
21.6689
21.772
21.9205
22.1248
22.3989
22.7614
23.2361
23.8495
24.6335
19.265
19.1671
19.0724
18.9815
18.895
18.8138
18.7393
18.673
18.6172
18.5744
18.548
18.5426
18.5635
18.6166
18.7077
18.8405
19.0139
19.2178
19.4319
19.6316
19.7974
19.9184
19.9931
20.0248
20.0186
19.9817
19.9234
19.8521
19.7751
19.6972
19.622
19.5519
19.4883
19.4324
19.3852
19.348
19.3224
19.3106
19.316
19.3429
19.3975
19.488
19.6244
19.8183
19.2653
19.1668
19.0713
18.9792
18.891
18.8075
18.7295
18.6583
18.5952
18.542
18.5008
18.4738
18.4636
18.4726
18.5025
18.5534
18.6225
18.7032
18.7858
18.8599
18.9174
18.9536
18.9669
18.958
18.9283
18.8813
18.8212
18.7523
18.6784
18.6025
18.5269
18.453
18.3818
18.3141
18.2503
18.1909
18.1365
18.0877
18.0455
18.0112
17.9867
17.9742
17.9767
17.9974
19.2655
19.1665
19.0703
18.9771
18.8874
18.8017
18.7208
18.6453
18.5762
18.5146
18.4618
18.419
18.3872
18.3671
18.3589
18.3616
18.3729
18.3888
18.4041
18.4141
18.415
18.4044
18.3816
18.3465
18.3001
18.2441
18.1805
18.1115
18.0391
17.9652
17.8909
17.8175
17.7455
17.6755
17.6078
17.5426
17.4802
17.4208
17.3649
17.3129
17.2654
17.2233
17.1872
17.1581
19.2658
19.1664
19.0694
18.9752
18.8842
18.7967
18.7131
18.6341
18.5602
18.492
18.4304
18.3758
18.3287
18.2893
18.257
18.2308
18.2089
18.1888
18.1678
18.1433
18.1133
18.0766
18.0328
17.9819
17.9246
17.8617
17.7945
17.724
17.6516
17.5783
17.505
17.4322
17.3606
17.2903
17.2216
17.1546
17.0895
17.0265
16.9657
16.9072
16.8514
16.7985
16.7488
16.7026
19.2662
19.1663
19.0687
18.9737
18.8815
18.7924
18.7067
18.6247
18.547
18.4737
18.4054
18.3422
18.2843
18.2316
18.1835
18.1391
18.0971
18.0559
18.0139
17.9696
17.9219
17.8701
17.8139
17.7535
17.6893
17.6219
17.5518
17.48
17.4071
17.3339
17.2608
17.1883
17.1168
17.0464
16.9773
16.9096
16.8434
16.7788
16.7159
16.6547
16.5953
16.538
16.4827
16.4296
19.2666
19.1663
19.0682
18.9724
18.8792
18.7888
18.7013
18.617
18.5362
18.4591
18.3858
18.3163
18.2508
18.1888
18.13
18.0737
18.0189
17.9646
17.9097
17.8534
17.7949
17.7339
17.6702
17.604
17.5354
17.4649
17.3929
17.32
17.2466
17.1732
17.1001
17.0277
16.9562
16.8857
16.8165
16.7484
16.6817
16.6163
16.5523
16.4897
16.4286
16.3691
16.3111
16.2548
19.2671
19.1664
19.0678
18.9715
18.8774
18.7859
18.6969
18.6108
18.5276
18.4474
18.3704
18.2964
18.2253
18.157
18.091
18.0267
17.9635
17.9008
17.8377
17.7738
17.7086
17.6418
17.5733
17.5033
17.4319
17.3594
17.2861
17.2124
17.1386
17.065
16.9919
16.9195
16.848
16.7775
16.7081
16.6398
16.5727
16.5069
16.4423
16.3789
16.3169
16.2561
16.1967
16.1385
19.2676
19.1666
19.0676
18.9707
18.876
18.7835
18.6934
18.6058
18.5207
18.4382
18.3583
18.281
18.206
18.1331
18.0621
17.9925
17.9238
17.8555
17.7871
17.7183
17.6487
17.5782
17.5067
17.4343
17.3611
17.2873
17.2132
17.1389
17.0649
16.9912
16.9181
16.8457
16.7742
16.7037
16.6342
16.5658
16.4985
16.4324
16.3674
16.3035
16.2408
16.1793
16.1189
16.0596
19.2681
19.1669
19.0676
18.9702
18.8749
18.7817
18.6906
18.6018
18.5153
18.431
18.349
18.2691
18.1912
18.1152
18.0406
17.9673
17.8948
17.8228
17.7509
17.6788
17.6063
17.5334
17.46
17.3861
17.3117
17.2372
17.1626
17.0881
17.0139
16.9403
16.8672
16.7949
16.7235
16.6531
16.5836
16.5151
16.4477
16.3814
16.3161
16.2519
16.1888
16.1267
16.0656
16.0055
19.2686
19.1672
19.0676
18.9699
18.8741
18.7803
18.6885
18.5987
18.511
18.4253
18.3417
18.2599
18.1799
18.1015
18.0245
17.9485
17.8734
17.7988
17.7245
17.6503
17.5759
17.5014
17.4267
17.3518
17.2769
17.2019
17.1271
17.0525
16.9784
16.9048
16.8319
16.7597
16.6885
16.6181
16.5486
16.4802
16.4128
16.3463
16.2809
16.2164
16.153
16.0905
16.0289
15.9683
19.2691
19.1676
19.0677
18.9697
18.8735
18.7792
18.6868
18.5963
18.5077
18.4209
18.336
18.2528
18.1713
18.0911
18.0123
17.9345
17.8575
17.7811
17.7051
17.6294
17.5538
17.4782
17.4027
17.3272
17.2518
17.1767
17.1018
17.0272
16.9532
16.8798
16.8071
16.7351
16.664
16.5938
16.5244
16.456
16.3886
16.3221
16.2565
16.1919
16.1282
16.0654
16.0035
15.9424
19.2696
19.1679
19.0679
18.9696
18.8731
18.7784
18.6855
18.5944
18.5051
18.4175
18.3316
18.2474
18.1646
18.0832
18.003
17.9238
17.8455
17.7678
17.6907
17.6139
17.5374
17.4612
17.3851
17.3093
17.2337
17.1584
17.0835
17.0091
16.9353
16.8621
16.7895
16.7178
16.6468
16.5767
16.5075
16.4392
16.3718
16.3053
16.2397
16.175
16.1111
16.0481
15.9858
15.9243
19.2701
19.1683
19.0681
18.9696
18.8729
18.7779
18.6845
18.593
18.5031
18.4149
18.3283
18.2432
18.1595
18.0772
17.996
17.9158
17.8365
17.7579
17.6799
17.6024
17.5253
17.4486
17.3722
17.2961
17.2204
17.1451
17.0703
16.9961
16.9224
16.8493
16.777
16.7054
16.6347
16.5647
16.4957
16.4274
16.3601
16.2936
16.2279
16.1631
16.0991
16.0359
15.9734
15.9117
19.2705
19.1686
19.0683
18.9697
18.8727
18.7775
18.6838
18.5919
18.5016
18.4129
18.3257
18.24
18.1557
18.0726
17.9907
17.9098
17.8297
17.7505
17.6719
17.5939
17.5163
17.4393
17.3626
17.2864
17.2107
17.1354
17.0607
16.9866
16.913
16.8402
16.7681
16.6967
16.6261
16.5563
16.4873
16.4192
16.3519
16.2854
16.2197
16.1549
16.0908
16.0274
15.9648
15.9028
19.2709
19.1689
19.0685
18.9698
18.8727
18.7772
18.6833
18.5911
18.5005
18.4114
18.3238
18.2376
18.1528
18.0692
17.9867
17.9053
17.8247
17.745
17.6659
17.5875
17.5097
17.4324
17.3556
17.2794
17.2036
17.1284
17.0537
16.9797
16.9063
16.8337
16.7617
16.6905
16.62
16.5503
16.4815
16.4134
16.3462
16.2797
16.2141
16.1492
16.085
16.0215
15.9587
15.8965
19.2712
19.1692
19.0687
18.9699
18.8726
18.777
18.683
18.5905
18.4996
18.4103
18.3224
18.2358
18.1506
18.0667
17.9838
17.902
17.821
17.741
17.6616
17.583
17.5049
17.4275
17.3506
17.2742
17.1985
17.1233
17.0487
16.9748
16.9016
16.829
16.7572
16.6861
16.6157
16.5462
16.4774
16.4094
16.3422
16.2758
16.2101
16.1452
16.081
16.0174
15.9545
15.8922
19.2715
19.1694
19.0689
18.97
18.8726
18.7769
18.6828
18.5902
18.4991
18.4095
18.3214
18.2346
18.1492
18.0649
17.9818
17.8997
17.8185
17.7382
17.6587
17.5798
17.5016
17.4241
17.3471
17.2708
17.195
17.1199
17.0454
16.9715
16.8984
16.8259
16.7542
16.6832
16.6129
16.5435
16.4747
16.4068
16.3396
16.2732
16.2075
16.1426
16.0783
16.0147
15.9517
15.8893
19.2716
19.1695
19.069
18.97
18.8726
18.7768
18.6826
18.5899
18.4987
18.409
18.3207
18.2338
18.1482
18.0638
17.9805
17.8982
17.8168
17.7364
17.6567
17.5777
17.4995
17.4218
17.3448
17.2685
17.1927
17.1176
17.0432
16.9694
16.8963
16.8239
16.7522
16.6813
16.6111
16.5417
16.473
16.4051
16.338
16.2716
16.2059
16.1409
16.0766
16.013
15.9499
15.8875
19.2718
19.1697
19.0691
18.9701
18.8727
18.7769
18.6826
18.5899
18.4987
18.4089
18.3205
18.2336
18.1479
18.0633
17.98
17.8976
17.8162
17.7356
17.6559
17.5769
17.4985
17.4209
17.3439
17.2675
17.1917
17.1166
17.0422
16.9684
16.8954
16.823
16.7513
16.6804
16.6103
16.5409
16.4723
16.4044
16.3372
16.2709
16.2052
16.1402
16.0759
16.0122
15.9492
15.8867
18.0615
17.978
17.8955
17.814
17.7334
17.6536
17.5745
17.4961
17.4183
17.3413
17.2648
17.189
17.1138
17.0394
16.9655
16.8924
16.82
16.7483
16.6774
16.6072
16.5378
16.4691
18.0619
17.9784
17.8961
17.8146
17.7341
17.6543
17.5752
17.4969
17.4192
17.3421
17.2657
17.1899
17.1147
17.0402
16.9664
16.8933
16.8208
16.7491
16.6781
16.6079
16.5385
16.4698
18.063
17.9797
17.8975
17.8163
17.7358
17.6562
17.5773
17.499
17.4214
17.3444
17.2679
17.1921
17.1169
17.0424
16.9685
16.8953
16.8228
16.751
16.68
16.6097
16.5402
16.4714
18.0646
17.9817
17.8997
17.8187
17.7385
17.6591
17.5803
17.5022
17.4247
17.3477
17.2713
17.1955
17.1203
17.0457
16.9717
16.8984
16.8258
16.7539
16.6828
16.6124
16.5428
16.474
18.0671
17.9845
17.9029
17.8223
17.7424
17.6633
17.5848
17.5069
17.4295
17.3526
17.2763
17.2005
17.1252
17.0505
16.9764
16.903
16.8303
16.7583
16.687
16.6165
16.5468
16.4779
18.0704
17.9883
17.9073
17.8271
17.7478
17.6691
17.5909
17.5133
17.4362
17.3594
17.2832
17.2074
17.1321
17.0573
16.9831
16.9095
16.8366
16.7644
16.693
16.6224
16.5525
16.4835
18.0748
17.9935
17.9132
17.8337
17.755
17.6769
17.5993
17.5221
17.4453
17.3688
17.2927
17.2169
17.1416
17.0667
16.9924
16.9186
16.8455
16.7732
16.7016
16.6308
16.5608
16.4917
18.0807
18.0004
17.9211
17.8426
17.7648
17.6875
17.6106
17.534
17.4576
17.3815
17.3056
17.2299
17.1546
17.0797
17.0052
16.9313
16.858
16.7855
16.7137
16.6427
16.5726
16.5033
18.0885
18.0095
17.9315
17.8543
17.7778
17.7017
17.6258
17.55
17.4744
17.3988
17.3232
17.2478
17.1725
17.0976
17.023
16.949
16.8755
16.8028
16.7308
16.6597
16.5894
16.52
18.0988
18.0215
17.9454
17.87
17.7953
17.7207
17.6463
17.5718
17.4972
17.4224
17.3474
17.2724
17.1974
17.1225
17.0479
16.9738
16.9002
16.8273
16.7551
16.6839
16.6135
16.544
18.1122
18.0375
17.9639
17.8911
17.8188
17.7467
17.6744
17.6018
17.5287
17.4551
17.3811
17.3067
17.2321
17.1575
17.0831
17.0089
16.9353
16.8623
16.79
16.7186
16.6482
16.5787
18.13
18.0587
17.9887
17.9197
17.8511
17.7824
17.7132
17.6434
17.5727
17.501
17.4285
17.3553
17.2815
17.2074
17.1332
17.0592
16.9856
16.9126
16.8404
16.769
16.6985
16.6291
18.1536
18.0872
18.0225
17.9589
17.8957
17.8322
17.7679
17.7023
17.6352
17.5666
17.4965
17.4251
17.3526
17.2794
17.2058
17.1322
17.0588
16.9859
16.9137
16.8424
16.7721
16.7028
18.1852
18.1259
18.069
18.0137
17.9587
17.9032
17.8462
17.7872
17.7258
17.6619
17.5955
17.527
17.4567
17.385
17.3123
17.2393
17.1662
17.0935
17.0215
16.9503
16.8802
16.8112
18.2277
18.179
18.134
18.0912
18.0491
18.0062
17.9609
17.9123
17.8598
17.8033
17.7429
17.6788
17.6118
17.5422
17.471
17.3987
17.3261
17.2537
17.1818
17.1108
17.041
16.9723
18.2854
18.2526
18.2256
18.2027
18.1813
18.1588
18.1327
18.1013
18.0635
18.0191
17.9682
17.9113
17.8491
17.7828
17.7134
17.6421
17.5698
17.4975
17.4257
17.3548
17.2852
17.2172
18.3639
18.3553
18.3575
18.3678
18.3819
18.3949
18.4022
18.4005
18.3881
18.3643
18.3292
18.2836
18.2288
18.1667
18.0993
18.0285
17.956
17.8831
17.8108
17.7397
17.6704
17.6032
18.4716
18.5023
18.5541
18.6235
18.703
18.7825
18.8522
18.9052
18.9379
18.9493
18.9401
18.9116
18.8665
18.8086
18.7418
18.6697
18.5954
18.5208
18.4474
18.3763
18.308
18.2432
18.6217
18.7177
18.8576
19.0388
19.2468
19.4587
19.6516
19.809
19.924
19.995
20.0254
20.02
19.9845
19.9284
19.864
19.7938
19.7202
19.6449
19.5696
19.4992
19.4349
19.3774
21.9423
21.8731
21.8006
21.729
21.6611
21.6017
21.5574
21.5294
26.1102
26.0423
25.9792
25.9269
25.8921
25.9085
25.9752
26.0949
18.3949
18.3245
18.2809
18.2812
18.5728
18.4852
18.4072
18.3482
18.3235
18.3545
18.4643
18.5749
18.4903
18.4177
18.3683
18.3602
18.4184
18.5701
18.5765
18.4937
18.4242
18.3805
18.3821
18.4564
18.6329
18.9279
18.5765
18.4937
18.4243
18.3805
18.3821
18.4564
18.6329
18.9277
18.8518
18.7578
18.6651
18.5749
18.4904
18.4178
18.3685
18.3604
18.4188
18.5705
18.8301
18.9475
18.8522
18.7579
18.6645
18.5729
18.4854
18.4073
18.3485
18.3239
18.3551
18.4653
18.6666
18.9483
18.8529
18.7582
18.6641
18.5707
18.4797
18.3951
18.3248
18.2813
18.282
18.3467
18.4872
18.9495
18.8542
18.7594
18.6646
18.5698
18.4756
18.3849
18.3037
18.2426
18.2162
18.2417
18.3332
18.9513
18.8563
18.7617
18.6669
18.5712
18.4749
18.3797
18.2902
18.2155
18.1689
18.1673
18.2268
18.3554
19.0493
18.9537
18.8594
18.7655
18.6713
18.576
18.4792
18.382
18.288
18.2052
18.1471
18.1314
18.1776
18.3005
19.1484
19.0517
18.9569
18.8636
18.771
18.6785
18.585
18.4899
18.3938
18.3
18.2162
18.1566
18.1417
18.196
18.3415
19.1506
19.0546
18.9608
18.8689
18.7784
18.6885
18.5985
18.5078
18.417
18.3293
18.2532
18.2052
18.2117
18.307
18.5255
19.153
19.0578
18.9652
18.8752
18.7874
18.7014
18.6168
18.5336
18.4529
18.379
18.3229
18.3073
18.3746
18.5859
19.0054
19.6644
20.5342
21.7038
23.3874
19.1556
19.0612
18.9701
18.8822
18.7977
18.7167
18.6395
18.5672
18.5025
18.4524
18.4347
18.4915
18.7143
19.283
20.3364
20.6553
21.7957
23.6097
26.2137
19.1581
19.0647
18.975
18.8894
18.8086
18.7335
18.6654
18.6071
18.5643
18.5504
18.5995
18.798
19.395
20.8855
21.384
24.3846
30.6117
42.3076
57.7391
73.5751
19.1606
19.068
18.9797
18.8964
18.8194
18.7503
18.692
18.6496
18.6336
18.668
18.8125
19.2336
20.5248
23.8607
26.2385
41.3772
65.7356
205.091
511.903
879.463
19.1628
19.0709
18.9837
18.9024
18.8287
18.7651
18.716
18.6891
18.7002
18.7845
19.0277
19.6881
21.3953
22.7596
32.5202
85.8592
235.19
1035.62
19.1646
19.0732
18.9868
18.907
18.8357
18.7762
18.7339
18.7187
18.7499
18.8687
19.1716
19.9234
21.7269
23.2577
34.1141
60.4342
327.453
19.166
19.0747
18.9888
18.9096
18.8395
18.7821
18.7432
18.7333
18.7723
18.8998
19.2029
19.8896
21.5449
25.2845
29.3703
56.5151
135.184
769.938
799.952
531.61
19.1669
19.0755
18.9895
18.9102
18.84
18.7825
18.7433
18.7321
18.7663
18.8787
19.1345
19.6724
20.827
23.2429
28.025
34.1685
66.515
147.586
272.819
355.564
370.932
343.105
310.269
254.722
230.009
174.59
168.566
165.327
163.926
162.922
161.731
160.152
158.093
155.567
152.645
149.418
145.986
142.45
138.901
135.424
132.098
129.03
19.1674
19.0757
18.9891
18.909
18.8377
18.7782
18.7356
18.7178
18.7386
18.8217
19.0102
19.3851
20.1103
21.511
23.9964
27.9692
32.3545
48.5279
68.8747
86.0265
96.0904
98.8158
97.2196
94.1973
77.988
76.411
75.1819
74.3512
74.4738
75.4381
76.9063
78.6767
80.5966
82.5623
84.5062
86.3547
88.0693
89.6548
91.1364
92.5556
93.9038
95.3083
96.8789
19.1676
19.0753
18.9878
18.9064
18.833
18.7704
18.7224
18.6952
18.6988
18.749
18.872
19.1118
19.545
20.3076
21.5805
23.4116
25.5636
28.3324
31.3418
33.9615
35.7693
36.6742
36.8552
36.8526
36.8027
36.713
36.6327
36.5894
36.6038
36.8148
37.2687
37.9258
38.7603
39.7477
40.8705
42.118
43.4885
44.9931
46.6584
48.5261
50.6467
53.0888
55.9134
19.2643
19.1675
19.0744
18.9859
18.9029
18.827
18.7604
18.7063
18.669
18.6553
18.6752
18.744
18.8846
19.1316
19.5371
20.1668
21.0364
22.0423
23.1394
24.2278
25.1685
25.8607
26.2767
26.4491
26.4497
26.4298
26.3797
26.3176
26.2545
26.1981
26.1561
26.1582
26.2143
26.3267
26.497
26.7288
27.0278
27.4032
27.8688
28.4451
29.1609
30.0522
31.1626
32.5469
19.2646
19.1672
19.0734
18.9836
18.8989
18.8203
18.7497
18.6893
18.6424
18.6131
18.6077
18.6348
18.7059
18.8363
19.0448
19.3508
19.7581
20.2331
20.7277
21.1902
21.5774
21.8657
22.0507
22.1418
22.1581
22.1244
22.0784
22.0196
21.9527
21.8831
21.8151
21.7526
21.7053
21.6746
21.6618
21.6688
21.6985
21.755
21.8443
21.9749
22.1586
22.411
22.7501
23.1991
19.2648
19.1669
19.0722
18.9812
18.8947
18.8136
18.7391
18.6729
18.6173
18.575
18.5495
18.5455
18.5687
18.6257
18.7226
18.8637
19.0466
19.2572
19.4726
19.6694
19.8316
19.9501
20.0244
20.0569
20.0531
20.019
19.9634
19.8975
19.8263
19.7519
19.6763
19.6047
19.5388
19.4793
19.4271
19.3828
19.3474
19.3222
19.3093
19.3114
19.3324
19.3773
19.4523
19.565
19.2651
19.1666
19.0711
18.9789
18.8907
18.8072
18.7292
18.658
18.5949
18.5419
18.501
18.4745
18.4651
18.4752
18.5066
18.5592
18.6297
18.7106
18.7917
18.863
18.9177
18.9518
18.9642
18.9556
18.9275
18.8828
18.8252
18.7588
18.6873
18.6135
18.5397
18.4673
18.3973
18.3304
18.267
18.2076
18.1526
18.1026
18.0581
18.0202
17.9902
17.9696
17.9604
17.9648
19.2653
19.1663
19.07
18.9768
18.8871
18.8014
18.7204
18.6448
18.5757
18.5142
18.4614
18.4187
18.387
18.3671
18.3591
18.3618
18.3727
18.3876
18.4015
18.4095
18.4085
18.3967
18.3732
18.3382
18.2925
18.2376
18.1755
18.108
18.0372
17.9648
17.8921
17.8201
17.7495
17.6807
17.614
17.5497
17.488
17.4291
17.3734
17.3212
17.273
17.2294
17.191
17.1584
19.2656
19.1661
19.0692
18.975
18.8839
18.7963
18.7127
18.6336
18.5596
18.4914
18.4297
18.3751
18.328
18.2884
18.2559
18.2294
18.2069
18.1859
18.1638
18.1381
18.107
18.0694
18.0251
17.9741
17.9171
17.8548
17.7882
17.7187
17.6472
17.5748
17.5025
17.4306
17.3598
17.2904
17.2224
17.1562
17.0918
17.0293
16.9689
16.9107
16.8551
16.8021
16.752
16.7052
19.266
19.1661
19.0685
18.9734
18.8812
18.792
18.7062
18.6243
18.5464
18.4731
18.4047
18.3414
18.2834
18.2304
18.182
18.1373
18.0948
18.053
18.0103
17.9653
17.9169
17.8645
17.8079
17.7474
17.6833
17.616
17.5463
17.4749
17.4025
17.3298
17.2572
17.1853
17.1142
17.0444
16.9757
16.9085
16.8427
16.7785
16.7159
16.655
16.5958
16.5386
16.4834
16.4302
19.2664
19.1661
19.0679
18.9722
18.8789
18.7884
18.7009
18.6166
18.5357
18.4585
18.385
18.3155
18.2498
18.1877
18.1286
18.072
18.0169
17.9621
17.9068
17.85
17.7911
17.7297
17.6658
17.5994
17.5308
17.4604
17.3886
17.3158
17.2426
17.1695
17.0967
17.0246
16.9534
16.8832
16.8142
16.7464
16.6799
16.6147
16.5509
16.4886
16.4276
16.3682
16.3103
16.254
19.2669
19.1662
19.0676
18.9712
18.8771
18.7855
18.6965
18.6104
18.5271
18.4468
18.3697
18.2956
18.2244
18.1559
18.0897
18.0252
17.9618
17.8988
17.8355
17.7712
17.7057
17.6387
17.5701
17.5
17.4286
17.3561
17.2828
17.2092
17.1355
17.062
16.989
16.9168
16.8455
16.7751
16.7059
16.6377
16.5708
16.5051
16.4406
16.3774
16.3154
16.2547
16.1953
16.1372
19.2674
19.1664
19.0674
18.9705
18.8757
18.7832
18.6931
18.6054
18.5202
18.4377
18.3577
18.2802
18.2052
18.1322
18.061
17.9913
17.9224
17.8539
17.7853
17.7163
17.6466
17.5759
17.5043
17.4318
17.3586
17.2848
17.2107
17.1365
17.0625
16.9888
16.9158
16.8436
16.7722
16.7017
16.6323
16.564
16.4968
16.4308
16.3658
16.3021
16.2394
16.1779
16.1176
16.0583
19.2679
19.1667
19.0674
18.97
18.8746
18.7814
18.6903
18.6014
18.5148
18.4305
18.3484
18.2684
18.1905
18.1143
18.0397
17.9662
17.8936
17.8215
17.7494
17.6773
17.6047
17.5317
17.4582
17.3842
17.3099
17.2353
17.1607
17.0863
17.0121
16.9385
16.8655
16.7933
16.7219
16.6515
16.5821
16.5137
16.4463
16.38
16.3148
16.2507
16.1876
16.1255
16.0645
16.0044
19.2684
19.167
19.0674
18.9697
18.8738
18.78
18.6881
18.5983
18.5106
18.4249
18.3411
18.2593
18.1793
18.1008
18.0237
17.9476
17.8724
17.7977
17.7233
17.649
17.5746
17.5001
17.4253
17.3504
17.2754
17.2005
17.1256
17.0511
16.977
16.9034
16.8306
16.7585
16.6872
16.6169
16.5475
16.4791
16.4117
16.3452
16.2798
16.2154
16.152
16.0895
16.028
15.9673
19.2689
19.1674
19.0675
18.9695
18.8733
18.7789
18.6865
18.5959
18.5073
18.4205
18.3355
18.2523
18.1707
18.0905
18.0116
17.9337
17.8566
17.7802
17.7041
17.6284
17.5527
17.4771
17.4016
17.3261
17.2507
17.1755
17.1006
17.0261
16.9521
16.8787
16.806
16.7341
16.663
16.5928
16.5235
16.4551
16.3877
16.3213
16.2557
16.1911
16.1275
16.0647
16.0028
15.9416
19.2695
19.1677
19.0677
18.9694
18.8729
18.7781
18.6852
18.5941
18.5047
18.4171
18.3312
18.2469
18.1641
18.0826
18.0024
17.9231
17.8448
17.7671
17.6899
17.6131
17.5366
17.4603
17.3842
17.3084
17.2328
17.1575
17.0826
17.0083
16.9344
16.8612
16.7887
16.717
16.646
16.576
16.5068
16.4385
16.3711
16.3046
16.239
16.1743
16.1105
16.0474
15.9852
15.9237
19.2699
19.1681
19.0679
18.9695
18.8727
18.7776
18.6843
18.5927
18.5028
18.4145
18.3279
18.2427
18.159
18.0767
17.9954
17.9152
17.8359
17.7573
17.6792
17.6017
17.5246
17.4478
17.3714
17.2954
17.2197
17.1444
17.0696
16.9953
16.9217
16.8487
16.7764
16.7048
16.6341
16.5642
16.4951
16.4269
16.3596
16.2931
16.2274
16.1626
16.0987
16.0355
15.973
15.9112
19.2704
19.1685
19.0682
18.9696
18.8726
18.7773
18.6836
18.5917
18.5013
18.4126
18.3254
18.2396
18.1553
18.0722
17.9902
17.9093
17.8292
17.7499
17.6713
17.5933
17.5157
17.4387
17.362
17.2858
17.2101
17.1349
17.0602
16.986
16.9125
16.8397
16.7676
16.6962
16.6256
16.5559
16.4869
16.4188
16.3515
16.285
16.2194
16.1545
16.0905
16.0271
15.9644
15.9025
19.2709
19.1689
19.0685
18.9697
18.8726
18.7771
18.6832
18.5909
18.5003
18.4112
18.3235
18.2373
18.1525
18.0688
17.9863
17.9049
17.8243
17.7446
17.6655
17.5871
17.5093
17.432
17.3552
17.2789
17.2032
17.128
17.0533
16.9793
16.906
16.8333
16.7613
16.6901
16.6197
16.5501
16.4812
16.4132
16.346
16.2795
16.2139
16.149
16.0848
16.0213
15.9585
15.8964
19.2712
19.1692
19.0687
18.9698
18.8726
18.7769
18.6829
18.5904
18.4995
18.4101
18.3222
18.2356
18.1504
18.0664
17.9835
17.9017
17.8207
17.7406
17.6613
17.5826
17.5046
17.4271
17.3502
17.2739
17.1982
17.123
17.0485
16.9746
16.9013
16.8288
16.757
16.6859
16.6156
16.546
16.4773
16.4093
16.3421
16.2757
16.21
16.1451
16.0809
16.0173
15.9544
15.8921
19.2715
19.1694
19.0689
18.9699
18.8726
18.7769
18.6827
18.5901
18.499
18.4094
18.3213
18.2345
18.149
18.0647
17.9816
17.8995
17.8183
17.7379
17.6584
17.5795
17.5014
17.4238
17.3469
17.2705
17.1948
17.1197
17.0452
16.9714
16.8982
16.8258
16.754
16.6831
16.6128
16.5434
16.4747
16.4068
16.3396
16.2732
16.2075
16.1426
16.0783
16.0147
15.9517
15.8893
19.2716
19.1695
19.069
18.97
18.8726
18.7768
18.6825
18.5898
18.4986
18.4089
18.3206
18.2337
18.148
18.0636
17.9803
17.898
17.8166
17.7361
17.6564
17.5775
17.4992
17.4216
17.3446
17.2683
17.1925
17.1174
17.043
16.9692
16.8961
16.8238
16.7521
16.6812
16.611
16.5416
16.473
16.4051
16.338
16.2716
16.2059
16.1409
16.0766
16.013
15.95
15.8875
19.2718
19.1697
19.0691
18.9701
18.8727
18.7769
18.6826
18.5898
18.4986
18.4088
18.3204
18.2334
18.1477
18.0632
17.9798
17.8974
17.816
17.7354
17.6557
17.5766
17.4983
17.4207
17.3437
17.2673
17.1916
17.1165
17.042
16.9683
16.8952
16.8229
16.7513
16.6804
16.6102
16.5409
16.4722
16.4044
16.3372
16.2709
16.2052
16.1402
16.0759
16.0123
15.9492
15.8867
18.0611
17.9776
17.8951
17.8136
17.733
17.6531
17.574
17.4956
17.4179
17.3409
17.2644
17.1887
17.1135
17.0391
16.9653
16.8922
16.8199
16.7482
16.6773
16.6071
16.5377
16.4691
18.0615
17.978
17.8956
17.8142
17.7336
17.6538
17.5748
17.4964
17.4188
17.3417
17.2653
17.1895
17.1144
17.0399
16.9661
16.893
16.8206
16.7489
16.678
16.6078
16.5384
16.4697
18.0625
17.9793
17.897
17.8157
17.7353
17.6557
17.5767
17.4985
17.4209
17.3438
17.2675
17.1917
17.1165
17.042
16.9681
16.895
16.8225
16.7507
16.6797
16.6095
16.54
16.4713
18.064
17.981
17.8991
17.818
17.7378
17.6583
17.5796
17.5015
17.4239
17.347
17.2706
17.1948
17.1196
17.045
16.9711
16.8978
16.8253
16.7534
16.6823
16.612
16.5424
16.4736
18.0662
17.9835
17.9019
17.8212
17.7414
17.6622
17.5837
17.5058
17.4284
17.3515
17.2752
17.1994
17.1241
17.0495
16.9754
16.902
16.8293
16.7574
16.6861
16.6157
16.546
16.4771
18.0691
17.987
17.9059
17.8257
17.7463
17.6675
17.5894
17.5117
17.4346
17.3578
17.2816
17.2058
17.1305
17.0558
16.9816
16.908
16.8352
16.763
16.6917
16.621
16.5512
16.4823
18.0732
17.9918
17.9114
17.8319
17.7531
17.675
17.5973
17.5201
17.4432
17.3667
17.2906
17.2148
17.1395
17.0647
16.9904
16.9167
16.8436
16.7713
16.6997
16.629
16.559
16.4899
18.0789
17.9984
17.919
17.8404
17.7625
17.6852
17.6082
17.5316
17.4552
17.379
17.3031
17.2275
17.1521
17.0772
17.0028
16.9289
16.8557
16.7832
16.7114
16.6405
16.5704
16.5012
18.0865
18.0073
17.9292
17.852
17.7753
17.6991
17.6231
17.5473
17.4716