/*--------------------------------*- C++ -*----------------------------------*\
  =========                 |
  \\      /  F ield         | OpenFOAM: The Open Source CFD Toolbox
   \\    /   O peration     | Website:  https://openfoam.org
    \\  /    A nd           | Version:  13
     \\/     M anipulation  |
\*---------------------------------------------------------------------------*/
FoamFile
{
    format      ascii;
    class       volScalarField;
    location    "400";
    object      k;
}
// * * * * * * * * * * * * * * * * * * * * * * * * * * * * * * * * * * * * * //

dimensions      [0 2 -2 0 0 0 0];

internalField   nonuniform List<scalar> 
172836
(
0.209472
0.208691
0.207913
0.207138
0.206367
0.205599
0.204835
0.204074
0.209629
0.208848
0.20807
0.207296
0.206526
0.20576
0.204997
0.204237
0.21074
0.209954
0.209172
0.208394
0.207619
0.206848
0.206081
0.205317
0.204557
0.21131
0.210523
0.209739
0.20896
0.208184
0.207411
0.206643
0.205879
0.205118
0.21216
0.211371
0.210585
0.209802
0.209024
0.208249
0.207479
0.206712
0.205949
0.213303
0.212509
0.211718
0.210932
0.210149
0.209371
0.208597
0.207827
0.20706
0.214709
0.213909
0.213113
0.212321
0.211534
0.210751
0.209972
0.209197
0.208426
0.21631
0.215505
0.214703
0.213906
0.213113
0.212325
0.211541
0.210762
0.209986
0.2172
0.216394
0.215592
0.214794
0.214002
0.213214
0.21243
0.211651
0.211652
0.210861
0.210075
0.209292
0.208512
0.207736
0.206964
0.206195
0.20543
0.204668
0.20391
0.203157
0.202417
0.211801
0.21101
0.210224
0.209442
0.208663
0.207888
0.207116
0.206348
0.205584
0.204824
0.204067
0.203315
0.202579
0.21212
0.211329
0.210542
0.209759
0.208979
0.208203
0.20743
0.206662
0.205897
0.205136
0.204379
0.203626
0.202888
0.212681
0.211888
0.211099
0.210314
0.209533
0.208756
0.207982
0.207213
0.206447
0.205685
0.204927
0.204173
0.203435
0.21352
0.212725
0.211933
0.211146
0.210362
0.209582
0.208807
0.208035
0.207267
0.206503
0.205743
0.204987
0.204247
0.214651
0.213851
0.213055
0.212263
0.211475
0.210692
0.209912
0.209137
0.208366
0.207598
0.206835
0.206077
0.205334
0.216042
0.215236
0.214435
0.213638
0.212845
0.212057
0.211273
0.210493
0.209717
0.208946
0.208178
0.207416
0.20667
0.217623
0.216811
0.216004
0.215201
0.214403
0.21361
0.212821
0.212036
0.211256
0.21048
0.209709
0.208943
0.208194
0.219293
0.218476
0.217664
0.216857
0.216054
0.215256
0.214463
0.213674
0.21289
0.21211
0.211336
0.210567
0.209815
0.211449
0.27456
0.27335
0.272147
0.270951
0.269763
0.268584
0.267412
0.266249
0.265095
0.263949
0.262812
0.261684
0.260564
0.259452
0.258349
0.257254
0.256166
0.255087
0.254014
0.252948
0.25189
0.250837
0.249791
0.248751
0.247717
0.246688
0.245665
0.244648
0.243636
0.242631
0.24163
0.240636
0.239648
0.238666
0.23769
0.236721
0.235759
0.234803
0.233853
0.232911
0.231976
0.231048
0.230127
0.229213
0.228306
0.227406
0.226513
0.225627
0.224748
0.223876
0.22301
0.22215
0.221297
0.22045
0.219608
0.218773
0.217942
0.217117
0.216298
0.215483
0.214672
0.213866
0.213063
0.212265
0.211471
0.210682
0.209896
0.209115
0.208337
0.207563
0.206793
0.206026
0.205263
0.204503
0.203747
0.202996
0.202258
0.274682
0.273474
0.272272
0.271078
0.269891
0.268713
0.267542
0.26638
0.265227
0.264082
0.262946
0.261818
0.260699
0.259588
0.258485
0.257391
0.256304
0.255225
0.254153
0.253089
0.252031
0.250979
0.249934
0.248895
0.247862
0.246834
0.245812
0.244796
0.243785
0.24278
0.24178
0.240786
0.239798
0.238817
0.237841
0.236872
0.235909
0.234953
0.234003
0.233061
0.232125
0.231197
0.230275
0.229361
0.228454
0.227554
0.22666
0.225774
0.224895
0.224022
0.223156
0.222296
0.221442
0.220595
0.219753
0.218917
0.218087
0.217262
0.216442
0.215627
0.214816
0.214009
0.213207
0.212408
0.211615
0.210826
0.210041
0.20926
0.208483
0.207709
0.20694
0.206174
0.205412
0.204653
0.203898
0.203148
0.202414
0.274962
0.273758
0.27256
0.271368
0.270185
0.269009
0.267841
0.266681
0.265529
0.264386
0.263252
0.262125
0.261008
0.259898
0.258797
0.257704
0.256618
0.25554
0.25447
0.253407
0.25235
0.2513
0.250257
0.249219
0.248187
0.24716
0.246139
0.245124
0.244114
0.243109
0.24211
0.241117
0.24013
0.239148
0.238173
0.237203
0.236241
0.235284
0.234335
0.233392
0.232456
0.231527
0.230605
0.22969
0.228782
0.227881
0.226988
0.2261
0.22522
0.224347
0.22348
0.222619
0.221765
0.220916
0.220073
0.219237
0.218405
0.217579
0.216758
0.215942
0.21513
0.214323
0.213519
0.21272
0.211926
0.211136
0.21035
0.209568
0.20879
0.208016
0.207246
0.206479
0.205716
0.204957
0.204202
0.203451
0.202715
0.275483
0.274284
0.273091
0.271905
0.270726
0.269553
0.268389
0.267232
0.266083
0.264943
0.26381
0.262686
0.26157
0.260462
0.259362
0.25827
0.257186
0.256109
0.25504
0.253977
0.252922
0.251873
0.25083
0.249793
0.248762
0.247736
0.246715
0.245701
0.244691
0.243687
0.242689
0.241696
0.240709
0.239727
0.238752
0.237783
0.23682
0.235864
0.234914
0.233971
0.233035
0.232105
0.231182
0.230267
0.229358
0.228456
0.227561
0.226673
0.225792
0.224917
0.224049
0.223187
0.222331
0.221481
0.220637
0.219798
0.218965
0.218138
0.217315
0.216497
0.215684
0.214874
0.214069
0.213269
0.212473
0.211681
0.210894
0.210111
0.209332
0.208556
0.207785
0.207017
0.206254
0.205494
0.204737
0.203986
0.20325
0.276328
0.275136
0.27395
0.272769
0.271595
0.270427
0.269266
0.268113
0.266966
0.265828
0.264697
0.263574
0.262459
0.261351
0.260252
0.25916
0.258076
0.256999
0.25593
0.254867
0.253812
0.252762
0.251719
0.250682
0.24965
0.248624
0.247604
0.246588
0.245579
0.244574
0.243575
0.242582
0.241594
0.240612
0.239636
0.238667
0.237703
0.236746
0.235795
0.234851
0.233914
0.232983
0.232059
0.231142
0.230231
0.229328
0.228431
0.227541
0.226658
0.225781
0.22491
0.224045
0.223187
0.222334
0.221488
0.220646
0.219811
0.21898
0.218154
0.217334
0.216517
0.215705
0.214897
0.214094
0.213295
0.212501
0.211711
0.210925
0.210144
0.209366
0.208592
0.207823
0.207057
0.206295
0.205537
0.204784
0.204046
0.27752
0.276336
0.275157
0.273982
0.272813
0.271649
0.270492
0.269341
0.268197
0.26706
0.26593
0.264807
0.263692
0.262585
0.261485
0.260392
0.259307
0.258229
0.257158
0.256095
0.255038
0.253987
0.252942
0.251903
0.25087
0.249843
0.248821
0.247804
0.246793
0.245787
0.244787
0.243792
0.242804
0.24182
0.240843
0.239872
0.238907
0.237948
0.236996
0.23605
0.235111
0.234178
0.233252
0.232333
0.23142
0.230514
0.229614
0.228721
0.227834
0.226954
0.22608
0.225211
0.224349
0.223493
0.222642
0.221796
0.220956
0.220121
0.219291
0.218465
0.217644
0.216828
0.216015
0.215207
0.214404
0.213606
0.212812
0.212022
0.211237
0.210455
0.209678
0.208905
0.208136
0.207371
0.20661
0.205854
0.205114
0.278988
0.277813
0.276641
0.275473
0.27431
0.273151
0.271998
0.27085
0.269708
0.268573
0.267444
0.266322
0.265207
0.264099
0.262998
0.261904
0.260818
0.259738
0.258666
0.2576
0.256541
0.255489
0.254442
0.253401
0.252366
0.251337
0.250313
0.249295
0.248282
0.247275
0.246273
0.245277
0.244286
0.243302
0.242323
0.24135
0.240384
0.239423
0.238469
0.237522
0.23658
0.235645
0.234717
0.233795
0.232879
0.23197
0.231067
0.230171
0.22928
0.228396
0.227518
0.226645
0.225778
0.224917
0.224061
0.22321
0.222365
0.221525
0.220689
0.219858
0.219032
0.218209
0.217392
0.216578
0.21577
0.214966
0.214167
0.213372
0.212582
0.211796
0.211014
0.210236
0.209463
0.208694
0.207929
0.20717
0.206426
0.280581
0.279417
0.278254
0.277095
0.275939
0.274787
0.273639
0.272497
0.271359
0.270227
0.2691
0.26798
0.266866
0.265759
0.264658
0.263564
0.262477
0.261397
0.260324
0.259258
0.258198
0.257144
0.256096
0.255055
0.254019
0.252989
0.251964
0.250945
0.249932
0.248924
0.247922
0.246925
0.245935
0.24495
0.243971
0.242998
0.242031
0.24107
0.240115
0.239167
0.238225
0.237289
0.236359
0.235436
0.234518
0.233607
0.232702
0.231803
0.230909
0.230022
0.22914
0.228263
0.227392
0.226526
0.225666
0.22481
0.22396
0.223114
0.222273
0.221436
0.220604
0.219776
0.218952
0.218133
0.217319
0.21651
0.215705
0.214905
0.214109
0.213318
0.212531
0.211749
0.210972
0.210198
0.20943
0.208667
0.20792
0.282163
0.281012
0.279862
0.278714
0.277568
0.276425
0.275285
0.274149
0.273017
0.271889
0.270767
0.26965
0.268538
0.267433
0.266334
0.265241
0.264155
0.263076
0.262003
0.260937
0.259878
0.258824
0.257777
0.256736
0.2557
0.254671
0.253647
0.252628
0.251616
0.250609
0.249608
0.248612
0.247623
0.246639
0.245662
0.24469
0.243724
0.242765
0.241811
0.240864
0.239922
0.238987
0.238057
0.237134
0.236216
0.235305
0.234398
0.233498
0.232603
0.231714
0.230829
0.22995
0.229076
0.228207
0.227343
0.226483
0.225629
0.224778
0.223933
0.223091
0.222254
0.221421
0.220593
0.219768
0.218949
0.218135
0.217325
0.21652
0.21572
0.214925
0.214134
0.213348
0.212567
0.21179
0.211019
0.210253
0.209504
0.283698
0.282564
0.281428
0.280293
0.279158
0.278025
0.276894
0.275765
0.27464
0.273517
0.272399
0.271285
0.270177
0.269074
0.267976
0.266885
0.2658
0.264721
0.263649
0.262584
0.261524
0.260472
0.259425
0.258384
0.25735
0.256321
0.255299
0.254282
0.253271
0.252266
0.251267
0.250274
0.249287
0.248306
0.247331
0.246362
0.245399
0.244442
0.243491
0.242546
0.241606
0.240673
0.239745
0.238823
0.237906
0.236995
0.236089
0.235189
0.234293
0.233402
0.232516
0.231635
0.230759
0.229887
0.229019
0.228156
0.227298
0.226443
0.225593
0.224747
0.223906
0.223068
0.222234
0.221406
0.220581
0.219762
0.218947
0.218138
0.217333
0.216534
0.21574
0.21495
0.214166
0.213387
0.212613
0.211845
0.211095
0.285238
0.284122
0.283003
0.281882
0.280761
0.279639
0.278517
0.277396
0.276276
0.275159
0.274044
0.272933
0.271826
0.270724
0.269627
0.268535
0.26745
0.26637
0.265297
0.264231
0.263171
0.262118
0.26107
0.26003
0.258995
0.257967
0.256945
0.255929
0.254919
0.253916
0.252918
0.251927
0.250943
0.249964
0.248992
0.248025
0.247065
0.246111
0.245163
0.24422
0.243283
0.242352
0.241426
0.240505
0.239589
0.238678
0.237773
0.236871
0.235975
0.235083
0.234195
0.233311
0.232432
0.231556
0.230685
0.229818
0.228955
0.228095
0.22724
0.226389
0.225542
0.224699
0.22386
0.223025
0.222196
0.221371
0.220553
0.219738
0.218929
0.218125
0.217326
0.216533
0.215746
0.214964
0.214187
0.213417
0.212666
0.286872
0.285777
0.284677
0.283573
0.282465
0.281355
0.280243
0.279129
0.278015
0.276901
0.275788
0.274678
0.27357
0.272467
0.271367
0.270273
0.269185
0.268102
0.267026
0.265956
0.264893
0.263837
0.262787
0.261744
0.260708
0.259679
0.258656
0.25764
0.256631
0.255628
0.254632
0.253643
0.252661
0.251685
0.250715
0.249752
0.248794
0.247843
0.246898
0.245958
0.245023
0.244093
0.243169
0.242249
0.241334
0.240423
0.239516
0.238613
0.237714
0.236819
0.235928
0.23504
0.234155
0.233275
0.232397
0.231523
0.230653
0.229786
0.228923
0.228064
0.227209
0.226357
0.22551
0.224669
0.223831
0.223
0.222172
0.221352
0.220537
0.219727
0.218924
0.218126
0.217334
0.216549
0.215769
0.214996
0.214244
0.288701
0.287632
0.286555
0.28547
0.284379
0.283282
0.28218
0.281073
0.279964
0.278852
0.277739
0.276628
0.275517
0.27441
0.273305
0.272205
0.27111
0.270021
0.268938
0.267862
0.266793
0.26573
0.264675
0.263627
0.262587
0.261554
0.260528
0.25951
0.2585
0.257497
0.256502
0.255513
0.254532
0.253558
0.252591
0.25163
0.250675
0.249726
0.248783
0.247845
0.246912
0.245984
0.24506
0.24414
0.243223
0.242311
0.241401
0.240495
0.239592
0.238692
0.237794
0.236899
0.236007
0.235117
0.23423
0.233346
0.232466
0.231588
0.230714
0.229843
0.228976
0.228113
0.227256
0.226402
0.225554
0.224712
0.223876
0.223046
0.222222
0.221405
0.220594
0.21979
0.218993
0.218203
0.217418
0.216642
0.215888
0.29084
0.289802
0.288752
0.28769
0.286618
0.285535
0.284444
0.283344
0.282238
0.281126
0.280012
0.278895
0.277779
0.276663
0.275549
0.274439
0.273334
0.272234
0.27114
0.270052
0.268973
0.2679
0.266836
0.26578
0.264733
0.263694
0.262664
0.261642
0.26063
0.259626
0.25863
0.257642
0.256663
0.255691
0.254726
0.253768
0.252816
0.251871
0.25093
0.249994
0.249063
0.248136
0.247212
0.246291
0.245373
0.244457
0.243543
0.242631
0.241721
0.240813
0.239905
0.238999
0.238094
0.237191
0.23629
0.23539
0.234494
0.233599
0.232708
0.231821
0.230937
0.230058
0.229182
0.228314
0.22745
0.226593
0.225743
0.2249
0.224065
0.223237
0.222417
0.221604
0.220799
0.220002
0.219212
0.218432
0.217674
0.29341
0.292412
0.291395
0.290361
0.289311
0.288246
0.287166
0.286074
0.284971
0.283857
0.282738
0.281613
0.280486
0.279358
0.27823
0.277104
0.275982
0.274865
0.273755
0.272651
0.271556
0.270469
0.269391
0.268323
0.267264
0.266216
0.265178
0.264151
0.263134
0.262127
0.26113
0.260143
0.259164
0.258194
0.257232
0.256277
0.255329
0.254386
0.253449
0.252516
0.251586
0.250659
0.249734
0.248811
0.24789
0.246969
0.246049
0.245129
0.244208
0.243287
0.242365
0.241442
0.240519
0.239597
0.238675
0.237754
0.236834
0.235917
0.235003
0.234092
0.233185
0.232282
0.231385
0.230493
0.229609
0.228732
0.227864
0.227004
0.226152
0.22531
0.224477
0.223653
0.222838
0.222032
0.221235
0.220449
0.219686
0.296558
0.295609
0.294634
0.293634
0.292611
0.291565
0.290498
0.289412
0.288308
0.287189
0.28606
0.284922
0.283778
0.28263
0.281481
0.280332
0.279185
0.278044
0.276909
0.275781
0.274663
0.273555
0.272457
0.271371
0.270298
0.269237
0.268189
0.267153
0.26613
0.26512
0.264122
0.263135
0.262159
0.261192
0.260235
0.259285
0.258342
0.257405
0.256472
0.255542
0.254615
0.253689
0.252764
0.251839
0.250913
0.249986
0.249056
0.248123
0.247186
0.246247
0.245304
0.244357
0.243409
0.242459
0.241507
0.240555
0.239604
0.238654
0.237707
0.236763
0.235823
0.234889
0.23396
0.233039
0.232126
0.231222
0.230327
0.229444
0.228572
0.227711
0.226861
0.226022
0.225194
0.224377
0.223571
0.222777
0.222009
0.300449
0.29956
0.298636
0.297677
0.296684
0.295661
0.294607
0.293526
0.292418
0.291289
0.290144
0.288986
0.287816
0.286639
0.285458
0.284275
0.283094
0.281917
0.280747
0.279586
0.278435
0.277296
0.276171
0.27506
0.273965
0.272885
0.271822
0.270775
0.269743
0.268728
0.267727
0.266741
0.265767
0.264805
0.263853
0.26291
0.261974
0.261044
0.260117
0.259193
0.25827
0.257346
0.256421
0.255493
0.254562
0.253624
0.25268
0.251729
0.250771
0.249805
0.248832
0.247854
0.24687
0.245881
0.244889
0.243895
0.242901
0.241907
0.240916
0.239928
0.238944
0.237967
0.236998
0.236036
0.235086
0.234146
0.23322
0.232306
0.231406
0.23052
0.229648
0.22879
0.227946
0.227115
0.226297
0.225494
0.224719
0.305255
0.304438
0.303573
0.302661
0.301703
0.300702
0.299659
0.298577
0.297459
0.296311
0.295141
0.29395
0.292743
0.291523
0.290296
0.289064
0.287833
0.286606
0.285387
0.284178
0.282981
0.2818
0.280636
0.279491
0.278365
0.27726
0.276177
0.275114
0.274072
0.27305
0.272047
0.271062
0.270094
0.269139
0.268197
0.267264
0.26634
0.26542
0.264504
0.263589
0.262673
0.261753
0.260829
0.259898
0.258958
0.258006
0.257043
0.256067
0.255078
0.254077
0.253064
0.252041
0.251008
0.249968
0.248921
0.247871
0.246818
0.245765
0.244714
0.243668
0.242627
0.241593
0.240568
0.239556
0.238556
0.23757
0.2366
0.235647
0.234712
0.233795
0.232895
0.232012
0.231147
0.230299
0.229467
0.228653
0.22787
0.3111
0.310363
0.309563
0.308701
0.30778
0.3068
0.305765
0.304677
0.303541
0.302367
0.301159
0.299922
0.298661
0.297382
0.296091
0.294793
0.293493
0.292198
0.290911
0.289636
0.288377
0.287138
0.285921
0.284729
0.283562
0.282422
0.28131
0.280225
0.279168
0.278136
0.27713
0.276146
0.275183
0.274237
0.273307
0.272389
0.271479
0.270575
0.269673
0.26877
0.267863
0.266949
0.266027
0.26509
0.264138
0.263168
0.262178
0.261169
0.260141
0.259094
0.258029
0.256948
0.255853
0.254746
0.253629
0.252506
0.251379
0.250251
0.249125
0.248004
0.24689
0.245785
0.244693
0.243614
0.242553
0.24151
0.240488
0.239486
0.238506
0.237549
0.236615
0.235703
0.234812
0.233943
0.233095
0.232268
0.231475
0.317975
0.317326
0.316596
0.315787
0.314901
0.313941
0.312908
0.311807
0.310644
0.309431
0.308173
0.306874
0.305542
0.304185
0.30281
0.301424
0.300035
0.29865
0.297274
0.295914
0.294575
0.29326
0.291974
0.290719
0.289498
0.288312
0.287162
0.286048
0.28497
0.283925
0.282913
0.28193
0.280973
0.280039
0.279124
0.278224
0.277333
0.276449
0.275565
0.274679
0.273784
0.27288
0.271958
0.271015
0.270047
0.269054
0.268032
0.266983
0.265906
0.264803
0.263674
0.262522
0.26135
0.260161
0.258959
0.257747
0.25653
0.25531
0.254093
0.252881
0.251678
0.250488
0.249313
0.248157
0.247021
0.24591
0.244823
0.243764
0.242733
0.241731
0.240757
0.239811
0.238892
0.238001
0.237136
0.236298
0.235496
0.325709
0.325147
0.324491
0.323736
0.322885
0.321941
0.320907
0.319788
0.318593
0.317334
0.316014
0.314641
0.313223
0.31177
0.310293
0.308799
0.3073
0.305804
0.304319
0.302853
0.301411
0.300001
0.298626
0.297291
0.295998
0.29475
0.293548
0.292392
0.29128
0.290212
0.289185
0.288196
0.287241
0.286314
0.285411
0.284527
0.283656
0.28279
0.281926
0.281057
0.280177
0.279281
0.27836
0.27741
0.276427
0.27541
0.274355
0.273263
0.272135
0.27097
0.269772
0.268543
0.267287
0.266009
0.264712
0.263402
0.262084
0.260763
0.259445
0.258133
0.256833
0.255548
0.254283
0.253041
0.251827
0.250642
0.24949
0.248371
0.247288
0.246241
0.245231
0.244257
0.243319
0.242415
0.241546
0.240713
0.239921
0.333558
0.332962
0.332249
0.33142
0.330479
0.32943
0.328281
0.32704
0.325721
0.324324
0.32286
0.321339
0.319773
0.318174
0.316554
0.314925
0.313299
0.311684
0.31009
0.308527
0.307
0.305516
0.304081
0.302698
0.30137
0.300098
0.298882
0.297723
0.296618
0.295565
0.294559
0.293596
0.292671
0.291776
0.290907
0.290055
0.289214
0.288375
0.287533
0.28668
0.285805
0.284902
0.283964
0.282986
0.281964
0.280895
0.279778
0.278612
0.277399
0.276141
0.274841
0.273505
0.272138
0.270746
0.269336
0.267914
0.266488
0.265065
0.26365
0.262251
0.260872
0.259519
0.258198
0.256912
0.255666
0.254463
0.253306
0.252196
0.251136
0.250127
0.249168
0.248259
0.247402
0.246595
0.245841
0.245141
0.342191
0.341587
0.340855
0.33999
0.339004
0.337901
0.336691
0.335386
0.333983
0.33249
0.330919
0.329283
0.327593
0.325864
0.32411
0.322344
0.320579
0.318826
0.317097
0.315402
0.313748
0.312145
0.310597
0.309111
0.307691
0.306338
0.305054
0.303839
0.302692
0.301612
0.300594
0.299635
0.298729
0.297872
0.297055
0.296272
0.295516
0.294778
0.294055
0.293331
0.292593
0.29183
0.291028
0.290177
0.289266
0.288289
0.287239
0.286113
0.284912
0.283638
0.282296
0.280893
0.279439
0.277944
0.276419
0.274875
0.273326
0.271781
0.270252
0.268749
0.26728
0.265854
0.264479
0.263163
0.261912
0.260731
0.259624
0.258596
0.257654
0.256799
0.256035
0.255363
0.254786
0.254306
0.253927
0.253636
0.349569
0.348646
0.347609
0.34646
0.345214
0.343878
0.342454
0.340937
0.339334
0.337658
0.335918
0.334128
0.332301
0.330449
0.328586
0.326726
0.32488
0.323059
0.321277
0.319543
0.317866
0.316257
0.314723
0.31327
0.311907
0.310636
0.309464
0.308394
0.307429
0.306571
0.30582
0.305177
0.304642
0.304212
0.303889
0.303665
0.303541
0.303509
0.303533
0.303576
0.303598
0.303557
0.303416
0.303141
0.302705
0.30209
0.301285
0.300289
0.29911
0.297762
0.296266
0.294648
0.292934
0.291153
0.289335
0.287511
0.285707
0.283949
0.28226
0.280662
0.279172
0.277809
0.276588
0.275527
0.274637
0.273927
0.27341
0.273114
0.273036
0.273181
0.273559
0.27418
0.275057
0.276202
0.277552
0.354185
0.35274
0.351237
0.349697
0.348125
0.346517
0.344867
0.343179
0.341457
0.339707
0.337933
0.336143
0.334346
0.332549
0.330766
0.329007
0.327287
0.32562
0.324025
0.322519
0.321121
0.319854
0.318738
0.317797
0.317056
0.31654
0.316277
0.316294
0.316618
0.317275
0.318294
0.319696
0.321509
0.323744
0.326378
0.329515
0.332999
0.336674
0.340376
0.343935
0.347195
0.350021
0.352304
0.353972
0.354987
0.355344
0.355068
0.35421
0.352842
0.351046
0.348915
0.346544
0.344029
0.341461
0.338925
0.336502
0.334266
0.332279
0.330608
0.32931
0.328427
0.32801
0.328119
0.328785
0.330029
0.331902
0.33451
0.337829
0.341857
0.34661
0.352108
0.358372
0.365418
0.372974
0.35549
0.353182
0.350942
0.348816
0.346812
0.344923
0.343138
0.341447
0.339834
0.33829
0.336808
0.335384
0.334024
0.33274
0.331554
0.330495
0.329606
0.32894
0.328561
0.328545
0.328982
0.329969
0.331618
0.334049
0.337386
0.341755
0.347285
0.354088
0.362281
0.371933
0.383075
0.395792
0.409925
0.425633
0.442546
0.459974
0.477234
0.493703
0.508854
0.522279
0.533697
0.542959
0.55003
0.554981
0.557965
0.559195
0.558928
0.557445
0.555035
0.551992
0.548598
0.545118
0.5418
0.538871
0.53654
0.534997
0.534403
0.534944
0.536745
0.539903
0.544551
0.550783
0.558613
0.568044
0.57942
0.592566
0.607339
0.623647
0.641434
0.660639
0.681194
0.702975
0.724958
0.361878
0.357964
0.354232
0.350867
0.347946
0.345452
0.343351
0.341616
0.340219
0.339135
0.338356
0.337891
0.337779
0.338093
0.338948
0.34051
0.342997
0.346685
0.351909
0.359057
0.368559
0.380865
0.396425
0.415656
0.438899
0.466407
0.498281
0.534471
0.574811
0.618836
0.666219
0.716087
0.767444
0.820473
0.872594
0.922004
0.967336
1.00766
1.04245
1.07155
1.09507
1.11337
1.12694
1.1364
1.14242
1.14568
1.14686
1.14661
1.14554
1.14419
1.1431
1.14269
1.14334
1.14539
1.14907
1.15466
1.16214
1.17217
1.18441
1.19889
1.21553
1.23402
1.25444
1.27722
1.30122
1.32608
1.35164
1.37789
1.40473
1.43217
1.46006
1.48813
1.51478
0.400882
0.393395
0.385338
0.378526
0.372751
0.36802
0.364336
0.361705
0.360156
0.359762
0.360669
0.363131
0.367545
0.374481
0.384708
0.399196
0.419093
0.445662
0.480178
0.523795
0.577404
0.6415
0.716101
0.800687
0.894222
0.995262
1.10198
1.2125
1.32459
1.4362
1.54566
1.65054
1.75097
1.8436
1.92646
1.99858
2.05979
2.11047
2.15144
2.18374
2.20853
2.22703
2.2404
2.24975
2.25611
2.26041
2.26344
2.26582
2.26821
2.27089
2.27457
2.27924
2.28497
2.29182
2.29981
2.30893
2.31895
2.32984
2.34146
2.35325
2.36535
2.37837
2.391
2.40235
2.41292
2.42299
2.43266
2.44201
2.45118
2.46029
2.46955
2.47902
2.48838
0.544442
0.526966
0.510893
0.497341
0.486383
0.478283
0.473491
0.472703
0.476895
0.487414
0.506021
0.534888
0.576501
0.633434
0.708027
0.802008
0.916147
1.05003
1.202
1.36932
1.54839
1.73517
1.92545
2.11522
2.30076
2.47899
2.64732
2.80361
2.94711
3.07584
3.19049
3.29064
3.37424
3.44241
3.49666
3.5387
3.57027
3.59308
3.60869
3.61854
3.62384
3.62567
3.62492
3.6223
3.6184
3.6136
3.6082
3.60239
3.59633
3.59003
3.58347
3.57647
3.56916
3.56131
3.55279
3.54358
3.53326
3.5221
3.51056
3.49788
3.48352
3.46829
3.45258
3.43658
3.42049
3.40445
3.38863
3.37319
3.3584
3.3445
3.33172
3.32185
1.12148
1.09907
1.07054
1.04245
1.01792
1.00257
1.00308
1.02368
1.06861
1.14148
1.24489
1.37997
1.54602
1.74052
1.95921
2.19654
2.44623
2.70186
2.95725
3.20692
3.44615
3.67124
3.87932
4.06851
4.23775
4.38632
4.51491
4.62306
4.71205
4.78443
4.83777
4.87502
4.89883
4.91159
4.91533
4.91186
4.90269
4.88907
4.87204
4.85247
4.83099
4.80812
4.78422
4.75955
4.73424
4.70833
4.68207
4.65525
4.62783
4.59974
4.5709
4.54126
4.51083
4.47931
4.44689
4.41406
4.38024
4.34525
4.3097
4.27401
4.2383
4.20268
4.16746
4.13268
4.09819
4.06434
4.03136
3.99949
3.96909
3.94073
3.91798
3.13272
3.01508
2.87357
2.73519
2.61407
2.53147
2.50367
2.53981
2.63524
2.78398
2.97802
3.20709
3.46309
3.73435
4.01144
4.2859
4.55053
4.79957
5.02865
5.23482
5.41626
5.57223
5.70293
5.80883
5.89156
5.95206
5.99209
6.0155
6.02064
6.01142
5.99102
5.96202
5.92652
5.88624
5.84258
5.79665
5.74935
5.70136
5.65326
5.60539
5.55801
5.51126
5.46516
5.41968
5.37475
5.33024
5.286
5.24187
5.1977
5.15339
5.10875
5.0636
5.01836
4.97284
4.92664
4.8802
4.83394
4.78753
4.74131
4.6955
4.65028
4.60575
4.562
4.51903
4.4769
4.43573
4.39577
4.35725
4.32102
4.2916
5.00502
4.72994
4.49867
4.31856
4.19686
4.15108
4.1957
4.31464
4.49535
4.71911
4.97032
5.23484
5.50015
5.756
5.99437
6.20944
6.39736
6.556
6.68461
6.78363
6.85439
6.89853
6.91864
6.91684
6.89571
6.85925
6.8077
6.74527
6.67527
6.6003
6.52239
6.4432
6.36398
6.28574
6.20922
6.13497
6.06335
5.99456
5.92866
5.86561
5.80523
5.74727
5.69146
5.63744
5.58489
5.53354
5.48304
5.43312
5.38349
5.33406
5.28487
5.23568
5.18644
5.13738
5.08864
5.04033
4.99246
4.94509
4.89825
4.85201
4.80634
4.76128
4.7168
4.67292
4.62967
4.5872
4.54591
4.50685
4.47445
5.89786
5.69707
5.55003
5.46868
5.43964
5.48523
5.60854
5.79015
6.01249
6.25497
6.50209
6.74081
6.96081
7.1546
7.31729
7.44626
7.54077
7.60155
7.63043
7.63004
7.6033
7.55385
7.48471
7.39951
7.30189
7.19427
7.08059
6.964
6.84699
6.73141
6.61871
6.50998
6.40599
6.30727
6.21412
6.12664
6.04477
5.96827
5.89684
5.83003
5.7673
5.70814
5.65197
5.59822
5.54651
5.49623
5.44707
5.39882
5.35103
5.3038
5.25717
5.21104
5.16538
5.12016
5.07539
5.031
4.98705
4.94348
4.90029
4.85746
4.81493
4.77268
4.73064
4.68877
4.64704
4.60557
4.56478
4.526
4.49293
6.27703
6.30106
6.36871
6.47209
6.63005
6.82912
7.04951
7.2753
7.49202
7.68824
7.85548
7.98821
8.08346
8.14057
8.16053
8.14579
8.09955
8.02574
7.92837
7.81193
7.68007
7.53714
7.38636
7.23165
7.07632
6.92319
6.77425
6.63117
6.49499
6.36657
6.24631
6.13448
6.03104
5.9358
5.84837
5.76824
5.6948
5.62733
5.56514
5.50735
5.45336
5.40235
5.35379
5.30709
5.26196
5.21801
5.17508
5.13323
5.09229
5.05197
5.01227
4.973
4.9342
4.89569
4.85755
4.81962
4.78195
4.74445
4.70707
4.66976
4.63238
4.59494
4.55724
4.5193
4.48111
4.44323
4.40706
4.37504
7.01327
7.18966
7.3823
7.59126
7.81581
8.00897
8.17728
8.3131
8.41144
8.46972
8.48735
8.46609
8.40846
8.31873
8.20097
8.06036
7.90125
7.72888
7.54687
7.36013
7.17101
6.98414
6.80182
6.62661
6.45953
6.30212
6.15469
6.01798
5.89179
5.77624
5.6708
5.57512
5.48845
5.41008
5.33918
5.27482
5.21624
5.16238
5.11264
5.06609
5.02224
4.9806
4.94103
4.90275
4.86602
4.83045
4.79602
4.76217
4.7291
4.69635
4.66417
4.63215
4.60053
4.56894
4.5376
4.50634
4.47511
4.44387
4.41239
4.38083
4.34885
4.31657
4.28367
4.25039
4.2171
4.18537
4.15581
7.55943
7.78072
7.98763
8.19105
0.274324
0.273115
0.271914
0.270719
0.269533
0.268354
0.267184
0.266022
0.264869
0.263725
0.262589
0.261462
0.260343
0.259233
0.258131
0.257036
0.25595
0.254871
0.2538
0.252735
0.251677
0.250626
0.249581
0.248542
0.247509
0.246482
0.24546
0.244444
0.243434
0.242429
0.241431
0.240438
0.239451
0.23847
0.237496
0.236528
0.235567
0.234612
0.233664
0.232723
0.231789
0.230862
0.229941
0.229028
0.228122
0.227223
0.226331
0.225445
0.224566
0.223694
0.222829
0.22197
0.221117
0.22027
0.219428
0.218593
0.217763
0.216939
0.216119
0.215304
0.214494
0.213689
0.212887
0.21209
0.211297
0.210508
0.209724
0.208943
0.208167
0.207394
0.206625
0.20586
0.205098
0.20434
0.203586
0.202836
0.2021
0.274441
0.273234
0.272033
0.27084
0.269655
0.268478
0.267308
0.266148
0.264995
0.263851
0.262716
0.26159
0.260471
0.259362
0.25826
0.257166
0.256081
0.255003
0.253932
0.252869
0.251812
0.250762
0.249718
0.24868
0.247648
0.246621
0.245601
0.244586
0.243576
0.242572
0.241574
0.240582
0.239596
0.238615
0.237641
0.236673
0.235712
0.234757
0.233809
0.232868
0.231933
0.231006
0.230085
0.229172
0.228265
0.227366
0.226473
0.225588
0.224709
0.223836
0.22297
0.222111
0.221258
0.22041
0.219569
0.218733
0.217903
0.217078
0.216259
0.215444
0.214634
0.213828
0.213027
0.212229
0.211436
0.210648
0.209864
0.209084
0.208308
0.207536
0.206768
0.206003
0.205242
0.204485
0.203732
0.202983
0.202251
0.274708
0.273505
0.272307
0.271117
0.269935
0.26876
0.267593
0.266434
0.265284
0.264142
0.263008
0.261883
0.260767
0.259658
0.258558
0.257466
0.256381
0.255305
0.254235
0.253173
0.252118
0.251069
0.250027
0.24899
0.247959
0.246934
0.245915
0.244901
0.243892
0.242889
0.241892
0.240901
0.239915
0.238935
0.237961
0.236994
0.236033
0.235078
0.23413
0.233188
0.232254
0.231326
0.230405
0.229491
0.228584
0.227684
0.226791
0.225904
0.225024
0.224151
0.223285
0.222424
0.22157
0.220722
0.21988
0.219044
0.218213
0.217387
0.216566
0.215751
0.21494
0.214133
0.213331
0.212532
0.211739
0.21095
0.210165
0.209384
0.208608
0.207835
0.207066
0.2063
0.205539
0.204781
0.204027
0.203278
0.202544
0.275208
0.27401
0.272818
0.271633
0.270455
0.269284
0.26812
0.266965
0.265817
0.264677
0.263546
0.262423
0.261308
0.260201
0.259102
0.258011
0.256928
0.255852
0.254784
0.253723
0.252669
0.251621
0.250579
0.249544
0.248514
0.24749
0.246471
0.245458
0.244451
0.243448
0.242452
0.241461
0.240476
0.239496
0.238523
0.237555
0.236594
0.23564
0.234692
0.23375
0.232815
0.231887
0.230966
0.230051
0.229143
0.228243
0.227349
0.226461
0.22558
0.224706
0.223838
0.222977
0.222121
0.221272
0.220428
0.219591
0.218758
0.217931
0.217109
0.216292
0.215479
0.214671
0.213867
0.213067
0.212272
0.211482
0.210696
0.209914
0.209136
0.208362
0.207592
0.206826
0.206064
0.205305
0.20455
0.203801
0.203066
0.276025
0.274834
0.273648
0.272468
0.271295
0.270128
0.268968
0.267815
0.26667
0.265533
0.264403
0.263281
0.262167
0.261061
0.259962
0.258872
0.257789
0.256714
0.255646
0.254585
0.25353
0.252482
0.251441
0.250405
0.249376
0.248351
0.247333
0.24632
0.245312
0.24431
0.243313
0.242322
0.241337
0.240357
0.239383
0.238416
0.237454
0.236499
0.23555
0.234608
0.233672
0.232743
0.231821
0.230905
0.229996
0.229094
0.228198
0.227309
0.226426
0.22555
0.22468
0.223816
0.222959
0.222107
0.221261
0.22042
0.219585
0.218755
0.21793
0.21711
0.216295
0.215484
0.214677
0.213875
0.213077
0.212284
0.211496
0.210711
0.209931
0.209155
0.208383
0.207614
0.20685
0.20609
0.205334
0.204582
0.203846
0.277182
0.275999
0.274819
0.273645
0.272477
0.271314
0.270158
0.269008
0.267865
0.266729
0.2656
0.264478
0.263364
0.262258
0.261159
0.260068
0.258984
0.257908
0.256839
0.255777
0.254721
0.253672
0.25263
0.251593
0.250562
0.249537
0.248517
0.247503
0.246495
0.245491
0.244494
0.243502
0.242516
0.241535
0.24056
0.239592
0.238629
0.237673
0.236723
0.235779
0.234842
0.233911
0.232987
0.232069
0.231158
0.230253
0.229355
0.228463
0.227577
0.226698
0.225825
0.224958
0.224096
0.223241
0.22239
0.221546
0.220707
0.219872
0.219043
0.218219
0.217399
0.216584
0.215773
0.214967
0.214165
0.213368
0.212575
0.211787
0.211003
0.210223
0.209448
0.208676
0.207909
0.207145
0.206386
0.205633
0.204894
0.27861
0.277434
0.276263
0.275095
0.273932
0.272774
0.271621
0.270474
0.269333
0.268199
0.267071
0.26595
0.264836
0.263729
0.26263
0.261537
0.260452
0.259375
0.258304
0.25724
0.256184
0.255133
0.254089
0.253051
0.252018
0.250992
0.249971
0.248955
0.247946
0.246941
0.245943
0.24495
0.243962
0.242981
0.242005
0.241036
0.240072
0.239115
0.238163
0.237218
0.236279
0.235347
0.23442
0.2335
0.232587
0.231679
0.230778
0.229883
0.228994
0.228111
0.227234
0.226363
0.225497
0.224637
0.223782
0.222933
0.222089
0.221249
0.220415
0.219585
0.21876
0.217939
0.217123
0.216312
0.215505
0.214703
0.213905
0.213112
0.212323
0.211539
0.210759
0.209983
0.209211
0.208444
0.207682
0.206925
0.206183
0.280156
0.278991