/*--------------------------------*- C++ -*----------------------------------*\
  =========                 |
  \\      /  F ield         | OpenFOAM: The Open Source CFD Toolbox
   \\    /   O peration     | Website:  https://openfoam.org
    \\  /    A nd           | Version:  13
     \\/     M anipulation  |
\*---------------------------------------------------------------------------*/
FoamFile
{
    format      ascii;
    class       volScalarField;
    location    "400";
    object      nut;
}
// * * * * * * * * * * * * * * * * * * * * * * * * * * * * * * * * * * * * * //

dimensions      [0 2 -1 0 0 0 0];

internalField   nonuniform List<scalar> 
172836
(
0.0176277
0.0176171
0.0176064
0.0175957
0.0175849
0.0175742
0.0175635
0.0175527
0.0176431
0.0176325
0.0176219
0.0176112
0.0176006
0.01759
0.0175793
0.0175687
0.0176896
0.017679
0.0176685
0.017658
0.0176474
0.0176368
0.0176263
0.0176157
0.0176052
0.0177556
0.0177451
0.0177346
0.0177241
0.0177136
0.0177031
0.0176926
0.0176821
0.0176716
0.0178616
0.017851
0.0178404
0.0178298
0.0178192
0.0178087
0.0177981
0.0177876
0.0177771
0.0180143
0.0180034
0.0179925
0.0179816
0.0179708
0.0179601
0.0179494
0.0179387
0.0179281
0.0182152
0.0182038
0.0181925
0.0181813
0.0181701
0.018159
0.018148
0.0181371
0.0181262
0.0184605
0.0184487
0.018437
0.0184254
0.0184139
0.0184025
0.0183912
0.01838
0.0183689
0.0187197
0.0187079
0.0186963
0.0186848
0.0186734
0.0186621
0.0186509
0.0186398
0.0176523
0.0176417
0.0176311
0.0176205
0.0176099
0.0175992
0.0175886
0.0175779
0.0175673
0.0175566
0.0175459
0.0175353
0.0175251
0.0176671
0.0176566
0.0176461
0.0176355
0.017625
0.0176144
0.0176038
0.0175933
0.0175827
0.0175721
0.0175615
0.017551
0.017541
0.0177023
0.0176918
0.0176813
0.0176708
0.0176604
0.0176499
0.0176394
0.0176289
0.0176184
0.0176079
0.0175974
0.0175869
0.017577
0.0177674
0.0177569
0.0177465
0.017736
0.0177256
0.0177151
0.0177047
0.0176943
0.0176839
0.0176734
0.017663
0.0176527
0.0176428
0.0178726
0.017862
0.0178515
0.0178409
0.0178304
0.0178199
0.0178094
0.0177989
0.0177885
0.017778
0.0177676
0.0177573
0.0177475
0.018025
0.0180141
0.0180032
0.0179923
0.0179815
0.0179708
0.0179601
0.0179494
0.0179388
0.0179282
0.0179176
0.0179072
0.0178973
0.018226
0.0182145
0.0182032
0.0181919
0.0181807
0.0181696
0.0181585
0.0181475
0.0181366
0.0181257
0.018115
0.0181043
0.0180942
0.0184712
0.0184593
0.0184475
0.0184358
0.0184242
0.0184127
0.0184013
0.01839
0.0183788
0.0183677
0.0183567
0.0183458
0.0183356
0.0187407
0.0187288
0.0187169
0.0187052
0.0186935
0.018682
0.0186706
0.0186593
0.0186481
0.018637
0.0186261
0.0186153
0.0186052
0.0188726
0.0184027
0.0183899
0.018377
0.0183642
0.0183514
0.0183385
0.0183257
0.0183129
0.0183002
0.0182875
0.0182749
0.0182623
0.0182498
0.0182373
0.0182248
0.0182124
0.0182001
0.0181878
0.0181755
0.0181633
0.018151
0.0181388
0.0181266
0.0181143
0.0181021
0.0180899
0.0180776
0.0180654
0.0180532
0.0180409
0.0180287
0.0180165
0.0180043
0.0179921
0.0179799
0.0179678
0.0179558
0.0179438
0.0179318
0.01792
0.0179081
0.0178964
0.0178848
0.0178732
0.0178617
0.0178503
0.017839
0.0178278
0.0178166
0.0178055
0.0177945
0.0177836
0.0177727
0.0177619
0.0177511
0.0177404
0.0177297
0.0177191
0.0177085
0.0176979
0.0176873
0.0176768
0.0176662
0.0176556
0.017645
0.0176344
0.0176239
0.0176133
0.0176027
0.0175922
0.0175816
0.017571
0.0175604
0.0175497
0.0175391
0.0175286
0.0175184
0.0184115
0.0183989
0.0183862
0.0183736
0.0183609
0.0183482
0.0183355
0.0183229
0.0183102
0.0182977
0.0182852
0.0182727
0.0182603
0.0182479
0.0182356
0.0182233
0.0182111
0.0181989
0.0181867
0.0181746
0.0181625
0.0181503
0.0181382
0.0181261
0.018114
0.0181019
0.0180898
0.0180777
0.0180655
0.0180534
0.0180412
0.0180291
0.018017
0.0180049
0.0179929
0.0179808
0.0179688
0.0179569
0.017945
0.0179332
0.0179215
0.0179098
0.0178982
0.0178867
0.0178753
0.017864
0.0178527
0.0178415
0.0178304
0.0178194
0.0178084
0.0177975
0.0177867
0.017776
0.0177652
0.0177546
0.0177439
0.0177334
0.0177228
0.0177122
0.0177017
0.0176912
0.0176806
0.0176701
0.0176595
0.017649
0.0176385
0.017628
0.0176175
0.017607
0.0175965
0.0175859
0.0175754
0.0175649
0.0175544
0.0175439
0.0175339
0.0184358
0.0184235
0.0184112
0.0183989
0.0183865
0.0183741
0.0183617
0.0183494
0.018337
0.0183247
0.0183124
0.0183001
0.0182879
0.0182758
0.0182637
0.0182516
0.0182396
0.0182276
0.0182156
0.0182037
0.0181918
0.0181799
0.018168
0.0181561
0.0181442
0.0181323
0.0181204
0.0181084
0.0180965
0.0180845
0.0180726
0.0180606
0.0180487
0.0180367
0.0180248
0.018013
0.0180011
0.0179893
0.0179776
0.0179659
0.0179543
0.0179427
0.0179312
0.0179198
0.0179085
0.0178972
0.017886
0.0178749
0.0178639
0.017853
0.0178421
0.0178313
0.0178205
0.0178098
0.0177991
0.0177885
0.017778
0.0177674
0.0177569
0.0177464
0.0177359
0.0177255
0.017715
0.0177045
0.017694
0.0176836
0.0176731
0.0176627
0.0176523
0.0176418
0.0176314
0.0176209
0.0176105
0.0176001
0.0175896
0.0175792
0.0175693
0.0184895
0.0184778
0.0184661
0.0184542
0.0184423
0.0184304
0.0184184
0.0184064
0.0183943
0.0183823
0.0183703
0.0183583
0.0183464
0.0183345
0.0183226
0.0183107
0.018299
0.0182872
0.0182755
0.0182638
0.0182521
0.0182404
0.0182287
0.018217
0.0182053
0.0181936
0.0181819
0.0181701
0.0181584
0.0181466
0.0181348
0.0181231
0.0181113
0.0180995
0.0180878
0.018076
0.0180643
0.0180527
0.018041
0.0180295
0.0180179
0.0180065
0.0179951
0.0179837
0.0179725
0.0179613
0.0179501
0.0179391
0.0179281
0.0179171
0.0179063
0.0178955
0.0178847
0.017874
0.0178633
0.0178527
0.0178422
0.0178316
0.0178211
0.0178106
0.0178001
0.0177896
0.0177791
0.0177687
0.0177582
0.0177478
0.0177374
0.017727
0.0177166
0.0177062
0.0176958
0.0176854
0.0176751
0.0176647
0.0176544
0.0176441
0.0176343
0.0185907
0.0185797
0.0185685
0.0185572
0.0185458
0.0185342
0.0185226
0.0185109
0.0184991
0.0184873
0.0184755
0.0184637
0.0184519
0.0184401
0.0184283
0.0184166
0.0184049
0.0183932
0.0183816
0.0183699
0.0183583
0.0183467
0.0183351
0.0183235
0.0183119
0.0183002
0.0182886
0.0182769
0.0182653
0.0182536
0.0182419
0.0182302
0.0182184
0.0182067
0.018195
0.0181834
0.0181717
0.0181601
0.0181484
0.0181369
0.0181253
0.0181139
0.0181024
0.018091
0.0180797
0.0180684
0.0180572
0.018046
0.0180349
0.0180238
0.0180128
0.0180018
0.0179909
0.01798
0.0179692
0.0179584
0.0179477
0.0179369
0.0179262
0.0179156
0.0179049
0.0178942
0.0178836
0.017873
0.0178624
0.0178519
0.0178413
0.0178308
0.0178203
0.0178099
0.0177994
0.017789
0.0177786
0.0177683
0.0177579
0.0177477
0.0177379
0.0187519
0.0187414
0.0187308
0.0187198
0.0187087
0.0186975
0.018686
0.0186744
0.0186627
0.018651
0.0186391
0.0186272
0.0186153
0.0186034
0.0185915
0.0185796
0.0185677
0.0185559
0.0185441
0.0185323
0.0185205
0.0185087
0.018497
0.0184852
0.0184735
0.0184617
0.0184499
0.0184382
0.0184264
0.0184146
0.0184028
0.018391
0.0183791
0.0183673
0.0183555
0.0183437
0.0183319
0.0183202
0.0183084
0.0182967
0.018285
0.0182733
0.0182616
0.01825
0.0182384
0.0182269
0.0182153
0.0182039
0.0181924
0.018181
0.0181696
0.0181583
0.018147
0.0181357
0.0181245
0.0181133
0.0181021
0.018091
0.0180799
0.0180688
0.0180577
0.0180467
0.0180356
0.0180247
0.0180137
0.0180029
0.017992
0.0179812
0.0179705
0.0179598
0.0179491
0.0179385
0.0179279
0.0179174
0.0179069
0.0178966
0.0178867
0.0189699
0.0189599
0.0189495
0.0189389
0.018928
0.0189168
0.0189055
0.0188939
0.0188822
0.0188703
0.0188583
0.0188462
0.018834
0.0188219
0.0188097
0.0187975
0.0187853
0.0187732
0.0187611
0.0187489
0.0187369
0.0187248
0.0187127
0.0187007
0.0186887
0.0186766
0.0186646
0.0186526
0.0186406
0.0186286
0.0186166
0.0186046
0.0185926
0.0185806
0.0185686
0.0185566
0.0185446
0.0185326
0.0185206
0.0185086
0.0184967
0.0184847
0.0184728
0.0184608
0.0184489
0.018437
0.0184251
0.0184131
0.0184013
0.0183894
0.0183775
0.0183657
0.0183538
0.018342
0.0183302
0.0183184
0.0183067
0.018295
0.0182833
0.0182716
0.01826
0.0182484
0.0182368
0.0182253
0.0182138
0.0182025
0.0181912
0.0181799
0.0181687
0.0181577
0.0181466
0.0181357
0.0181248
0.0181141
0.0181033
0.0180928
0.0180828
0.0192184
0.0192091
0.0191994
0.0191893
0.0191789
0.0191682
0.0191573
0.0191461
0.0191346
0.019123
0.0191112
0.0190993
0.0190873
0.0190752
0.0190631
0.0190509
0.0190388
0.0190266
0.0190144
0.0190023
0.0189901
0.018978
0.0189659
0.0189538
0.0189418
0.0189297
0.0189177
0.0189057
0.0188937
0.0188817
0.0188697
0.0188577
0.0188458
0.0188338
0.0188218
0.0188099
0.0187979
0.0187859
0.0187739
0.0187619
0.0187499
0.0187379
0.0187258
0.0187137
0.0187016
0.0186895
0.0186774
0.0186652
0.018653
0.0186408
0.0186286
0.0186163
0.0186041
0.0185918
0.0185796
0.0185673
0.0185551
0.0185428
0.0185306
0.0185184
0.0185063
0.0184942
0.0184821
0.0184701
0.0184581
0.0184463
0.0184345
0.0184229
0.0184113
0.0183998
0.0183885
0.0183772
0.0183661
0.018355
0.0183441
0.0183333
0.0183232
0.0194547
0.0194466
0.0194381
0.0194292
0.0194199
0.0194103
0.0194003
0.0193901
0.0193796
0.0193689
0.019358
0.019347
0.0193358
0.0193245
0.0193131
0.0193016
0.0192901
0.0192786
0.019267
0.0192555
0.019244
0.0192324
0.0192209
0.0192094
0.019198
0.0191865
0.0191751
0.0191636
0.0191522
0.0191408
0.0191294
0.0191181
0.0191067
0.0190953
0.0190839
0.0190725
0.0190611
0.0190496
0.0190382
0.0190267
0.0190151
0.0190035
0.0189919
0.0189802
0.0189685
0.0189567
0.0189449
0.018933
0.018921
0.018909
0.0188969
0.0188848
0.0188726
0.0188604
0.0188482
0.018836
0.0188237
0.0188114
0.0187992
0.0187869
0.0187747
0.0187625
0.0187503
0.0187382
0.0187261
0.0187142
0.0187024
0.0186907
0.018679
0.0186675
0.0186562
0.0186449
0.0186338
0.0186228
0.0186119
0.0186012
0.0185912
0.0196536
0.0196471
0.0196401
0.0196326
0.0196248
0.0196166
0.019608
0.0195991
0.0195899
0.0195805
0.0195709
0.019561
0.019551
0.0195409
0.0195306
0.0195203
0.0195099
0.0194994
0.019489
0.0194785
0.0194681
0.0194576
0.0194471
0.0194367
0.0194263
0.0194159
0.0194055
0.0193951
0.0193847
0.0193744
0.019364
0.0193537
0.0193433
0.019333
0.0193226
0.0193122
0.0193018
0.0192913
0.0192809
0.0192703
0.0192597
0.019249
0.0192383
0.0192275
0.0192166
0.0192056
0.0191946
0.0191834
0.0191722
0.0191609
0.0191495
0.019138
0.0191265
0.0191149
0.0191032
0.0190915
0.0190798
0.019068
0.0190562
0.0190444
0.0190326
0.0190208
0.0190091
0.0189974
0.0189858
0.0189743
0.0189628
0.0189515
0.0189403
0.0189293
0.0189183
0.0189075
0.0188969
0.0188863
0.0188759
0.0188657
0.0188561
0.0198153
0.0198104
0.019805
0.0197991
0.0197928
0.019786
0.0197789
0.0197713
0.0197635
0.0197554
0.019747
0.0197384
0.0197296
0.0197206
0.0197115
0.0197024
0.0196931
0.0196838
0.0196745
0.0196652
0.0196559
0.0196466
0.0196373
0.019628
0.0196187
0.0196095
0.0196002
0.019591
0.0195818
0.0195726
0.0195634
0.0195543
0.0195451
0.0195359
0.0195267
0.0195175
0.0195082
0.0194989
0.0194895
0.0194801
0.0194706
0.019461
0.0194514
0.0194416
0.0194318
0.0194218
0.0194117
0.0194016
0.0193913
0.0193809
0.0193704
0.0193598
0.0193491
0.0193383
0.0193275
0.0193166
0.0193056
0.0192946
0.0192835
0.0192725
0.0192614
0.0192503
0.0192393
0.0192283
0.0192174
0.0192065
0.0191958
0.0191852
0.0191747
0.0191643
0.0191541
0.019144
0.019134
0.0191242
0.0191146
0.0191051
0.0190962
0.0199508
0.0199476
0.0199438
0.0199394
0.0199345
0.0199292
0.0199233
0.0199171
0.0199104
0.0199034
0.0198961
0.0198886
0.0198808
0.0198729
0.0198648
0.0198566
0.0198484
0.0198401
0.0198318
0.0198234
0.0198151
0.0198068
0.0197985
0.0197903
0.0197821
0.0197739
0.0197657
0.0197576
0.0197495
0.0197414
0.0197333
0.0197253
0.0197172
0.0197092
0.0197011
0.019693
0.0196849
0.0196767
0.0196685
0.0196601
0.0196517
0.0196432
0.0196346
0.0196259
0.0196171
0.0196081
0.019599
0.0195897
0.0195804
0.0195709
0.0195612
0.0195515
0.0195416
0.0195316
0.0195216
0.0195114
0.0195011
0.0194908
0.0194805
0.0194701
0.0194597
0.0194493
0.0194389
0.0194287
0.0194184
0.0194083
0.0193982
0.0193884
0.0193786
0.019369
0.0193595
0.0193501
0.019341
0.0193319
0.0193231
0.0193144
0.0193062
0.0200728
0.0200713
0.0200692
0.0200663
0.0200629
0.0200588
0.0200542
0.0200491
0.0200435
0.0200374
0.0200311
0.0200244
0.0200174
0.0200103
0.020003
0.0199955
0.019988
0.0199804
0.0199729
0.0199653
0.0199577
0.0199502
0.0199427
0.0199353
0.0199279
0.0199206
0.0199133
0.0199061
0.0198989
0.0198918
0.0198847
0.0198777
0.0198707
0.0198636
0.0198566
0.0198496
0.0198425
0.0198353
0.0198281
0.0198208
0.0198134
0.0198058
0.0197981
0.0197903
0.0197824
0.0197742
0.0197659
0.0197575
0.0197488
0.0197401
0.0197311
0.019722
0.0197127
0.0197033
0.0196938
0.0196842
0.0196744
0.0196646
0.0196548
0.0196449
0.019635
0.0196251
0.0196152
0.0196054
0.0195957
0.0195861
0.0195767
0.0195673
0.0195582
0.0195492
0.0195403
0.0195317
0.0195232
0.0195149
0.0195067
0.0194988
0.0194913
0.0201925
0.0201929
0.0201925
0.0201912
0.0201892
0.0201865
0.020183
0.0201789
0.0201742
0.020169
0.0201633
0.0201573
0.0201509
0.0201443
0.0201375
0.0201305
0.0201235
0.0201164
0.0201093
0.0201022
0.0200951
0.0200881
0.0200812
0.0200743
0.0200676
0.0200609
0.0200544
0.020048
0.0200416
0.0200353
0.0200292
0.020023
0.0200169
0.0200109
0.0200048
0.0199988
0.0199926
0.0199864
0.0199802
0.0199738
0.0199673
0.0199606
0.0199537
0.0199467
0.0199395
0.019932
0.0199243
0.0199165
0.0199084
0.0199001
0.0198915
0.0198828
0.0198738
0.0198647
0.0198554
0.019846
0.0198364
0.0198268
0.0198171
0.0198074
0.0197977
0.0197879
0.0197782
0.0197687
0.0197592
0.0197499
0.0197407
0.0197317
0.0197229
0.0197143
0.019706
0.0196978
0.0196899
0.0196822
0.0196746
0.0196673
0.0196605
0.0203192
0.0203217
0.0203232
0.0203237
0.0203232
0.0203218
0.0203195
0.0203164
0.0203126
0.020308
0.0203029
0.0202973
0.0202913
0.020285
0.0202784
0.0202717
0.0202648
0.0202579
0.0202509
0.020244
0.0202372
0.0202305
0.0202238
0.0202174
0.0202111
0.0202049
0.0201989
0.0201931
0.0201874
0.0201819
0.0201765
0.0201712
0.020166
0.0201609
0.0201557
0.0201506
0.0201454
0.0201402
0.0201348
0.0201293
0.0201236
0.0201177
0.0201115
0.0201052
0.0200985
0.0200916
0.0200844
0.020077
0.0200692
0.020061
0.0200526
0.0200439
0.0200349
0.0200257
0.0200163
0.0200067
0.019997
0.0199872
0.0199772
0.0199673
0.0199574
0.0199475
0.0199377
0.0199279
0.0199183
0.019909
0.0198999
0.019891
0.0198823
0.0198739
0.0198658
0.019858
0.0198505
0.0198432
0.0198361
0.0198294
0.0198231
0.0204603
0.0204653
0.020469
0.0204714
0.0204726
0.0204726
0.0204715
0.0204693
0.0204662
0.0204621
0.0204574
0.0204521
0.0204462
0.0204399
0.0204333
0.0204264
0.0204194
0.0204123
0.0204052
0.0203982
0.0203913
0.0203846
0.020378
0.0203717
0.0203656
0.0203598
0.0203542
0.0203489
0.0203438
0.020339
0.0203344
0.0203299
0.0203256
0.0203214
0.0203172
0.0203131
0.0203089
0.0203046
0.0203002
0.0202955
0.0202907
0.0202856
0.0202801
0.0202744
0.0202683
0.0202618
0.0202549
0.0202476
0.0202398
0.0202316
0.0202229
0.0202139
0.0202046
0.0201949
0.020185
0.0201748
0.0201644
0.0201539
0.0201434
0.0201328
0.0201222
0.0201117
0.0201012
0.020091
0.020081
0.0200712
0.0200617
0.0200526
0.0200439
0.0200355
0.0200274
0.0200197
0.0200124
0.0200053
0.0199986
0.0199923
0.0199865
0.0206213
0.0206291
0.0206352
0.0206397
0.0206426
0.0206441
0.0206442
0.0206429
0.0206404
0.0206368
0.0206322
0.0206269
0.0206209
0.0206143
0.0206072
0.0205999
0.0205924
0.0205847
0.0205771
0.0205696
0.0205623
0.0205552
0.0205484
0.0205419
0.0205357
0.02053
0.0205246
0.0205197
0.0205151
0.0205108
0.0205069
0.0205032
0.0204998
0.0204965
0.0204933
0.0204902
0.020487
0.0204838
0.0204803
0.0204766
0.0204726
0.0204683
0.0204636
0.0204584
0.0204528
0.0204466
0.0204398
0.0204324
0.0204244
0.0204158
0.0204067
0.020397
0.0203869
0.0203764
0.0203655
0.0203543
0.0203429
0.0203313
0.0203196
0.0203079
0.0202963
0.0202847
0.0202734
0.0202622
0.0202513
0.0202408
0.0202307
0.020221
0.0202118
0.020203
0.0201947
0.0201869
0.0201795
0.0201726
0.0201661
0.02016
0.0201545
0.020804
0.0208146
0.0208232
0.0208299
0.0208346
0.0208375
0.0208386
0.0208381
0.0208359
0.0208324
0.0208278
0.0208221
0.0208156
0.0208082
0.0208003
0.020792
0.0207834
0.0207748
0.0207661
0.0207576
0.0207493
0.0207414
0.0207338
0.0207267
0.0207202
0.0207141
0.0207087
0.0207037
0.0206994
0.0206955
0.0206921
0.0206891
0.0206865
0.0206841
0.0206819
0.0206798
0.0206777
0.0206755
0.020673
0.0206704
0.0206673
0.0206638
0.0206598
0.0206552
0.0206498
0.0206438
0.0206369
0.0206293
0.0206209
0.0206117
0.0206018
0.0205913
0.0205801
0.0205684
0.0205562
0.0205437
0.0205308
0.0205178
0.0205046
0.0204914
0.0204783
0.0204652
0.0204524
0.0204399
0.0204278
0.0204161
0.0204049
0.0203943
0.0203842
0.0203748
0.0203659
0.0203576
0.0203499
0.0203427
0.020336
0.02033
0.0203244
0.0210023
0.0210153
0.0210259
0.0210342
0.0210403
0.0210442
0.021046
0.0210459
0.021044
0.0210404
0.0210354
0.0210289
0.0210214
0.0210128
0.0210035
0.0209936
0.0209834
0.020973
0.0209626
0.0209523
0.0209424
0.0209328
0.0209238
0.0209154
0.0209076
0.0209006
0.0208943
0.0208887
0.0208839
0.0208798
0.0208764
0.0208735
0.0208711
0.0208692
0.0208675
0.0208661
0.0208647
0.0208633
0.0208617
0.0208598
0.0208574
0.0208546
0.0208511
0.0208468
0.0208417
0.0208357
0.0208288
0.020821
0.0208122
0.0208026
0.020792
0.0207807
0.0207686
0.0207558
0.0207425
0.0207286
0.0207144
0.0206999
0.0206852
0.0206704
0.0206556
0.020641
0.0206266
0.0206125
0.0205988
0.0205857
0.0205731
0.0205611
0.0205497
0.0205391
0.0205291
0.0205198
0.0205112
0.0205031
0.0204957
0.020489
0.0204828
0.0211906
0.021204
0.021215
0.0212236
0.02123
0.0212342
0.0212362
0.0212362
0.0212343
0.0212306
0.0212249
0.0212175
0.0212086
0.0211985
0.0211873
0.0211753
0.0211628
0.02115
0.021137
0.0211242
0.0211116
0.0210994
0.0210877
0.0210767
0.0210665
0.0210571
0.0210486
0.021041
0.0210342
0.0210284
0.0210234
0.0210192
0.0210158
0.0210129
0.0210106
0.0210086
0.0210069
0.0210052
0.0210035
0.0210016
0.0209994
0.0209966
0.0209932
0.0209891
0.0209842
0.0209785
0.0209719
0.0209645
0.0209562
0.020947
0.020937
0.020926
0.0209142
0.0209016
0.0208883
0.0208744
0.0208599
0.0208449
0.0208297
0.0208141
0.0207984
0.0207827
0.0207671
0.0207517
0.0207365
0.0207218
0.0207075
0.0206938
0.0206807
0.0206683
0.0206564
0.0206453
0.0206347
0.0206248
0.0206155
0.0206068
0.0205987
0.0213081
0.0213178
0.021326
0.0213324
0.0213371
0.0213404
0.0213423
0.0213426
0.0213413
0.0213379
0.0213322
0.0213244
0.0213146
0.0213033
0.0212904
0.0212764
0.0212614
0.0212456
0.0212294
0.021213
0.0211964
0.0211799
0.0211638
0.021148
0.0211329
0.0211184
0.0211047
0.0210919
0.02108
0.021069
0.021059
0.02105
0.0210419
0.0210346
0.0210282
0.0210224
0.0210173
0.0210126
0.0210083
0.0210042
0.0210001
0.0209958
0.0209915
0.0209872
0.0209829
0.0209785
0.020974
0.0209692
0.0209642
0.0209587
0.0209526
0.0209459
0.0209384
0.0209302
0.020921
0.020911
0.0209001
0.0208884
0.0208758
0.0208626
0.0208486
0.0208341
0.0208192
0.0208039
0.0207885
0.0207729
0.0207573
0.0207419
0.0207266
0.0207115
0.0206967
0.0206822
0.0206681
0.0206543
0.0206408
0.0206278
0.0206153
0.0212394
0.0212381
0.0212373
0.0212373
0.0212381
0.0212396
0.0212415
0.0212428
0.0212416
0.0212379
0.0212317
0.0212233
0.0212125
0.0211996
0.0211848
0.0211681
0.0211499
0.0211301
0.0211091
0.0210871
0.0210641
0.0210405
0.0210165
0.0209922
0.0209678
0.0209436
0.0209197
0.0208962
0.0208734
0.0208514
0.0208303
0.0208103
0.0207915
0.0207738
0.0207575
0.0207424
0.0207286
0.020716
0.0207047
0.0206944
0.0206856
0.0206788
0.0206741
0.0206716
0.0206713
0.020673
0.0206764
0.0206813
0.0206872
0.0206938
0.0207005
0.0207069
0.0207127
0.0207175
0.020721
0.0207229
0.020723
0.0207212
0.0207176
0.0207119
0.0207044
0.020695
0.0206839
0.0206712
0.020657
0.0206415
0.0206248
0.0206071
0.0205884
0.0205689
0.0205486
0.0205277
0.0205062
0.0204842
0.0204619
0.0204398
0.0207557
0.0207323
0.0207171
0.0207083
0.0207062
0.0207101
0.0207185
0.0207276
0.0207347
0.0207395
0.0207417
0.020741
0.0207371
0.0207299
0.0207191
0.0207048
0.0206869
0.0206655
0.0206405
0.0206121
0.0205806
0.020546
0.0205088
0.0204691
0.0204274
0.020384
0.0203392
0.0202935
0.0202474
0.0202012
0.0201555
0.0201106
0.020067
0.0200251
0.0199853
0.0199479
0.0199133
0.0198821
0.0198535
0.0198294
0.0198109
0.0197989
0.019794
0.0197964
0.019806
0.0198226
0.0198454
0.0198737
0.0199064
0.0199425
0.0199807
0.0200199
0.0200589
0.0200967
0.0201324
0.0201652
0.0201943
0.0202193
0.0202398
0.0202555
0.0202663
0.0202721
0.0202731
0.0202694
0.020261
0.0202483
0.0202315
0.0202107
0.020186
0.0201579
0.0201266
0.0200924
0.0200556
0.0200163
0.0199749
0.0199329
0.0194561
0.0194176
0.0194018
0.0194033
0.0194203
0.0194484
0.0194789
0.019509
0.0195379
0.0195642
0.019587
0.0196053
0.019618
0.0196244
0.0196239
0.0196159
0.0196003
0.0195766
0.019545
0.0195055
0.0194583
0.0194038
0.0193424
0.0192748
0.0192016
0.0191236
0.0190415
0.0189563
0.018869
0.0187806
0.0186923
0.0186051
0.0185202
0.018439
0.018362
0.0182913
0.018227
0.0181711
0.018127
0.018097
0.0180826
0.0180845
0.0181028
0.018137
0.018186
0.0182484
0.0183222
0.0184055
0.0184961
0.0185915
0.0186896
0.0187882
0.018885
0.0189783
0.0190663
0.0191475
0.0192209
0.0192853
0.0193401
0.0193847
0.0194189
0.0194426
0.0194558
0.0194589
0.019452
0.0194358
0.0194108
0.0193774
0.0193364
0.0192886
0.0192352
0.019177
0.0191152
0.019051
0.0189875
0.0169789
0.0169648
0.0169903
0.0170427
0.0171139
0.0171883
0.0172658
0.0173442
0.0174211
0.0174939
0.0175601
0.0176177
0.0176646
0.0176991
0.01772
0.0177261
0.0177169
0.0176919
0.0176511
0.0175947
0.0175233
0.0174376
0.0173386
0.0172276
0.0171062
0.016976
0.0168392
0.0166981
0.0165552
0.0164135
0.0162759
0.0161457
0.016026
0.0159208
0.0158342
0.0157669
0.0157254
0.0157116
0.0157257
0.0157667
0.0158324
0.0159203
0.0160274
0.0161506
0.0162869
0.0164335
0.0165875
0.0167465
0.016908
0.0170695
0.017229
0.0173843
0.0175333
0.0176741
0.0178052
0.017925
0.0180324
0.0181265
0.0182067
0.0182731
0.0183258
0.0183657
0.0183942
0.0184128
0.0184231
0.0184278
0.0184308
0.018434
0.0184396
0.0184503
0.0184689
0.0184981
0.0185406
0.0185959
0.0134973
0.0135579
0.0136538
0.0137721
0.0139007
0.0140388
0.0141826
0.0143281
0.0144708
0.0146065
0.0147311
0.0148408
0.0149324
0.0150031
0.015051
0.0150746
0.0150731
0.0150465
0.0149954
0.0149213
0.0148264
0.0147137
0.0145872
0.0144518
0.0143134
0.0141783
0.0140536
0.0139463
0.0138635
0.0138117
0.0137961
0.0138225
0.0138927
0.0140105
0.0141766
0.0143809
0.0146129
0.0148628
0.0151223
0.0153845
0.015644
0.0158972
0.0161415
0.0163755
0.0165987
0.0168111
0.0170131
0.0172053
0.0173883
0.0175632
0.0177308
0.0178919
0.0180478
0.0181993
0.0183482
0.018496
0.0186446
0.0187972
0.0189565
0.0191249
0.0193064
0.0195047
0.0197219
0.0199595
0.0202267
0.020523
0.0208462
0.0211952
0.0215704
0.021972
0.0224002
0.0228541
0.0233128
0.00985923
0.00993313
0.0100419
0.0101735
0.0103272
0.0104996
0.0106861
0.0108814
0.0110799
0.0112757
0.011463
0.0116366
0.011792
0.0119256
0.0120356
0.0121215
0.0121851
0.0122304
0.0122638
0.0122942
0.0123325
0.0123908
0.0124812
0.012615
0.0128011
0.0130458
0.0133518
0.0137187
0.0141449
0.014624
0.0151531
0.0157229
0.016322
0.0169602
0.0176056
0.0182352
0.0188336
0.0193912
0.0199031
0.0203684
0.0207887
0.0211677
0.0215102
0.0218219
0.0221088
0.0223769
0.0226324
0.022881
0.023128
0.0233789
0.0236388
0.0239124
0.024204
0.0245176
0.0248568
0.0252257
0.025625
0.0260641
0.0265394
0.0270529
0.0276047
0.0281909
0.028813
0.0294787
0.0301716
0.0308847
0.031614
0.0323581
0.0331156
0.0338861
0.0346679
0.0354564
0.0362075
0.00730363
0.00734723
0.00741078
0.00750158
0.00762246
0.00777094
0.00794365
0.00813655
0.00834518
0.00856529
0.00879352
0.00902832
0.00927099
0.00952674
0.00980541
0.0101216
0.0104938
0.0109421
0.0114852
0.0121375
0.0129063
0.0137907
0.0147821
0.0158654
0.0170211
0.0182281
0.0194645
0.0207119
0.0219509
0.0231661
0.0243498
0.0254838
0.02658
0.0276136
0.0285639
0.0294222
0.0301887
0.0308694
0.0314741
0.0320145
0.0325031
0.0329526
0.0333748
0.033781
0.0341812
0.0345847
0.0349994
0.0354313
0.0358868
0.036369
0.0368843
0.0374328
0.0380149
0.0386307
0.0392798
0.0399615
0.0406716
0.0414093
0.0421719
0.0429501
0.0437445
0.0445616
0.0453807
0.0461869
0.0469834
0.0477713
0.0485507
0.049322
0.0500864
0.0508462
0.051604
0.0523584
0.0530638
0.00668314
0.0066663
0.00668069
0.00673673
0.00683346
0.00697149
0.00715371
0.00738642
0.00768037
0.00805231
0.00852578
0.00913065
0.00990048
0.0108676
0.0120569
0.0134798
0.0151308
0.0169869
0.0190107
0.0211554
0.0233701
0.0256054
0.0278161
0.0299651
0.0320221
0.0339664
0.0357839
0.0374648
0.0390149
0.0404248
0.041711
0.0428805
0.0439146
0.0448256
0.04563
0.0463464
0.0469932
0.0475881
0.0481474
0.0486853
0.0492139
0.0497433
0.0502819
0.0508357
0.0514096
0.0520058
0.052626
0.0532702
0.0539375
0.054626
0.0553326
0.056053
0.0567854
0.0575241
0.0582657
0.0590076
0.0597405
0.0604669
0.0611913
0.0618971
0.0625719
0.0632256
0.0638624
0.064484
0.0650927
0.0656909
0.0662809
0.0668659
0.0674506
0.0680385
0.0686281
0.0691826
0.00939502
0.00946464
0.00952929
0.0096331
0.00979501
0.0100569
0.0104775
0.0111055
0.0119952
0.0131971
0.0147498
0.0166712
0.0189525
0.0215577
0.0244258
0.0274795
0.0306346
0.0338089
0.0369288
0.0399339
0.042778
0.0454301
0.0478713
0.0500944
0.0521022
0.0538995
0.055506
0.0569273
0.0581847
0.0593146
0.0602913
0.0611457
0.0619052
0.0625937
0.0632316
0.063836
0.0644209
0.0649972
0.0655735
0.0661562
0.0667494
0.0673556
0.0679756
0.0686093
0.0692549
0.0699096
0.0705724
0.0712382
0.0719035
0.0725648
0.0732173
0.0738584
0.0744864
0.0750935
0.0756809
0.0762565
0.0768045
0.0773175
0.0778054
0.0782752
0.0787283
0.0791661
0.0795948
0.0800161
0.0804264
0.0808319
0.0812372
0.0816465
0.0820649
0.082493
0.0829053
0.0209162
0.0209103
0.0207697
0.0206605
0.0206837
0.0209977
0.0217511
0.0230559
0.0249172
0.0273136
0.0301881
0.033447
0.0369926
0.0406953
0.0444388
0.0481191
0.0516509
0.0549707
0.0580362
0.0608252
0.0633307
0.0655582
0.0675244
0.0692461
0.0707524
0.0720617
0.0731978
0.0742125
0.0750775
0.0758327
0.0765092
0.077131
0.0777166
0.07828
0.078832
0.0793801
0.0799298
0.0804844
0.0810461
0.0816151
0.0821909
0.0827718
0.0833552
0.0839384
0.084518
0.0850905
0.0856527
0.0862007
0.086731
0.0872434
0.0877325
0.0881935
0.0886397
0.0890608
0.0894443
0.0898015
0.0901429
0.0904617
0.0907646
0.0910567
0.0913415
0.0916216
0.0918991
0.092175
0.0924508
0.092729
0.0930134
0.093307
0.0936119
0.0939104
0.0356969
0.0347867
0.0341782
0.0339665
0.0342453
0.0351801
0.0369336
0.0394059
0.0424937
0.0460382
0.0498807
0.0538634
0.0578413
0.0616933
0.0653271
0.0686799
0.0717156
0.0744216
0.0768023
0.078875
0.0806666
0.0822039
0.0835226
0.0846496
0.0856112
0.0864612
0.0871769
0.0877995
0.0883589
0.0888766
0.0893683
0.0898453
0.0903153
0.090784
0.0912545
0.0917291
0.0922083
0.092692
0.0931791
0.0936677
0.0941554
0.094639
0.0951156
0.0955817
0.096034
0.0964698
0.096887
0.0972832
0.0976538
0.0980026
0.0983323
0.0986294
0.0988982
0.0991471
0.0993821
0.099606
0.0998204
0.100028
0.100229
0.100427
0.100622
0.100815
0.101005
0.101195
0.101384
0.101575
0.101772
0.10198
0.102182
0.047161
0.0463433
0.0460222
0.0463325
0.0471975
0.0488469
0.0513302
0.0544726
0.0580942
0.0619907
0.065985
0.0699225
0.0736793
0.0771662
0.0803278
0.0831377
0.0855934
0.0877099
0.0895135
0.0910388
0.0923187
0.0933931
0.0942925
0.0950462
0.0956996
0.0962434
0.0967118
0.097131
0.0975193
0.0978891
0.0982492
0.0986057
0.0989626
0.0993224
0.0996867
0.100056
0.10043
0.100808
0.101189
0.101569
0.101947
0.102319
0.102683
0.103033
0.10337
0.10369
0.10399
0.104272
0.104533
0.104773
0.104992
0.105196
0.105389
0.105572
0.105749
0.105918
0.106082
0.106241
0.106396
0.106547
0.106694
0.106836
0.106974
0.107106
0.107232
0.107355
0.107478
0.107609
0.10773
0.0567279
0.0573819
0.0585771
0.0602821
0.0627386
0.0658062
0.0692769
0.0729629
0.0766894
0.0803107
0.0837147
0.0868248
0.0895977
0.0920182
0.0940925
0.095843
0.0973012
0.098505
0.0994907
0.100297
0.100955
0.101493
0.101944
0.102314
0.102624
0.102896
0.103143
0.103375
0.1036
0.103823
0.104047
0.104275
0.104508
0.104749
0.104998
0.105254
0.105516
0.105783
0.106052
0.106319
0.106584
0.106841
0.10709
0.107328
0.107551
0.107761
0.107963
0.108151
0.108332
0.108505
0.108672
0.108835
0.108993
0.109146
0.109296
0.109441
0.109582
0.109718
0.109849
0.109974
0.110091
0.110201
0.110301
0.110391
0.11047
0.110546
0.110626
0.110685
0.0688395
0.0707411
0.0730925
0.0759149
0.079162
0.0824119
0.0856307
0.088704
0.0915457
0.0940998
0.0963368
0.0982538
0.0998622
0.101189
0.102266
0.103131
0.103815
0.104358
0.104781
0.105113
0.105374
0.105577
0.105732
0.105857
0.105959
0.106049
0.106129
0.106209
0.106288
0.106374
0.106467
0.106572
0.106689
0.106818
0.10696
0.107113
0.107276
0.107444
0.107617
0.10779
0.107963
0.108132
0.108301
0.108467
0.108634
0.108798
0.108964
0.109126
0.10929
0.109451
0.109612
0.109768
0.109924
0.110074
0.110222
0.110366
0.110504
0.110636
0.11076
0.110876
0.11098
0.111074
0.111153
0.11122
0.111279
0.111341
0.111362
0.0792084
0.0813808
0.0838503
0.0866387
0.0183955
0.0183828
0.01837
0.0183571
0.0183443
0.0183315
0.0183187
0.018306
0.0182932
0.0182806
0.018268
0.0182554
0.0182429
0.0182304
0.018218
0.0182056
0.0181932
0.0181809
0.0181687
0.0181564
0.0181442
0.018132
0.0181198
0.0181076
0.0180953
0.0180831
0.0180709
0.0180587
0.0180464
0.0180342
0.018022
0.0180098
0.0179976
0.0179854
0.0179733
0.0179612
0.0179491
0.0179371
0.0179252
0.0179133
0.0179015
0.0178897
0.0178781
0.0178665
0.017855
0.0178435
0.0178322
0.0178209
0.0178098
0.0177987
0.0177876
0.0177767
0.0177658
0.0177549
0.0177441
0.0177334
0.0177227
0.0177121
0.0177014
0.0176908
0.0176803
0.0176697
0.0176591
0.0176485
0.017638
0.0176274
0.0176169
0.0176063
0.0175958
0.0175852
0.0175746
0.0175641
0.0175535
0.0175429
0.0175324
0.0175218
0.0175117
0.0184041
0.0183915
0.0183788
0.0183662
0.0183535
0.0183408
0.0183282
0.0183155
0.0183029
0.0182904
0.0182779
0.0182654
0.018253
0.0182406
0.0182283
0.0182161
0.0182038
0.0181916
0.0181795
0.0181674
0.0181553
0.0181432
0.0181311
0.018119
0.0181069
0.0180948
0.0180827
0.0180706
0.0180584
0.0180463
0.0180342
0.0180221
0.01801
0.0179979
0.0179858
0.0179738
0.0179618
0.0179499
0.017938
0.0179262
0.0179145
0.0179028
0.0178912
0.0178797
0.0178682
0.0178569
0.0178456
0.0178344
0.0178233
0.0178122
0.0178012
0.0177903
0.0177795
0.0177687
0.0177579
0.0177472
0.0177366
0.017726
0.0177154
0.0177049
0.0176943
0.0176838
0.0176732
0.0176627
0.0176522
0.0176417
0.0176312
0.0176207
0.0176102
0.0175997
0.0175892
0.0175787
0.0175682
0.0175578
0.0175473