/*--------------------------------*- C++ -*----------------------------------*\
  =========                 |
  \\      /  F ield         | OpenFOAM: The Open Source CFD Toolbox
   \\    /   O peration     | Website:  https://openfoam.org
    \\  /    A nd           | Version:  13
     \\/     M anipulation  |
\*---------------------------------------------------------------------------*/
FoamFile
{
    format      ascii;
    class       volScalarField;
    location    "300";
    object      nut;
}
// * * * * * * * * * * * * * * * * * * * * * * * * * * * * * * * * * * * * * //

dimensions      [0 2 -1 0 0 0 0];

internalField   nonuniform List<scalar> 
171247
(
0.0011295
0.000155718
0.00670859
0.00672794
0.00666801
0.00650061
0.00619632
0.00574592
0.00518025
0.00447463
0.00566397
0.00397874
0.00334189
0.00356744
0.00192102
0.00180556
0.000828682
0.00204905
0.00736506
0.0072195
0.00702254
0.00675388
0.00641311
0.00601847
0.00564939
0.00539626
0.00496968
0.00717585
0.00583831
0.00535861
0.00371663
0.00264612
0.00229845
0.00180465
0.0017614
0.00875812
0.00841505
0.00805769
0.007683
0.00731684
0.00702258
0.00683517
0.00690623
0.00755162
0.00927962
0.00896454
0.00874448
0.00646945
0.00494196
0.00414916
0.00383366
0.00344728
0.00399193
0.0102584
0.00987545
0.00952895
0.00920964
0.00892234
0.00875434
0.00884535
0.00937521
0.0106077
0.0133109
0.0132431
0.0128405
0.0124498
0.0109081
0.00903201
0.00777255
0.00740967
0.00740536
0.00712403
0.00665259
0.0058638
0.00527118
0.011779
0.0116008
0.0114823
0.0113787
0.0113596
0.0115496
0.0120696
0.0130722
0.0147452
0.0162144
0.0157975
0.015385
0.0149852
0.0145918
0.0141724
0.012565
0.0109887
0.0106275
0.0112395
0.0107206
0.0101696
0.00974113
0.0138737
0.0139228
0.0141521
0.0144858
0.0148608
0.0153044
0.0158787
0.016606
0.0174516
0.0182532
0.0180231
0.017765
0.0174905
0.0172084
0.0169229
0.0166349
0.0163366
0.0147335
0.0140812
0.0141435
0.0148234
0.0144402
0.0140893
0.0137759
0.0164104
0.0170063
0.0178836
0.0187714
0.0193376
0.0193171
0.0192883
0.0192475
0.0191579
0.0188286
0.0186549
0.0187974
0.0187906
0.0186516
0.0185031
0.0183488
0.0181907
0.0177634
0.0170379
0.0170928
0.0175081
0.0173308
0.0171559
0.0169859
0.0194928
0.0194959
0.0194953
0.0194943
0.0194954
0.0194983
0.019503
0.0187974
0.0179031
0.0172472
0.0169122
0.0169291
0.017204
0.0176059
0.0179811
0.018207
0.0182332
0.018111
0.0180353
0.0182498
0.0188304
0.0188687
0.0187967
0.018722
0.0193691
0.0193713
0.019376
0.0193853
0.0194002
0.0194231
0.0182376
0.0168995
0.0160005
0.0154819
0.0152961
0.0153466
0.0155831
0.0159505
0.0163915
0.0168306
0.0171758
0.0173933
0.0175879
0.0179311
0.0185163
0.0193387
0.0194702
0.0194491
0.0191532
0.0191506
0.0191537
0.0191627
0.0191809
0.0189238
0.0170069
0.0156765
0.0148499
0.0144374
0.0143118
0.0143918
0.0146084
0.0149246
0.0153305
0.0157792
0.0161786
0.0164748
0.0167337
0.0170919
0.0176298
0.0183465
0.019208
0.0195483
0.0189447
0.0189372
0.0189352
0.01894
0.018955
0.0180661
0.016208
0.0149374
0.0141914
0.0138249
0.0137436
0.0138558
0.0140754
0.0143629
0.0147325
0.0151562
0.0155381
0.0158203
0.0160629
0.0163887
0.0168684
0.017498
0.0182426
0.0190712
0.0187996
0.0187878
0.0187809
0.0187811
0.0187916
0.0175122
0.0156946
0.0144826
0.0137624
0.0134299
0.0133923
0.0135531
0.0138134
0.0141243
0.0145032
0.0149275
0.0152991
0.0155638
0.0157886
0.0160943
0.0165471
0.0171378
0.0178317
0.0186005
0.0188007
0.0187888
0.0187818
0.0187819
0.0187922
0.0174745
0.0156506
0.0144242
0.0136984
0.0133695
0.0133488
0.0135425
0.0138516
0.014224
0.0146667
0.0151391
0.0155287
0.0157839
0.0159884
0.0162762
0.0167164
0.0172995
0.0179905
0.0187587
0.0189367
0.0189346
0.0189393
0.0189542
0.0179582
0.0160841
0.0147973
0.0140381
0.0136963
0.01368
0.0139044
0.0142831
0.0147659
0.015344
0.0159329
0.0163935
0.0166666
0.0168554
0.0171262
0.0175667
0.018171
0.0189012
0.0193338
0.0191467
0.0191496
0.0191583
0.0191763
0.0188131
0.0168527
0.0154918
0.0146504
0.0142836
0.0142733
0.0145436
0.0150224
0.0156554
0.0164335
0.0172181
0.0178226
0.0181639
0.0183603
0.0186306
0.0191021
0.0195305
0.0195378
0.0195405
0.019366
0.0193705
0.0193794
0.0193941
0.0194173
0.0181246
0.0167269
0.0158202
0.0153433
0.0152975
0.0156019
0.016211
0.0170656
0.0180978
0.0191111
0.0195397
0.0195316
0.0195213
0.0195088
0.0194938
0.0194758
0.0194545
0.0194299
0.0194965
0.0194961
0.0194951
0.0194966
0.0195004
0.0195067
0.0187117
0.01781
0.0172238
0.0170074
0.017293
0.018022
0.0191265
0.0193235
0.0192639
0.0191994
0.0191332
0.0190673
0.0190023
0.0189379
0.0188736
0.0188092
0.0187441
0.0179128
0.0188402
0.0193522
0.0193327
0.0193048
0.0192642
0.0192078
0.0191066
0.0190393
0.0189262
0.0187962
0.0186527
0.0185001
0.0183433
0.0181866
0.0180331
0.0178847
0.0177414
0.0176038
0.0174724
0.017347
0.0172269
0.0141171
0.0144563
0.0148528
0.0153401
0.0159843
0.016821
0.0178137
0.0182302
0.0179846
0.0177142
0.0174309
0.0171457
0.0168631
0.0165887
0.0163234
0.0160644
0.0158009
0.0155354
0.0152772
0.0150361
0.0148166
0.014619
0.0115015
0.0113781
0.0112643
0.0112346
0.0114209
0.0119522
0.0129964
0.0148074
0.0160439
0.0156096
0.0151934
0.0148033
0.0144408
0.0140929
0.0137399
0.0133579
0.0128488
0.0123098
0.0118181
0.0114037
0.0110678
0.0108022
0.00956438
0.00921676
0.00890144
0.00863615
0.00848257
0.00858679
0.00913643
0.0104311
0.0129593
0.0129
0.012511
0.0121641
0.0118196
0.0114359
0.0102273
0.00911311
0.0086035
0.00818335
0.00762221
0.00726318
0.00704998
0.00664206
0.00790343
0.0075926
0.00727547
0.00696661
0.00674116
0.00664091
0.00678875
0.00747273
0.00772974
0.0103626
0.0103418
0.0102171
0.00917847
0.00748098
0.0062345
0.0056648
0.00491355
0.00446619
0.00381364
0.00343883
0.00345392
0.00351659
0.00703189
0.00687556
0.00665671
0.00636737
0.00602942
0.00568495
0.00543301
0.00497635
0.0075072
0.00703514
0.0057904
0.00492429
0.00412758
0.0036926
0.00329032
0.00279984
0.00274023
0.00249353
0.00303813
0.00344615
0.0040993
0.00484909
0.00692202
0.0068565
0.00667985
0.00636647
0.00588864
0.00528417
0.00451
0.00653101
0.00456404
0.00425464
0.00402538
0.0028036
0.00209091
0.00204898
0.00156912
0.00180556
0.00281875
0.00492131
0.00638176
0.00664543
0.00703517
0.00746771
0.00651738
0.00667828
0.00683472
0.0064447
0.00588349
0.00500489
0.00397795
0.00518759
0.003312
0.0025444
0.00211236
0.00166506
0.000583662
0.000774785
0.00157657
0.00536435
0.00695367
0.00657811
0.00640517
0.00651325
0.00714916
0.00758014
0.00502593
0.00520922
0.00538779
0.00556319
0.00574032
0.00593213
0.00606276
0.00338678
0.00244877
0.00303346
0.00113575
0.000341234
0.000523978
0.00390038
0.00789989
0.00788781
0.00816749
0.00843104
0.00864411
0.00890263
0.00384777
0.00399974
0.00415267
0.00430804
0.00447875
0.00468641
0.00493943
0.00512978
0.00305648
0.00279748
0.00224052
0.00148391
0.000788636
0.000699873
0.00293183
0.00725739
0.0080687
0.00922616
0.00944769
0.00982505
0.0102242
0.0107262
0.0029901
0.00310777
0.00322995
0.00335699
0.00349457
0.00365529
0.00387197
0.00413362
0.00436181
0.00475017
0.00484634
0.00329108
0.00258459
0.00228368
0.00185831
0.00191249
0.00216169
0.00261855
0.00327868
0.00373919
0.00436043
0.00525661
0.00297059
0.00307058
0.00320577
0.00338632
0.00358023
0.0037555
0.0040941
0.00429969
0.00423452
0.00377716
0.00325389
0.00293647
0.00294565
0.00308501
0.00318195
0.00293489
0.00299279
0.00305801
0.00358709
0.00355285
0.00354969
0.00357668
0.00361649
0.00367712
0.00374597
0.00379867
0.00381353
0.0037808
0.00370953
0.00357428
0.00350766
0.00349603
0.00352239
0.00357667
0.00365193
0.00545608
0.00554404
0.00556564
0.00549808
0.00532351
0.00501524
0.00459615
0.00478931
0.00347806
0.00299935
0.00171463
0.000482457
0.00552211
0.00551186
0.00545847
0.00534879
0.00518576
0.00497967
0.00475227
0.00417595
0.00512765
0.00453973
0.00445076
0.00312633
0.00264761
0.00190833
0.00170371
0.00176249
0.00168279
0.00646674
0.00618678
0.00591413
0.00564719
0.00540946
0.00525077
0.0051844
0.00536689
0.00516959
0.0067699
0.00723129
0.0072474
0.00684523
0.00617053
0.005633
0.00491775
0.00430796
0.00404849
0.00864647
0.0081232
0.00764916
0.007218
0.00685313
0.00664747
0.00666908
0.00702936
0.00813194
0.00917738
0.00899787
0.00884862
0.00871587
0.00857461
0.00839475
0.00815036
0.00773134
0.00742161
0.0069071
0.00661088
0.00646049
0.00640816
0.0107735
0.0103404
0.00993355
0.0095023
0.00915344
0.00903716
0.00922896
0.00988353
0.0112958
0.0114264
0.0110793
0.0107899
0.0105529
0.0103514
0.0101693
0.0099921
0.00980716
0.00959857
0.00935542
0.00912779
0.00893794
0.00878836
0.0130247
0.01282
0.0127247
0.0126076
0.0124331
0.0122996
0.0123357
0.0126417
0.0133161
0.0145834
0.0142551
0.0138537
0.0134863
0.0131598
0.0128715
0.0126177
0.0123948
0.0121986
0.012023
0.0118615
0.0117159
0.0115873
0.0114753
0.0113783
0.0150699
0.015441
0.0159698
0.0162431
0.0161074
0.0157806
0.015468
0.015315
0.0153743
0.0157654
0.0165009
0.0162291
0.015955
0.0156881
0.0154353
0.0152003
0.0149862
0.0147954
0.0146282
0.0144826
0.0143565
0.0142473
0.0141521
0.014068
0.0186421
0.0185475
0.0184629
0.0183969
0.0183398
0.0175967
0.0165608
0.015834
0.0154314
0.0153323
0.0155577
0.0160442
0.0167406
0.0174085
0.0172655
0.0171236
0.016987
0.0168593
0.0167432
0.0166388
0.0165453
0.016461
0.0163843
0.0163137
0.0185299
0.0184832
0.0184521
0.0184331
0.0184209
0.0174594
0.0159683
0.0150128
0.0145071
0.0143428
0.0144556
0.014742
0.0151663
0.0157059
0.0164327
0.017158
0.0177535
0.0179913
0.0179446
0.0178997
0.0178567
0.017815
0.0177741
0.0177336
0.0180746
0.0180497
0.0180418
0.018043
0.0180559
0.0171876
0.0156014
0.0145444
0.0139397
0.0136986
0.0137343
0.0139451
0.014228
0.014579
0.0150656
0.0156422
0.0161453
0.016462
0.0166891
0.0170217
0.0175529
0.0182505
0.0182515
0.0182477
0.0175916
0.0175707
0.0175615
0.0175629
0.0175776
0.0168238
0.0152305
0.0141642
0.0135428
0.0132903
0.0133182
0.013538
0.0137855
0.014039
0.0144074
0.0148673
0.0152515
0.0154713
0.0156312
0.0159053
0.0163738
0.0170017
0.0177288
0.0181048
0.017166
0.0171434
0.0171291
0.0171259
0.0171364
0.0164509
0.0148395
0.0137683
0.0131514
0.012916
0.0129808
0.0132559
0.013545
0.0138004
0.0141397
0.0145543
0.0148744
0.0150317
0.0151431
0.0153727
0.0157913
0.0163629
0.0170297
0.0177077
0.0171704
0.0171473
0.0171326
0.0171289
0.017139
0.016419
0.014795
0.0137053
0.0130739
0.0128329
0.0129048
0.0132052
0.0135434
0.0138691
0.014281
0.0147475
0.0150774
0.015212
0.0152974
0.0155096
0.0159177
0.0164812
0.0171391
0.0177048
0.0175752
0.0175657
0.0175668
0.0175815
0.0167225
0.0151087
0.0140103
0.0133697
0.0131237
0.0131991
0.0135223
0.0139361
0.0144036
0.014988
0.0156112
0.0160437
0.0162086
0.0162844
0.0164889
0.0169059
0.0174923
0.0180801
0.0181
0.0180505
0.0180428
0.0180442
0.0180575
0.0170677
0.0154445
0.0143475
0.013724
0.0135057
0.0136317
0.0140191
0.0145575
0.0151751
0.0160315
0.016947
0.0176308
0.0179272
0.0180288
0.0182286
0.018256
0.0182543
0.0182496
0.0182418
0.018479
0.0184486
0.0184308
0.0184201
0.0174202
0.0158507
0.0148184
0.0142628
0.014101
0.0143017
0.0147902
0.0155451
0.016469
0.0177951
0.0181216
0.0180668
0.0180121
0.0179604
0.0179119
0.0178661
0.0178222
0.0177796
0.0177378
0.0185475
0.0184649
0.0184022
0.0183501
0.0176052
0.0164588
0.0156199
0.0151258
0.0149779
0.0152344
0.0158859
0.0169514
0.0174693
0.0173243
0.0171794
0.0170393
0.016909
0.0167915
0.0166874
0.0165954
0.0165138
0.0164406
0.0163738
0.0160144
0.0162915
0.016147
0.0157701
0.0153672
0.0151089
0.0150556
0.0153379
0.0161042
0.0162877
0.016005
0.0157317
0.0154748
0.015238
0.0150248
0.0148381
0.014679
0.014546
0.0144363
0.0143465
0.0142722
0.0142089
0.0127272
0.0125775
0.0123742
0.012203
0.0121835
0.0124138
0.0129803
0.0140861
0.0142062
0.0137844
0.013407
0.0130788
0.0127958
0.0125525
0.0123457
0.0121737
0.0120333
0.0119192
0.0118285
0.0117587
0.0117053
0.0116634
0.0102211
0.00977972
0.00931092
0.00892303
0.00875949
0.00888748
0.0094329
0.0106443
0.0111952
0.0108504
0.0105732
0.0103537
0.0101734
0.0100211
0.00988823
0.00977054
0.0096593
0.0095381
0.0094273
0.00933889
0.00927306
0.00922581
0.00767151
0.00721137
0.00680249
0.00647263
0.00628792
0.00631947
0.00665856
0.00760624
0.00859966
0.00872834
0.00859982
0.00849125
0.00838412
0.00826465
0.00812532
0.00795975
0.00773967
0.00736672
0.00711022
0.00695367
0.00686923
0.00683417
0.0057441
0.00553188
0.00532877
0.00513997
0.00503867
0.00502929
0.00523028
0.00544691
0.00762869
0.00763515
0.00760105
0.0074955
0.00731834
0.00706894
0.00675226
0.00635205
0.00581427
0.00461126
0.0046555
0.0047835
0.00477356
0.00450782
0.0053355
0.00530287
0.00521683
0.00509089
0.00490801
0.00471596
0.00416368
0.0066911
0.00524306
0.00569797
0.00480731
0.00506473
0.00450131
0.00396235
0.0035923
0.0032837
0.00324066
0.0035855
0.00437716
0.00508085
0.00564939
0.00595954
0.00550214
0.00551547
0.00544477
0.00526936
0.00496341
0.00455676
0.00707427
0.00384555
0.00357616
0.00457053
0.00164953
0.00199786
0.00123917
0.00181319
0.00142201
0.00128405
0.00184016
0.00260423
0.00310392
0.00592536
0.00582149
0.0063821
0.00582623
0.00583276
0.00573472
0.00549885
0.00503018
0.00417958
0.00584942
0.00318981
0.00347842
0.00199223
9.27363e-05
0.000903896
0.00393421
0.00349006
0.00424287
0.00579432
0.00646687
0.00534313
0.00537424
0.00532915
0.00517782
0.00479043
0.00396317
0.00505535
0.00283529
0.00208823
0.00100556
0.00350674
0.00419359
0.00614426
0.00837764
0.00907271
0.0045351
0.00473944
0.00494215
0.00515133
0.00538001
0.00519455
0.00528456
0.00340715
0.00278696
0.00194589
0.000132553
0.00250948
0.00717014
0.00830969
0.00941298
0.00747371
0.00808977
0.00331772
0.00347376
0.0036419
0.0038334
0.00405836
0.00434034
0.00464959
0.00424456
0.00402927
0.00444146
0.00236803
0.00177078
0.0012204
0.00112338
0.0013631
0.00165977
0.00235645
0.00383848
0.00428482
0.00493936
0.00528133
0.00558401
0.00347715
0.0036364
0.0038563
0.0037501
0.0041617
0.00457505
0.00444154
0.0038848
0.00349247
0.00316235
0.00289529
0.00266167
0.00257425
0.00292826
0.00308116
0.00326479
0.00344669
0.00344652
0.00436302
0.00420266
0.00425442
0.00409484
0.00446323
0.00447731
0.00445333
0.00440288
0.00433338
0.00425526
0.00418077
0.00411347
0.00405034
0.00402611
0.00403921
0.00407586
0.0041295
0.00671119
0.00688899
0.00697383
0.00673743
0.00639931
0.00578259
0.00484238
0.00406977
0.00299658
0.00166705
0.000123579
0.00598943
0.00602807
0.00599533
0.00591948
0.00574231
0.00547536
0.00523208
0.00505342
0.00414062
0.00419988
0.00282832
0.00217362
0.00190083
0.00174101
0.00163808
0.00156823
0.00164141
0.00180532
0.00473441
0.00478167
0.00479346
0.00476521
0.00476555
0.00478362
0.0048899
0.00494747
0.00584239
0.00632809
0.00689035
0.00622837
0.00573146
0.00531492
0.00488966
0.0044659
0.00407748
0.00378768
0.0058072
0.00548558
0.00523416
0.00500192
0.00480577
0.00469435
0.00472939
0.00490948
0.00537113
0.00591865
0.00707228
0.00712781
0.00714198
0.00714733
0.00710172
0.00700509
0.00687099
0.00671969
0.00655589
0.00823517
0.00773958
0.00728142
0.00677874
0.0062777
0.00592297
0.00579852
0.00587112
0.00621749
0.00687922
0.00752528
0.00752036
0.00753526
0.00756453
0.00759098
0.00741541
0.00763352
0.00763209
0.00762863
0.00761844
0.00760151
0.00758934
0.0075862
0.0106322
0.0103221
0.0098676
0.00920997
0.0085549
0.00804698
0.0077951
0.00783082
0.0080049
0.0084762
0.00901245
0.00885734
0.00874604
0.00867147
0.00862251
0.0085942
0.00858171
0.00858614
0.00860687
0.0084971
0.00826457
0.00814243
0.00806787
0.00800982
0.0126317
0.0128052
0.0127668
0.0120647
0.0112037
0.0105127
0.0100645
0.0102519
0.0105414
0.0108551
0.0110979
0.0108799
0.0106913
0.010534
0.0104047
0.0103042
0.0102291
0.0101804
0.0101557
0.0101527
0.0101665
0.00995255
0.00977435
0.00964358
0.0149933
0.0146639
0.0144223
0.0142714
0.0139288
0.0127883
0.0119368
0.0116908
0.0120054
0.0122301
0.0128079
0.0129745
0.0128084
0.0126566
0.0125196
0.0123984
0.0122952
0.0122128
0.0121534
0.0121166
0.0120972
0.0120907
0.0120936
0.0121028
0.0154814
0.0152992
0.0151855
0.0150926
0.0150068
0.0146268
0.0133049
0.0126398
0.0123387
0.0123402
0.0127796
0.0133633
0.0139104
0.0143194
0.0142434
0.0141697
0.014102
0.0140452
0.0140029
0.0139743
0.0139559
0.0139446
0.0139383
0.0139355
0.0150029
0.0149364
0.0149098
0.0148975
0.0148907
0.0148982
0.0142742
0.0133255
0.0127383
0.0125513
0.0126756
0.0131248
0.0135458
0.013889
0.0144144
0.0150366
0.0150406
0.0150471
0.0150584
0.015074
0.015092
0.0151103
0.0151273
0.0151428
0.0142184
0.0141917
0.0141866
0.0141994
0.0142291
0.0142773
0.0141401
0.0130498
0.0123825
0.0121641
0.0122569
0.0126754
0.0129891
0.0132022
0.0136029
0.0141786
0.0146261
0.0147493
0.0147245
0.0147696
0.0150558
0.0152964
0.0153489
0.0153966
0.0132268
0.0132129
0.0132142
0.0132333
0.0132702
0.0133277
0.0134043
0.0126208
0.0118912
0.0116474
0.0117628
0.0122513
0.0126468
0.01286
0.0131964
0.0136709
0.0139774
0.0139948
0.0139193
0.013951
0.0142186
0.0146916
0.0148098
0.0148857
0.0132305
0.0132158
0.0132162
0.0132342
0.01327
0.0133261
0.0134014
0.0125661
0.011809
0.01154
0.0116379
0.0121207
0.0125524
0.0128567
0.0132778
0.0138065
0.0140966
0.0140656
0.0139584
0.0139751
0.014235
0.0146997
0.0148023
0.0148781
0.0141966
0.0141918
0.014205
0.0142355
0.0142841
0.014086
0.0129341
0.0122135
0.011954
0.0120395
0.0125106
0.0130046
0.0135522
0.0142052
0.0149313
0.0150011
0.0150584
0.0151125
0.0150525
0.0152362
0.0152908
0.0153411
0.0153866
0.0149546
0.0149301
0.0149202
0.014919
0.0149317
0.0141739
0.0131852
0.0125183
0.0122837
0.0124621
0.0130007
0.0136633
0.0144021
0.015089
0.0150858
0.0150801
0.0150783
0.0150828
0.0150927
0.0151057
0.0151191
0.0151318
0.0151432
0.0153357
0.0152221
0.0151311
0.0150465
0.0146926
0.013315
0.0125197
0.0121115
0.0119941
0.0123544
0.0129749
0.0137599
0.0144095
0.014329
0.0142466
0.0141685
0.0141015
0.01405
0.0140133
0.0139883
0.0139713
0.0139599
0.0139521
0.0146393
0.0144011
0.0142583
0.0141137
0.0129208
0.0119747
0.011562
0.0117131
0.0117168
0.0120708
0.0125429
0.0129255
0.0127739
0.0126315
0.0125016
0.0123885
0.0122961
0.012228
0.0121836
0.0121586
0.0121478
0.0121464
0.012151
0.0129793
0.0122734
0.0113815
0.0106233
0.0100827
0.0100979
0.0102287
0.0102745
0.0105615
0.0109061
0.0108039
0.0106378
0.0104992
0.0103867
0.0103019
0.010245
0.0102137
0.0102065
0.00996801
0.00955717
0.00925132
0.00906054
0.0099802
0.00927922
0.00858248
0.0080243
0.00770919
0.00760707
0.00767701
0.00794584
0.00842158
0.00873692
0.00874475
0.00865088
0.00863064
0.0085989
0.00858381
0.00858684
0.0085991
0.00819086
0.00786978
0.00760939
0.00744596
0.00738572
0.00715016
0.00663685
0.0061324
0.00576736
0.00562024
0.0056556
0.00591572
0.00646405
0.00714158
0.00748672
0.00750384
0.00745308
0.00756472
0.00695698
0.00749505
0.00763031
0.00765121
0.00762489
0.0073743
0.0071665
0.00704485
0.00701268
0.00497143
0.00476971
0.00460728
0.0045236
0.00457402
0.00476538
0.00514025
0.00597604
0.00672063
0.00708132
0.00709102
0.00705465
0.00706964
0.00699592
0.0068966
0.00679543
0.00669819
0.00659968
0.00646458
0.00638766
0.00635498
0.00635367
0.00471521
0.00474729
0.0047362
0.00474686
0.00476626
0.00488001
0.00496905
0.00515006
0.00713549
0.00705334
0.00684678
0.00663237
0.00641066
0.00615784
0.00588443
0.00561598
0.00536623
0.0050688
0.0041963
0.0042509
0.00435992
0.004513
0.00597123
0.00594929
0.00586083
0.00569179
0.00545151
0.0052164
0.00639248
0.00488365
0.00518488
0.00578533
0.00469428
0.0041936
0.00382676
0.00348834
0.00320778
0.00300892
0.00290793
0.00293878
0.00329067
0.00353318
0.00392925
0.00437739
0.00673573
0.00685782
0.00665847
0.00633966
0.00575409
0.00482195
0.00495357
0.00368153
0.00381898
0.00248254
0.00176144
0.00136628
0.00131682
0.00127889
0.00126993
0.0014375
0.00138323
0.00200147
0.0037181
0.0046073
0.00469945
0.00505524
0.00685795
0.00700559
0.00717723
0.00736864
0.00667119
0.006965
0.0038746
0.0025919
0.00198883
0.000456032
0.00217673
0.00304078
0.00459338
0.00526167
0.0060672
0.00614195
0.00622394
0.00631627
0.00641404
0.00464113
0.00317083
0.00244474
0.000408813
0.000999434
0.00347351
0.0066865
0.00906029
0.00417548
0.00431122
0.00445899
0.00463894
0.00488412
0.0042846
0.00311886
0.0022086
0.00167482
0.00151029
0.00380799
0.00579698
0.00869713
0.0101078
0.0032232
0.00333111
0.00344765
0.00358125
0.00376604
0.00403169
0.00422122
0.0026995
0.00265445
0.00189088
0.000826968
0.00130598
0.00124955
0.00124587
0.00128684
0.0016546
0.0014607
0.00208317
0.00263489
0.00332791
0.00393188
0.00461041
0.00404964
0.00415603
0.00388068
0.00430808
0.00343877
0.00396
0.00403106
0.00381475
0.00360041
0.00340207
0.00324161
0.00316687
0.00313595
0.00314719
0.00378793
0.00386851
0.00397568
0.00411301
0.00560677
0.00535673
0.00494764
0.00525624
0.00551465
0.00543216
0.0053656
0.00530564
0.00524944
0.00520111
0.00517777
0.0051881
0.00521913
0.0052595
0.00530947
0.00537206
0.00544925
0.00610333
0.00614096
0.00615694
0.00614897
0.00613642
0.00612547
0.00604685
0.00297793
0.00209631
0.000283078
0.00603016
0.00620573
0.00639202
0.00657274
0.00674737
0.00691815
0.00533136
0.00405544
0.00330715
0.00232721
0.0017951
0.00168335
0.00169788
0.00202032
0.00201084
0.00170422
0.00154758
0.00151115
0.00501113
0.00522902
0.00547256
0.00575842
0.00609782
0.00606638
0.00567626
0.00508884
0.00508438
0.00587589
0.00482967
0.00433786
0.00411268
0.00393078
0.00372823
0.00353723
0.00336654
0.00322719
0.00467067
0.00469567
0.00477101
0.00491287
0.00512345
0.00537232
0.00501965
0.0049345
0.00518149
0.00550127
0.0066953
0.00652794
0.00628173
0.00610122
0.00580892
0.00557295
0.00538788
0.00525689
0.00502556
0.005567
0.00502838
0.00497703
0.00530054
0.00530951
0.00460137
0.00468236
0.00474643
0.00521493
0.00577069
0.00643515
0.00657033
0.00663879
0.00643459
0.00662978
0.00667402
0.00660352
0.00645993
0.00639536
0.00636762
0.00636714
0.00638439
0.00641775
0.00608952
0.0058962
0.00556944
0.00529453
0.00511242
0.00502567
0.00507982
0.00548033
0.0059719
0.00628592
0.00642315
0.00656314
0.00669573
0.00682243
0.00692869
0.006304
0.00702168
0.00711602
0.00715849
0.00721076
0.00727361
0.00734596
0.00742543
0.00750914
0.00745003
0.00720827
0.007049
0.00696542
0.00646475
0.00594888
0.00558513
0.00543115
0.00560169
0.00593534
0.00630464
0.00655299
0.00666689
0.00675684
0.00698026
0.00612567
0.00668165
0.00710449
0.00757192
0.00767298
0.0075797
0.00742237
0.00729857
0.00722013
0.00871316
0.00841261
0.00823391
0.00811859
0.00803958
0.0079875
0.00738364
0.00682577
0.00653113
0.00646432
0.00662059
0.00688896
0.00689564
0.00695259
0.00705147
0.00725209
0.00760596
0.00788187
0.00797058
0.00786534
0.00773887
0.00764239
0.00757368
0.00752938
0.0100053
0.00970943
0.00947596
0.00933823
0.00922359
0.0091176
0.00905067
0.00892542
0.00835598
0.00796286
0.00783564
0.0080028
0.00841563
0.00849653
0.00846135
0.00850422
0.00874844
0.00907918
0.00916632
0.00895004
0.0087883
0.00870137
0.00867781
0.00868643
0.00873539
0.0100703
0.00993612
0.00983645
0.0097852
0.0097528
0.00971157
0.00969565
0.00970571
0.00973809
0.00913433
0.00894176
0.00916137
0.00969191
0.00986822
0.00985568
0.010001
0.0101393
0.0101982
0.0102651
0.01034
0.0103269
0.0102534
0.0103294
0.0104672
0.0106293
0.00963517
0.0095874
0.00955775
0.00955243
0.00957006
0.00960108
0.00965212
0.00972451
0.00981431
0.00976679
0.00946165
0.0095617
0.0101406
0.0103135
0.0103998
0.0105094
0.0106071
0.0107047
0.0108087
0.0109173
0.0110265
0.0111341
0.0112383
0.0113379
0.0114325
0.00841294
0.00840711
0.00842294
0.00846371
0.00852351
0.00860721
0.00871623
0.00884663
0.00899233
0.00873559
0.00882383
0.00942997
0.0095655
0.00970209
0.00983968
0.0099758
0.0101123
0.0102555
0.0104023
0.0105488
0.0106924
0.0108313
0.0109641
0.0110903
0.0083992
0.0083923
0.00840719
0.00844687
0.00850538
0.00858806
0.00869593
0.00882568
0.00897149
0.00864601
0.00869634
0.00924036
0.00955077
0.0096886
0.00982617
0.00996129
0.0100968
0.0102396
0.0103862
0.0105326
0.010676
0.0108149
0.0109477
0.011074
0.00957606
0.00954876
0.00954572
0.00956601
0.00960145
0.00965736
0.00973397
0.00982925
0.00973243
0.00931476
0.00930069
0.00974245
0.0100526
0.0103321
0.0105411
0.0106282
0.0107154
0.0108111
0.010913
0.0110169
0.0110977
0.0112199
0.011316
0.0114073
0.00988704
0.00984123
0.00981393
0.0097853
0.0097789
0.00979704
0.00983763
0.00915689
0.00883297
0.00890767
0.00932174
0.00962462
0.00936755
0.0101559
0.0101962
0.0102374
0.0102892
0.0103518
0.0103807
0.0101561
0.010147
0.010204
0.0102899
0.00959033
0.00944729
0.00932487
0.00920638
0.00912948
0.00906038
0.00852601
0.00803655
0.00774602
0.00771406
0.0079793
0.00812532
0.00800547
0.00849058
0.00889672
0.00915899
0.00920081
0.00895934
0.00868639
0.00852813
0.00848643
0.00842779
0.00838246
0.00835794
0.00818161
0.00807599
0.00800798
0.00796793
0.00759925
0.00696032
0.00654742
0.00632384
0.00629108
0.00645789
0.00650566
0.00677845
0.00705427
0.00730497
0.00764803
0.00794118
0.00784531
0.00764861
0.00750131
0.007374
0.00726916
0.00719358
0.00715751
0.0070653
0.0067122
0.00614891
0.00571381
0.00549282
0.00548094
0.00571328
0.00597091
0.0061344
0.00635906
0.00660286
0.00685849
0.00684341
0.00633491
0.00677193
0.00763885
0.0075683
0.00738317
0.00720645
0.00707335
0.00697745
0.00573048
0.00534071
0.00511999
0.00500431
0.00503439
0.00537672
0.00581709
0.0062497
0.00652891
0.00667599
0.0068113
0.00693391
0.00702989
0.00617176
0.006743
0.00717894
0.00721356
0.00726177
0.00732555
0.00740419
0.00747048
0.00730532
0.0049427
0.00536391
0.00525893
0.00457469
0.0046498
0.0047036
0.00514655
0.00567356
0.00650579
0.00663376
0.00668743
0.00622969
0.00649648
0.00673452
0.00675289
0.00639873
0.00633091
0.00630829
0.00632129
0.00635942
0.00641957
0.0064984
0.00481422
0.00496353
0.00518223
0.00539437
0.00500094
0.00491512
0.00511741
0.00544614
0.00663628
0.00648927
0.00620338
0.00620205
0.00614399
0.0060513
0.00594219
0.00585256
0.00486098
0.00487509
0.00491157
0.00494572
0.00503281
0.00516657
0.00516641
0.00542288
0.00572125
0.00606308
0.00605436
0.00566899
0.00502737
0.00690215
0.00622631
0.00594782
0.00538698
0.00503405
0.00475754
0.00451225
0.0043124
0.00416635
0.00407216
0.00401674
0.00396182
0.00355402
0.00389198
0.00429659
0.00607593
0.00626246
0.00644367
0.00662367
0.00680506
0.00512111
0.00477963
0.00386098
0.0047412
0.00346181
0.0031442
0.00304101
0.00291216
0.0027488
0.00263155
0.00253545
0.00247198
0.00248399
0.00258338
0.00282713
0.00482316
0.00559078
0.00608477
0.00611831
0.0061393
0.00615792
0.00617542
0.00629705
0.0031768
0.00251391
0.00169549
0.00158854
0.00125837
0.00114579
0.00170576
0.00136436
0.000750672
0.000774712
0.000533026
0.000738331
0.00225199
0.00460436
0.00491999
0.00476505
0.00546096
0.00543004
0.0054083
0.00542309
0.00544321
0.0051314
0.00289152
0.0013782
0.00121717
0.00354781
0.00420837
0.00512301
0.00453036
0.00463676
0.00475257
0.00487728
0.00500471
0.00432779
0.00269465
0.00129566
0.000620664
0.00305221
0.00471777
0.00716267
0.00380187
0.00394232
0.0040926
0.00425995
0.00445986
0.00412482
0.00233326
0.00156184
0.00173503
0.00386099
0.00453441
0.00542666
0.00375459
0.00387718
0.00400457
0.00414138
0.00430579
0.0035171
0.00446832
0.00202792
0.00131494
0.00165688
0.00128766
0.0016919
0.00178856
0.00183793
0.00126449
0.00125216
0.00154044
0.00147994
0.00243601
0.002798
0.00367497
0.00403811
0.00530864
0.00513205
0.00394986
0.00436537
0.00349593
0.00404929
0.00441593
0.00436763
0.00432726
0.00429722
0.00421792
0.00419528
0.00384527
0.003211
0.00364916
0.00503722
0.00529683
0.00542147
0.0072673
0.00723122
0.00701736
0.00727364
0.00712755
0.00703081
0.0069488
0.00687624
0.00681795
0.00677539
0.00676595
0.00681152
0.00578211
0.00573405
0.00629166
0.00672472
0.00706129
0.00448408
0.00446142
0.00444904
0.00445543
0.00447672
0.00452612
0.00413608
0.00236766
0.00105064
0.00543692
0.00533529
0.00521943
0.00510313
0.0049979
0.00491279
0.00487789
0.0033699
0.00256469
0.00150074
0.00145653
0.00146029
0.00177896
0.00202384
0.00196951
0.00166826
0.000796519
0.000779061
0.00503302
0.00522609
0.00534139
0.00536595
0.00534551
0.0052941
0.00523277
0.0043901
0.00398042
0.00381907
0.00319712
0.00287674
0.00270646
0.0026123
0.00256928
0.00254439
0.00248984
0.00253287
0.00330259
0.00356637
0.00388381
0.0042378
0.00458802
0.00477925
0.00467901
0.00421004
0.00394541
0.00364554
0.00396846
0.00479411
0.00439025
0.0040543
0.00375643
0.00351784
0.00341705
0.00335446
0.00343291
0.00358835
0.00334063
0.0033752
0.0034678
0.00357326
0.00382398
0.00401821
0.00414286
0.00398082
0.004173
0.00432344
0.0053809
0.00537065
0.00524046
0.00521199
0.00509475
0.00494077
0.00478531
0.00469609
0.00471005
0.00444585
0.00455788
0.0046943
0.0048524
0.00400379
0.00395633
0.00389164
0.00385239
0.00388388
0.00396716
0.0040994
0.00420946
0.00447467
0.0047436
0.00501746
0.00523384
0.00537734
0.00549407
0.00553362
0.00558735
0.00565448
0.0056982
0.00539363
0.00541055
0.00546381
0.00554512
0.00564873
0.00577058
0.00400683
0.00421651
0.00420938
0.00418583
0.00420813
0.00425628
0.00433641
0.00438249
0.00440891
0.00460511
0.00481716
0.00503486
0.00523977
0.00543389
0.00561181
0.00570145
0.00586228
0.00600929
0.0059353
0.00601655
0.00610722
0.00620795
0.00631836
0.00643754
0.00424601
0.00443666
0.00481857
0.00482774
0.0045797
0.00448892
0.00446535
0.00438954
0.00426338
0.00450897
0.00492384
0.00519584
0.00529778
0.0054346
0.00573062
0.00545319
0.00581431
0.00610483
0.00623244
0.0063618
0.00649302
0.00662687
0.00676357
0.0069029
0.00550592
0.0052731
0.00544864
0.00547474
0.00548644
0.00506085
0.00516189
0.00526003
0.00546575
0.00566814
0.0056218
0.00564685
0.00567019
0.00586064
0.00582614
0.00594037
0.00621275
0.0063253
0.00644285
0.00657905
0.00672067
0.00686382
0.00700776
0.00715244
0.00729761
0.00553993
0.00552129
0.00551288
0.00551886
0.00555682
0.00505374
0.00515996
0.00528411
0.00542235
0.00557129
0.00572257
0.0058644
0.00598008
0.00609208
0.0062163
0.00634279
0.00646315
0.00658093
0.00670664
0.0068514
0.00700616
0.00716116
0.00731449
0.00746559
0.00761441
0.00595273
0.00593001
0.005905
0.00589975
0.00592851
0.00519959
0.00526954
0.0053669
0.00549096
0.00563884
0.00579878
0.00548152
0.00607369
0.00619582
0.00633435
0.00647712
0.00661042
0.00674123
0.0068805
0.00703685
0.0072035
0.00736891
0.00753083
0.00768857
0.00784194
0.00557146
0.00559864
0.00563329
0.00568962
0.00528539
0.0053525
0.00544339
0.00555971
0.00569743
0.00581655
0.00516706
0.00569572
0.00620377
0.00632814
0.00646041
0.00658351
0.00670621