/*--------------------------------*- C++ -*----------------------------------*\
  =========                 |
  \\      /  F ield         | OpenFOAM: The Open Source CFD Toolbox
   \\    /   O peration     | Website:  https://openfoam.org
    \\  /    A nd           | Version:  13
     \\/     M anipulation  |
\*---------------------------------------------------------------------------*/
FoamFile
{
    format      ascii;
    class       volScalarField;
    location    "300";
    object      k;
}
// * * * * * * * * * * * * * * * * * * * * * * * * * * * * * * * * * * * * * //

dimensions      [0 2 -2 0 0 0 0];

internalField   nonuniform List<scalar> 
171745
(
0.307119
0.305644
0.304188
0.302749
0.301328
0.299922
0.298531
0.297155
0.295791
0.29444
0.293098
0.291766
0.290442
0.289126
0.287817
0.286515
0.28522
0.283932
0.282652
0.281381
0.280119
0.278869
0.27763
0.276404
0.307148
0.305673
0.304217
0.302779
0.301357
0.299952
0.298562
0.297187
0.295825
0.294474
0.293134
0.291804
0.290482
0.289167
0.28786
0.28656
0.285267
0.283981
0.282703
0.281433
0.280174
0.278925
0.277688
0.276464
0.307214
0.305739
0.304282
0.302844
0.301423
0.300019
0.29863
0.297257
0.295897
0.294549
0.293212
0.291884
0.290566
0.289255
0.287951
0.286655
0.285366
0.284084
0.28281
0.281545
0.280289
0.279045
0.277812
0.276592
0.307318
0.305841
0.304384
0.302946
0.301526
0.300123
0.298737
0.297366
0.29601
0.294666
0.293334
0.292012
0.290698
0.289393
0.288096
0.286805
0.285522
0.284247
0.282979
0.281721
0.280472
0.279234
0.278008
0.276795
0.307472
0.305994
0.304536
0.303099
0.30168
0.30028
0.298897
0.29753
0.296178
0.294841
0.293515
0.292199
0.290894
0.289596
0.288307
0.287025
0.285751
0.284484
0.283226
0.281976
0.280736
0.279507
0.27829
0.277086
0.307692
0.306213
0.304755
0.303318
0.301902
0.300504
0.299126
0.297764
0.296419
0.295088
0.293771
0.292465
0.291169
0.289882
0.288604
0.287333
0.286071
0.284816
0.283569
0.282331
0.281103
0.279886
0.27868
0.277488
0.308003
0.306523
0.305066
0.30363
0.302216
0.300823
0.29945
0.298096
0.296759
0.295438
0.294131
0.292837
0.291554
0.290281
0.289016
0.28776
0.286512
0.285272
0.284041
0.282818
0.281604
0.280402
0.279211
0.278033
0.308443
0.306962
0.305506
0.304073
0.302663
0.301276
0.29991
0.298565
0.297238
0.29593
0.294637
0.293358
0.292091
0.290835
0.289589
0.288351
0.287122
0.2859
0.284687
0.283482
0.282288
0.281103
0.27993
0.278769
0.309068
0.307588
0.306133
0.304705
0.303301
0.301921
0.300565
0.299232
0.297919
0.296627
0.295351
0.294092
0.292846
0.291611
0.290388
0.289173
0.287967
0.286769
0.285578
0.284396
0.283223
0.282061
0.280909
0.279768
0.309962
0.308484
0.307034
0.305612
0.304216
0.302848
0.301505
0.300187
0.298893
0.29762
0.296368
0.295133
0.293914
0.292707
0.291512
0.290327
0.28915
0.28798
0.286817
0.285662
0.284516
0.283378
0.28225
0.281133
0.311248
0.309776
0.308333
0.306921
0.305538
0.304184
0.302859
0.301562
0.300291
0.299046
0.297823
0.296621
0.295436
0.294265
0.293107
0.291958
0.290817
0.289683
0.288553
0.28743
0.286314
0.285205
0.284103
0.28301
0.313106
0.311643
0.310212
0.308813
0.307447
0.306113
0.304811
0.303541
0.302302
0.301092
0.299908
0.298748
0.297609
0.296485
0.295375
0.294273
0.293179
0.292088
0.290999
0.289913
0.28883
0.287752
0.286677
0.285606
0.315787
0.314335
0.312918
0.311536
0.31019
0.308882
0.307609
0.306374
0.305175
0.304012
0.30288
0.301777
0.300698
0.299638
0.298591
0.297552
0.296517
0.295482
0.294443
0.293399
0.292354
0.291307
0.290257
0.289204
0.319601
0.318158
0.316754
0.315389
0.314065
0.312784
0.311546
0.310353
0.309205
0.308101
0.307039
0.306014
0.305019
0.304048
0.303091
0.302141
0.301188
0.300228
0.299255
0.298264
0.297262
0.296247
0.295218
0.294174
0.324858
0.323413
0.322012
0.320656
0.319349
0.318093
0.316892
0.31575
0.314667
0.313646
0.312683
0.311775
0.310911
0.310078
0.309264
0.308456
0.307637
0.306799
0.305929
0.305017
0.304075
0.303101
0.302091
0.301046
0.331733
0.330265
0.32885
0.32749
0.326191
0.324961
0.323805
0.322733
0.321752
0.320866
0.320077
0.319379
0.318755
0.318181
0.317633
0.317084
0.316509
0.315891
0.315211
0.314454
0.313607
0.31269
0.3117
0.310635
0.340203
0.3387
0.337265
0.335906
0.334634
0.333461
0.332409
0.331494
0.330731
0.330135
0.329711
0.329448
0.329318
0.329274
0.329262
0.329232
0.329139
0.328948
0.328629
0.328154
0.327463
0.326629
0.325644
0.324511
0.350445
0.34895
0.347554
0.346271
0.345123
0.344139
0.343355
0.342812
0.342553
0.342607
0.342984
0.343639
0.344502
0.345475
0.346449
0.34733
0.348051
0.348557
0.3488
0.348737
0.34833
0.347496
0.34638
0.344996
0.363661
0.362342
0.361181
0.360209
0.359467
0.359014
0.358919
0.359262
0.360105
0.361468
0.363331
0.365479
0.367776
0.370074
0.372225
0.374122
0.375703
0.376894
0.377609
0.377823
0.377509
0.376601
0.375055
0.373087
0.370763
0.383197
0.382534
0.38211
0.381973
0.382191
0.382856
0.384065
0.385901
0.388353
0.39121
0.394379
0.397686
0.400875
0.403686
0.405942
0.407585
0.408646
0.409134
0.409036
0.408415
0.40729
0.405698
0.403647
0.40104
0.398016
0.415937
0.416612
0.417441
0.418461
0.419733
0.421329
0.423221
0.425265
0.427387
0.429419
0.431091
0.432116
0.432271
0.431468
0.42985
0.427553
0.424779
0.421801
0.418778
0.415791
0.41276
0.409634
0.40646
0.403273
0.400093
0.465025
0.465119
0.464545
0.463328
0.461512
0.459145
0.456252
0.452803
0.448637
0.443562
0.437607
0.431068
0.424145
0.417023
0.410486
0.40512
0.401151
0.398507
0.396964
0.396262
0.396571
0.396923
0.397095
0.396915
0.396193
0.491981
0.482245
0.471397
0.459813
0.44783
0.435758
0.423868
0.412359
0.401476
0.391613
0.38354
0.378235
0.375707
0.375229
0.377562
0.38318
0.391531
0.401536
0.412351
0.423949
0.446245
0.46727
0.488888
0.510732
0.532108
0.450593
0.432946
0.416792
0.402502
0.39002
0.379496
0.370955
0.363838
0.358523
0.355946
0.358179
0.366869
0.380066
0.378881
0.388895
0.408688
0.435595
0.468741
0.50556
0.549777
0.707304
0.786024
0.878961
0.972661
1.0738
1.19839
0.434072
0.424844
0.417335
0.410982
0.405404
0.400395
0.396039
0.393529
0.395058
0.406662
0.429774
0.430847
0.454276
0.496949
0.546131
0.610622
0.710025
0.827197
1.03501
1.27089
1.67645
1.78447
1.96616
2.24703
2.75524
0.478378
0.47195
0.466924
0.46318
0.460629
0.459667
0.462468
0.473784
0.503199
0.503773
0.537743
0.60951
0.69571
0.733567
0.914253
1.13475
1.50871
1.87489
1.38693
1.19849
1.1638
1.25394
1.39305
1.52911
0.536763
0.538257
0.540561
0.54395
0.548505
0.555174
0.566298
0.588466
0.631554
0.636408
0.697151
0.762311
0.879265
1.00025
1.22312
0.429574
0.59569
0.956018
0.99539
0.918166
0.921561
0.985791
1.05163
1.10458
0.62426
0.630196
0.63782
0.647041
0.658645
0.674913
0.700799
0.746892
0.751462
0.816123
0.891344
1.08547
0.344555
0.734677
0.888773
0.845772
0.888043
0.972175
1.04966
1.11677
0.705721
0.779248
0.782479
0.894155
1.03388
1.23018
1.19777
1.51144
1.579
1.65914
1.8628
2.22558
1.09108
1.18897
1.30423
1.45449
0.436302
0.429961
0.423054
0.415939
0.408794
0.402332
0.397023
0.392981
0.390165
0.388423
0.387567
0.387629
0.38765
0.387425
0.386825
0.385671
0.383927
0.427637
0.42872
0.429113
0.428631
0.427223
0.424959
0.421889
0.418407
0.414824
0.411335
0.408043
0.404891
0.401797
0.398762
0.395792
0.392896
0.390038
0.387217
0.391865
0.394822
0.397847
0.400686
0.403083
0.404863
0.405967
0.406338
0.406059
0.405276
0.404093
0.402563
0.400726
0.398461
0.395777
0.392781
0.389556
0.386179
0.362307
0.364162
0.366267
0.368481
0.370645
0.372606
0.374253
0.375466
0.376176
0.376397
0.376144
0.375421
0.374098
0.372335
0.370222
0.367816
0.365179
0.36237
0.343126
0.343544
0.344229
0.345103
0.346058
0.346976
0.347756
0.348322
0.348621
0.348625
0.34831
0.347607
0.346596
0.345325
0.343815
0.342096
0.340205
0.338179
0.330422
0.330031
0.329799
0.329693
0.329662
0.329648
0.329591
0.329448
0.329181
0.328765
0.328179
0.327396
0.326469
0.325396
0.324182
0.322842
0.321395
0.319861
0.321049
0.320281
0.319603
0.318996
0.318436
0.317895
0.317344
0.316756
0.316112
0.315396
0.314581
0.313699
0.312744
0.311714
0.31061
0.309439
0.308209
0.30693
0.313791
0.312841
0.311944
0.311091
0.310268
0.309461
0.308655
0.307834
0.306987
0.306105
0.30518
0.304224
0.303233
0.302204
0.301139
0.300037
0.298905
0.297749
0.308234
0.307179
0.306161
0.305174
0.304209
0.303257
0.30231
0.301358
0.300396
0.299418
0.298424
0.297417
0.296396
0.295358
0.294305
0.293238
0.292159
0.291069
0.304139
0.303013
0.301914
0.30084
0.299784
0.298741
0.297705
0.296671
0.295636
0.294595
0.293551
0.292505
0.291456
0.290402
0.289346
0.288286
0.287224
0.286161
0.301217
0.300037
0.29888
0.297744
0.296623
0.295515
0.294415
0.293322
0.292231
0.291142
0.290056
0.288974
0.287895
0.286819
0.285747
0.284678
0.283614
0.282554
0.29917
0.29795
0.296749
0.295566
0.294397
0.29324
0.292092
0.290952
0.289818
0.288688
0.287566
0.28645
0.285341
0.284239
0.283145
0.282058
0.280981
0.279911
0.297743
0.296492
0.295258
0.294039
0.292833
0.291639
0.290454
0.289277
0.288107
0.286944
0.285789
0.284643
0.283506
0.282378
0.28126
0.280153
0.279057
0.277972
0.296747
0.295472
0.294212
0.292966
0.291732
0.290508
0.289293
0.288086
0.286888
0.285697
0.284515
0.283342
0.282179
0.281028
0.279887
0.278759
0.277643
0.27654
0.296046
0.294753
0.293474
0.292206
0.29095
0.289702
0.288464
0.287234
0.286012
0.284798
0.283593
0.282398
0.281213
0.28004
0.27888
0.277732
0.276598
0.275478
0.29555
0.294242
0.292947
0.291663
0.290389
0.289124
0.287867
0.286618
0.285376
0.284144
0.28292
0.281707
0.280504
0.279313
0.278135
0.276971
0.27582
0.274684
0.295196
0.293877
0.29257
0.291273
0.289985
0.288705
0.287433
0.286169
0.284913
0.283665
0.282427
0.281198
0.279981
0.278775
0.277583
0.276404
0.27524
0.274091
0.294944
0.293616
0.292299
0.290992
0.289693
0.288402
0.287119
0.285843
0.284575
0.283316
0.282065
0.280825
0.279596
0.278379
0.277175
0.275984
0.274809
0.273649
0.294765
0.293431
0.292107
0.290792
0.289485
0.288186
0.286894
0.285609
0.284332
0.283064
0.281804
0.280555
0.279316
0.27809
0.276877
0.275678
0.274494
0.273326
0.294645
0.293306
0.291977
0.290656
0.289343
0.288038
0.286739
0.285448
0.284165
0.282889
0.281623
0.280367
0.279122
0.277889
0.27667
0.275464
0.274274
0.273099
0.294568
0.293226
0.291894
0.290569
0.289253
0.287943
0.286641
0.285345
0.284058
0.282778
0.281508
0.280247
0.278998
0.277761
0.276537
0.275328
0.274133
0.272954
0.294533
0.29319
0.291856
0.29053
0.289211
0.2879
0.286595
0.285298
0.284008
0.282727
0.281454
0.280192
0.278941
0.277702
0.276476
0.275265
0.274068
0.272887
0.30712
0.305646
0.30419
0.302752
0.301331
0.299926
0.298536
0.29716
0.295797
0.294445
0.293104
0.291772
0.290448
0.289132
0.287823
0.286521
0.285226
0.283937
0.282657
0.281385
0.280123
0.278872
0.277632
0.276406
0.307149
0.305675
0.30422
0.302782
0.301361
0.299957
0.298567
0.297193
0.295831
0.294481
0.293141
0.291811
0.290489
0.289175
0.287867
0.286567
0.285274
0.283987
0.282709
0.281439
0.280179
0.278929
0.277691
0.276467
0.307216
0.305742
0.304286
0.302848
0.301428
0.300024
0.298637
0.297264
0.295904
0.294557
0.29322
0.291893
0.290575
0.289264
0.28796
0.286664
0.285374
0.284092
0.282818
0.281552
0.280296
0.279051
0.277817
0.276597
0.307321
0.305845
0.304389
0.302952
0.301533
0.300131
0.298746
0.297376
0.29602
0.294677
0.293345
0.292023
0.29071
0.289405
0.288107
0.286817
0.285534
0.284258
0.282991
0.281732
0.280483
0.279244
0.278017
0.276803
0.307477
0.306001
0.304544
0.303108
0.30169
0.300291
0.298908
0.297543
0.296192
0.294855
0.29353
0.292215
0.290909
0.289612
0.288323
0.287041
0.285767
0.2845
0.283242
0.281992
0.280752
0.279522
0.278305
0.2771
0.307699
0.306222
0.304765
0.30333
0.301914
0.300518
0.29914
0.29778
0.296436
0.295106
0.29379
0.292484
0.291189
0.289903
0.288625
0.287354
0.286092
0.284837
0.28359
0.282352
0.281124
0.279907
0.278701
0.277508
0.308012
0.306533
0.305077
0.303643
0.302231
0.300839
0.299467
0.298114
0.296778
0.295458
0.294153
0.29286
0.291577
0.290305
0.289041
0.287785
0.286538
0.285298
0.284067
0.282844
0.281631
0.280428
0.279238
0.27806
0.30845
0.306971
0.305516
0.304085
0.302677
0.301291
0.299927
0.298583
0.297258
0.295951
0.29466
0.293382
0.292116
0.290861
0.289615
0.288378
0.28715
0.285929
0.284716
0.283512
0.282318
0.281134
0.279962
0.278802
0.309071
0.307593
0.30614
0.304714
0.303312
0.301934
0.30058
0.299248
0.297938
0.296647
0.295373
0.294115
0.29287
0.291637
0.290414
0.289201
0.287996
0.286799
0.285609
0.284429
0.283257
0.282096
0.280945
0.279806
0.309957
0.308482
0.307035
0.305615
0.304222
0.302856
0.301515
0.3002
0.298907
0.297637
0.296387
0.295154
0.293936
0.292731
0.291537
0.290353
0.289178
0.28801
0.286849
0.285697
0.284552
0.283417
0.282292
0.281177
0.311234
0.309765
0.308326
0.306916
0.305536
0.304185
0.302863
0.301569
0.300301
0.299058
0.297838
0.296638
0.295455
0.294286
0.29313
0.291984
0.290845
0.289714
0.288588
0.287468
0.286356
0.285252
0.284155
0.283067
0.313082
0.311623
0.310196
0.308802
0.30744
0.30611
0.304812
0.303546
0.30231
0.301103
0.299922
0.298765
0.297628
0.296507
0.2954
0.294302
0.293211
0.292124
0.291041
0.289961
0.288886
0.287816
0.28675
0.285689
0.315755
0.314311
0.3129
0.311525
0.310186
0.308883
0.307616
0.306386
0.305192
0.304032
0.302904
0.301805
0.300729
0.299672
0.298629
0.297594
0.296564
0.295535
0.294504
0.293471
0.292439
0.291406
0.290371
0.289335
0.31958
0.318149
0.316756
0.315402
0.314089
0.312817
0.311587
0.310401
0.30926
0.308161
0.307103
0.306081
0.305089
0.30412
0.303166
0.302219
0.301273
0.300321
0.299358
0.298384
0.297402
0.29641
0.295407
0.294392
0.324897
0.323473
0.322091
0.320754
0.319464
0.318223
0.317035
0.315903
0.314829
0.313813
0.312853
0.311944
0.311078
0.310242
0.309423
0.30861
0.30779
0.306955
0.306095
0.305203
0.304291
0.303353
0.302385
0.301387
0.331948
0.330516
0.329133
0.327805
0.326534
0.325328
0.324191
0.323133
0.322158
0.321271
0.320471
0.319752
0.319101
0.318498
0.31792
0.317344
0.31675
0.31612
0.315442
0.314692
0.313896
0.313043
0.312129
0.311147
0.340812
0.339367
0.337986
0.336675
0.335443
0.334302
0.333266
0.332349
0.331568
0.330934
0.330452
0.330113
0.329893
0.329752
0.329644
0.329526
0.329361
0.329121
0.328781
0.328318
0.327715
0.326999
0.326156
0.325181
0.351761
0.350346
0.349017
0.34779
0.346679
0.345709
0.344908
0.344311
0.343951
0.343856
0.344039
0.344478
0.345107
0.345844
0.346597
0.347287
0.347855
0.348261
0.34847
0.348442
0.348108
0.347551
0.346751
0.345703
0.366088
0.364821
0.363686
0.362706
0.361915
0.361358
0.361095
0.361188
0.361703
0.362665
0.364071
0.36585
0.367784
0.369751
0.371625
0.373308
0.374737
0.375873
0.376677
0.377075
0.377002
0.376445
0.375475
0.3741
0.372357
0.386325
0.385518
0.384902
0.384519
0.384426
0.384701
0.385429
0.386696
0.388574
0.390946
0.393715
0.396776
0.399947
0.402985
0.405681
0.407912
0.409635
0.410845
0.411506
0.411614
0.411204
0.410128
0.40854
0.406455
0.403934
0.417279
0.417401
0.417693
0.418208
0.419024
0.420236
0.421887
0.423914
0.426353
0.42919
0.432323
0.435536
0.43853
0.441051
0.442904
0.444021
0.444381
0.443935
0.442831
0.441231
0.43923
0.436857
0.433999
0.430786
0.427291
0.458375
0.458697
0.458903
0.459068
0.459296
0.459595
0.459966
0.460435
0.461024
0.461728
0.462588
0.46342
0.464187
0.464876
0.46483
0.463821
0.461997
0.459437
0.456188
0.452528
0.44871
0.444558
0.440191
0.435798
0.431716
0.482994
0.480313
0.47722
0.473865
0.470421
0.467092
0.463789
0.460628
0.458789
0.458488
0.460781
0.466096
0.472653
0.47994
0.486335
0.48993
0.490917
0.489442
0.485797
0.481112
0.477001
0.474983
0.474216
0.473942
0.473169
0.471865
0.464129
0.456851
0.450309
0.444796
0.440708
0.43862
0.439271
0.444081
0.455709
0.476314
0.503131
0.503993
0.523333
0.5482
0.563356
0.568219
0.565558
0.557086
0.547012
0.547785
0.587709
0.643993
0.704892
0.762973
0.817582
0.514964
0.510954
0.508725
0.508058
0.509205
0.512915
0.51985
0.533202
0.559439
0.596698
0.603662
0.657084
0.723891
0.746553
0.736036
0.707781
0.688722
0.668892
0.687875
0.840497
1.15389
1.97096
2.23114
2.47799
2.75627
0.709437
0.711466
0.712114
0.712351
0.713624
0.718528
0.733903
0.766874
0.755243
0.804449
0.911549
0.965244
0.975649
0.990133
1.03342
0.984994
1.06982
1.19227
1.90103
2.7871
2.91813
2.35355
2.7433
2.82415
0.922679
0.924406
0.926024
0.928402
0.932636
0.940195
0.954874
0.988347
0.987239
1.06899
1.13973
1.09704
0.810407
1.31517
1.28248
1.36919
1.38768
1.45561
0.925604
0.925729
0.928146
0.934438
0.947109
0.970891
1.01848
1.0354
1.13983
1.24403
1.12954
0.489385
0.94101
0.769445
0.940141
1.09652
1.14137
0.256663
0.619347
0.751837
0.746596
1.1048
1.41443
1.34906
1.71894
1.83684
2.00609
2.20038
2.36556
1.03057
1.12203
1.22736
1.34126
0.456281
0.456706
0.457288
0.458058
0.458632
0.458258
0.456764
0.454307
0.451062
0.447194
0.443145
0.439335
0.435332
0.431184
0.427217
0.423463
0.419948
0.428218
0.430986
0.433784
0.436334
0.438374
0.439693
0.440127
0.439581
0.438297
0.436492
0.434385
0.432122
0.42963
0.426878
0.42388
0.420657
0.417261
0.413771
0.391521
0.394196
0.397115
0.400087
0.402864
0.405228
0.40705
0.408287
0.408855
0.408863
0.408418
0.407556
0.406204
0.404451
0.402301
0.399771
0.396926
0.393827
0.36325
0.364684
0.36646
0.368361
0.370258
0.372016
0.373531
0.374739
0.375561
0.375975
0.375993
0.375531
0.374723
0.373555
0.372036
0.370197
0.368086
0.365757
0.344188
0.344414
0.344891
0.345545
0.346286
0.347014
0.347643
0.34811
0.348373
0.348405
0.348176
0.347684
0.346978
0.346044
0.344882
0.343507
0.341948
0.340237
0.331115
0.330662
0.330352
0.330157
0.330034
0.329932
0.329802
0.329604
0.329311
0.3289
0.328337
0.32767
0.326887
0.325978
0.32494
0.323781
0.322514
0.321157
0.321397
0.320614
0.319913
0.319279
0.31869
0.318121
0.317547
0.316945
0.316299
0.315594
0.314821
0.313998
0.313115
0.312168
0.311155
0.310079
0.308946
0.307765
0.313927
0.312978
0.312079
0.311222
0.310396
0.309584
0.308775
0.307955
0.307115
0.306246
0.305349
0.304427
0.303477
0.302495
0.301482
0.300437
0.299365
0.298267
0.308275
0.307223
0.306208
0.305223
0.30426
0.303311
0.302368
0.301422
0.30047
0.299504
0.298529
0.297545
0.296549
0.29554
0.294518
0.293483
0.292437
0.29138
0.304148
0.303024
0.301929
0.300857
0.299805
0.298765
0.297733
0.296705
0.295676
0.294645
0.293613
0.29258
0.291546
0.290509
0.28947
0.28843
0.287387
0.286343
0.30122
0.300043
0.298888
0.297754
0.296636
0.295531
0.294435
0.293345
0.292259
0.291176
0.290097
0.289023
0.287953
0.286886
0.285824
0.284766
0.283713
0.282665
0.299177
0.297958
0.296759
0.295578
0.294411
0.293256
0.292111
0.290974
0.289842
0.288717
0.287598
0.286487
0.285383
0.284286
0.283198
0.282118
0.281046
0.279982
0.297755
0.296506
0.295273
0.294056
0.292852
0.291659
0.290475
0.2893
0.288132
0.286972
0.285819
0.284676
0.283541
0.282416
0.281301
0.280197
0.279104
0.278022
0.296763
0.29549
0.294231
0.292987
0.291753
0.290531
0.289317
0.288112
0.286914
0.285725
0.284544
0.283373
0.282211
0.281061
0.279922
0.278796
0.277681
0.276579
0.296064
0.294772
0.293494
0.292228
0.290972
0.289726
0.288488
0.287259
0.286038
0.284824
0.28362
0.282426
0.281242
0.28007
0.27891
0.277763
0.276629
0.275509
0.295568
0.294261
0.292967
0.291684
0.29041
0.289145
0.287889
0.28664
0.2854
0.284168
0.282944
0.281731
0.280529
0.279338
0.27816
0.276996
0.275845
0.274709
0.295211
0.293893
0.292587
0.29129
0.290002
0.288723
0.287452
0.286188
0.284932
0.283685
0.282446
0.281218
0.28
0.278795
0.277602
0.276423
0.275258
0.274108
0.294955
0.293628
0.292312
0.291005
0.289707
0.288416
0.287133
0.285858
0.28459
0.28333
0.282079
0.280839
0.279609
0.278392
0.277187
0.275997
0.274821
0.273659
0.294773
0.29344
0.292116
0.290802
0.289495
0.288196
0.286904
0.285619
0.284342
0.283073
0.281814
0.280564
0.279325
0.278099
0.276885
0.275685
0.2745
0.27333
0.29465
0.293312
0.291983
0.290662
0.28935
0.288044
0.286746
0.285455
0.284171
0.282896
0.281629
0.280373
0.279127
0.277894
0.276673
0.275467
0.274275
0.273099
0.294572
0.293231
0.291898
0.290574
0.289258
0.287948
0.286646
0.28535
0.284062
0.282783
0.281512
0.280251
0.279001
0.277763
0.276539
0.275328
0.274132
0.272952
0.294537
0.293194
0.29186
0.290534
0.289215
0.287904
0.286599
0.285302
0.284012
0.28273
0.281457
0.280194
0.278943
0.277703
0.276477
0.275264
0.274067
0.272885
0.307122
0.30565
0.304195
0.302758
0.301338
0.299933
0.298544
0.297169
0.295806
0.294455
0.293114
0.291782
0.290459
0.289143
0.287834
0.286532
0.285236
0.283948
0.282667
0.281395
0.280132
0.278879
0.277639
0.276411
0.307153
0.30568
0.304226
0.302789
0.301369
0.299966
0.298577
0.297203
0.295842
0.294493
0.293153
0.291823
0.290501
0.289187
0.28788
0.28658
0.285286
0.284
0.282721
0.28145
0.280189
0.278939
0.2777
0.276474
0.307223
0.305749
0.304295
0.302859
0.30144
0.300037
0.29865
0.297278
0.29592
0.294573
0.293237
0.29191
0.290592
0.289281
0.287978
0.286681
0.285392
0.28411
0.282835
0.281569
0.280312
0.279066
0.277832
0.27661
0.307332
0.305858
0.304404
0.302968
0.301551
0.30015
0.298766
0.297397
0.296043
0.2947
0.293369
0.292048
0.290735
0.289431
0.288133
0.286843
0.28556
0.284285
0.283017
0.281758
0.280508
0.279269
0.278041
0.276827
0.307496
0.306022
0.304567
0.303132
0.301717
0.300319
0.298938
0.297574
0.296225
0.294889
0.293565
0.292251
0.290946
0.28965
0.288361
0.28708
0.285806
0.28454
0.283282
0.282032
0.280791
0.279561
0.278343
0.277138
0.307726
0.306251
0.304797
0.303364
0.301951
0.300557
0.299181
0.297823
0.29648
0.295152
0.293837
0.292533
0.291239
0.289954
0.288677
0.287407
0.286146
0.284892
0.283646
0.282408
0.28118
0.279963
0.278757
0.277564
0.308044
0.306569
0.305116
0.303685
0.302275
0.300886
0.299517
0.298166
0.296833
0.295515
0.294212
0.29292
0.29164
0.290369
0.289106
0.287852
0.286606
0.285367
0.284137
0.282915
0.281703
0.280501
0.279311
0.278133
0.308484
0.307009
0.305558
0.30413
0.302725
0.301343
0.299982
0.298641
0.297319
0.296015
0.294726
0.29345
0.292187
0.290934
0.28969
0.288455
0.287228
0.286009
0.284798
0.283596
0.282403
0.281221
0.28005
0.278892
0.3091
0.307627
0.306179
0.304756
0.303359
0.301985
0.300635
0.299307
0.298
0.296712
0.295442
0.294187
0.292945
0.291714
0.290494
0.289283
0.288081
0.286886
0.2857
0.284522
0.283353
0.282194
0.281046
0.27991
0.309977
0.308507
0.307065
0.30565
0.304262
0.302901
0.301565
0.300254
0.298967
0.2977
0.296454
0.295225
0.29401
0.292809
0.291619
0.290438
0.289267
0.288103
0.286946
0.285797
0.284658
0.283527
0.282407
0.281297
0.311237
0.309775
0.308343
0.30694
0.305566
0.304222
0.302906
0.301617
0.300355
0.299117
0.297902
0.296706
0.295528
0.294364
0.293212
0.292071
0.290938
0.289812
0.288692
0.287579
0.286474
0.285378
0.28429
0.28321
0.313065
0.311615
0.310198
0.308813
0.307459
0.306138
0.304848
0.303589
0.302361
0.30116
0.299986
0.298835
0.297704
0.296589
0.295487
0.294396
0.293312
0.292234
0.291159
0.290091
0.289028
0.287971
0.286919
0.285873
0.315721
0.31429
0.312893
0.311531
0.310205
0.308913
0.307658
0.306439
0.305254
0.304104
0.302984
0.301892
0.300824
0.299774
0.298739
0.297713
0.296693
0.295675
0.294658
0.293642
0.29263
0.291619
0.290608
0.289598
0.31955
0.318141
0.316769
0.315436
0.314142
0.312888
0.311676
0.310506
0.309378
0.308292
0.307245
0.306232
0.305249
0.304289
0.303343
0.302406
0.301472
0.300535
0.299591
0.298644
0.297694
0.296739
0.295776
0.294804
0.324942
0.323554
0.322207
0.320904
0.319646
0.318435
0.317275
0.316166
0.315113
0.314113
0.313166
0.312266
0.311406
0.310574
0.30976
0.308953
0.308142
0.307322
0.306484
0.305633
0.30477
0.30389
0.302988
0.30206
0.332245
0.330874
0.329552
0.32828
0.327062
0.325904
0.324809
0.323785
0.322836
0.321964
0.32117
0.320446
0.319782
0.31916
0.31856
0.317964
0.317355
0.316723
0.316057
0.31536
0.314635
0.313872
0.313062
0.312197
0.34171
0.340369
0.339086
0.337866
0.336717
0.335646
0.334665
0.333784
0.333016
0.332368
0.331844
0.331437
0.331125
0.330878
0.330659
0.330432
0.330173
0.329863
0.329489
0.329048
0.328552
0.327981
0.327314
0.326538
0.353886
0.352621
0.351428
0.350318
0.349302
0.348397
0.347623
0.347003
0.346562
0.346322
0.346291
0.346457
0.346781
0.347198
0.347633
0.348025
0.348335
0.348542
0.348626
0.348574
0.348417
0.348118
0.347641
0.346964
0.370011
0.368879
0.367848
0.366934
0.36616
0.365555
0.365156
0.365005
0.365149
0.365626
0.366441
0.367559
0.368895
0.370301
0.371631
0.372817
0.373818
0.374613
0.375183
0.375495
0.375612
0.3755
0.375129
0.374482
0.37353
0.391478
0.390652
0.389956
0.389421
0.389086
0.389003
0.389234
0.389839
0.390884
0.392408
0.394319
0.396493
0.398803
0.401081
0.403166
0.40495
0.406395
0.407504
0.408286
0.408727
0.408901
0.40876
0.408252
0.407344
0.40604
0.420632
0.42036
0.420202
0.420229
0.420498
0.421081
0.422033
0.42334
0.42505
0.427179
0.429695
0.43247
0.435305
0.437956
0.440194
0.44188
0.442996
0.443599
0.443723
0.443568
0.443155
0.44243
0.441294
0.439691
0.437509
0.455746
0.456061
0.456363
0.456662
0.457033
0.457546
0.458257
0.459231
0.460509
0.4621
0.463987
0.466106
0.468225
0.470128
0.47152
0.472066
0.471663
0.470437
0.468561
0.466515
0.464799
0.463223
0.461277
0.458835
0.456011
0.477292
0.476098
0.474962
0.473981
0.473264
0.472962
0.473163
0.473551
0.474363
0.475955
0.479071
0.483527
0.488097
0.492598
0.495715
0.497365
0.497815
0.496633
0.493891
0.490691
0.488847
0.488059
0.486856
0.484961
0.482823
0.479218
0.474364
0.469936
0.4661
0.462987
0.460678
0.45974
0.461477
0.466897
0.478589
0.496917
0.497881
0.510862
0.531605
0.551461
0.56361
0.566654
0.563151
0.554055
0.542929
0.534801
0.534316
0.54338
0.555431
0.572117
0.593645
0.511888
0.504282
0.498456
0.494452
0.492528
0.493278
0.49791
0.510075
0.540474
0.544627
0.575827
0.635736
0.693753
0.706804
0.698561
0.661801
0.618934
0.578136
0.546916
0.545672
0.564767
0.725657
1.0551
1.25063
1.46765
0.650708
0.643926
0.638622
0.635499
0.635806
0.641924
0.657973
0.649063
0.682183
0.750966
0.828702
0.912165
1.02155
0.986455
1.82344
3.11464
4.00747
3.5391
3.54118
0.830919
0.807739
0.783952
0.759955
0.737726
0.720758
0.706263
0.72023
0.761937
0.828184
0.873176
0.516594
0.891422
1.23053
1.38455
2.00936
1.0285
1.01069
0.997078
0.989221
0.98938
0.989397
0.984766
1.00897
1.02904
0.878859
0.334096
0.756914
1.03179
1.08546
0.32501
0.488053
0.860803
1.28719
1.2475
1.52943
1.82253
1.60203
1.71171
0.90861
0.875588
0.919124
0.977388
0.742738
0.741261
0.742215
0.746712
0.459265
0.460845
0.462697
0.464568
0.466163
0.467041
0.466739
0.465419
0.463307
0.460682
0.458133
0.456327
0.455012
0.453555
0.451717
0.449492
0.446988
0.427008
0.429364
0.431939
0.434529
0.436878
0.438741
0.439963
0.440539
0.440415
0.439878
0.439181
0.438496
0.437625
0.436464
0.434939
0.433035
0.430596
0.427917
0.392693
0.394604
0.396755
0.399008
0.401184
0.40311
0.404671
0.405835
0.406609
0.407044
0.407185
0.407093
0.406732
0.406055
0.405026
0.403652
0.401948
0.399878
0.365816
0.366676
0.367832
0.369193
0.370581
0.371862
0.372963
0.373842
0.37448
0.37487
0.375028
0.374987
0.374725
0.374217
0.373451
0.372393
0.371026
0.369392
0.346379
0.346383
0.346586
0.346944
0.347382
0.347819
0.348189
0.348451
0.348581
0.348569
0.348439
0.348199
0.347816
0.347258
0.346508
0.34556
0.344423
0.343122
0.332398
0.331895
0.33151
0.331221
0.330994
0.330786
0.330559
0.330287
0.32995
0.329537
0.329066
0.328535
0.327926
0.32722
0.326406
0.325482
0.324455
0.323336
0.322008
0.321226
0.320516
0.319866
0.319257
0.318666
0.318075
0.317466
0.316826
0.316146
0.31544
0.314703
0.313925
0.313097
0.312214
0.311273
0.310278
0.309234
0.31418
0.31324
0.312349
0.311497
0.310674
0.309867
0.309065
0.308257
0.307435
0.306593
0.305741
0.304875
0.30399
0.30308
0.302143
0.301179
0.300188
0.299173
0.308377
0.307335
0.306328
0.305351
0.304396
0.303456
0.302523
0.301591
0.300655
0.29971
0.298765
0.297815
0.296859
0.295893
0.294917
0.29393
0.292933
0.291925
0.304201
0.303085
0.301997
0.300933
0.299887
0.298855
0.297832
0.296814
0.295798
0.294781
0.293767
0.292756
0.291745
0.290734
0.289722
0.28871
0.287696
0.286681
0.301266
0.300095
0.298946
0.297817
0.296705
0.295606
0.294516
0.293434
0.292356
0.291283
0.290215
0.289154
0.288098
0.287046
0.286
0.284959
0.283922
0.28289
0.299228
0.298014
0.29682
0.295643
0.294481
0.29333
0.29219
0.291058
0.289932
0.288813
0.287701
0.286597
0.285501
0.284414
0.283334
0.282264
0.281201
0.280148
0.297813
0.296568
0.295339
0.294125
0.292924
0.291735
0.290555
0.289383
0.288219
0.287062
0.285914
0.284775
0.283646
0.282526
0.281417
0.280318
0.27923
0.278153
0.296825
0.295554
0.294299
0.293057
0.291827
0.290606
0.289395
0.288193
0.286998
0.285811
0.284633
0.283464
0.282306
0.281159
0.280023
0.278899
0.277787
0.276689
0.296125
0.294836
0.293559
0.292295
0.291042
0.289797
0.288562
0.287334
0.286115
0.284903
0.283701
0.282508
0.281326
0.280156
0.278997
0.277851
0.276719
0.2756
0.295622
0.294318
0.293025
0.291744
0.290472
0.289208
0.287953
0.286706
0.285467
0.284235
0.283013
0.281801
0.280599
0.279409
0.278232
0.277068
0.275917
0.274781
0.295255
0.293939
0.292634
0.291338
0.290052
0.288774
0.287503
0.28624
0.284985
0.283738
0.2825
0.281272
0.280054
0.278849
0.277656
0.276477
0.275312
0.274161
0.294988
0.293662
0.292347
0.291041
0.289743
0.288453
0.28717
0.285895
0.284628
0.283368
0.282118
0.280877
0.279647
0.278429
0.277224
0.276033
0.274856
0.273694
0.294795
0.293463
0.29214
0.290826
0.289519
0.28822
0.286929
0.285644
0.284367
0.283098
0.281838
0.280588
0.279349
0.278122
0.276907
0.275706
0.27452
0.273349
0.294665
0.293327
0.291998
0.290678
0.289366
0.288061
0.286762
0.285471
0.284187
0.282911
0.281644
0.280387
0.279141
0.277907
0.276686
0.275478
0.274285
0.273108
0.294583
0.293242
0.29191
0.290586
0.289269
0.28796
0.286657
0.285361
0.284073
0.282793
0.281522
0.28026
0.279009
0.277771
0.276545
0.275333
0.274136
0.272954
0.294546
0.293203
0.291869
0.290544
0.289225
0.287914
0.286609
0.285311
0.284021
0.282739
0.281465
0.280202
0.278949
0.277708
0.276481
0.275267
0.274068
0.272885
0.307129
0.305658
0.304205
0.30277
0.301351
0.299948
0.29856
0.297185
0.295824
0.294473
0.293132
0.291801
0.290478
0.289162
0.287853
0.286551
0.285255
0.283966
0.282684
0.281411
0.280147
0.278894
0.277652
0.276423
0.307162
0.305691
0.304239
0.302804
0.301385
0.299983
0.298596
0.297223
0.295863
0.294514
0.293175
0.291846
0.290524
0.28921
0.287903
0.286603
0.285309
0.284022
0.282743
0.281472
0.28021
0.278958
0.277718
0.276491
0.307238
0.305767
0.304315
0.30288
0.301463
0.300062
0.298677
0.297307
0.295949
0.294604
0.293268
0.291942
0.290625
0.289314
0.288011
0.286715
0.285426
0.284143
0.282868
0.281602
0.280344
0.279097
0.277861
0.276639
0.30736
0.305889
0.304437