/*--------------------------------*- C++ -*----------------------------------*\
  =========                 |
  \\      /  F ield         | OpenFOAM: The Open Source CFD Toolbox
   \\    /   O peration     | Website:  https://openfoam.org
    \\  /    A nd           | Version:  13
     \\/     M anipulation  |
\*---------------------------------------------------------------------------*/
FoamFile
{
    format      ascii;
    class       volScalarField;
    location    "300";
    object      nut;
}
// * * * * * * * * * * * * * * * * * * * * * * * * * * * * * * * * * * * * * //

dimensions      [0 2 -1 0 0 0 0];

internalField   nonuniform List<scalar> 
171745
(
0.0187245
0.0187111
0.0186979
0.0186848
0.0186719
0.018659
0.0186462
0.0186335
0.0186208
0.0186081
0.0185954
0.0185827
0.0185698
0.0185569
0.0185439
0.0185308
0.0185176
0.0185043
0.018491
0.0184776
0.0184643
0.018451
0.0184378
0.0184247
0.0187255
0.0187122
0.0186989
0.0186859
0.0186729
0.0186601
0.0186473
0.0186346
0.018622
0.0186094
0.0185967
0.018584
0.0185712
0.0185583
0.0185454
0.0185323
0.0185192
0.018506
0.0184927
0.0184794
0.0184661
0.0184529
0.0184397
0.0184267
0.0187277
0.0187143
0.0187011
0.018688
0.0186751
0.0186623
0.0186496
0.018637
0.0186244
0.0186118
0.0185993
0.0185867
0.018574
0.0185613
0.0185484
0.0185355
0.0185225
0.0185094
0.0184962
0.0184831
0.0184699
0.0184568
0.0184438
0.0184309
0.018731
0.0187176
0.0187044
0.0186914
0.0186785
0.0186658
0.0186532
0.0186407
0.0186282
0.0186158
0.0186034
0.018591
0.0185785
0.0185659
0.0185532
0.0185405
0.0185277
0.0185148
0.0185019
0.0184889
0.018476
0.0184631
0.0184503
0.0184377
0.018736
0.0187226
0.0187094
0.0186964
0.0186836
0.018671
0.0186585
0.0186461
0.0186338
0.0186216
0.0186094
0.0185972
0.018585
0.0185727
0.0185603
0.0185478
0.0185353
0.0185226
0.01851
0.0184973
0.0184847
0.0184721
0.0184596
0.0184473
0.0187429
0.0187296
0.0187164
0.0187035
0.0186908
0.0186783
0.018666
0.0186538
0.0186418
0.0186298
0.0186179
0.018606
0.0185941
0.0185821
0.0185701
0.018558
0.0185458
0.0185336
0.0185213
0.018509
0.0184968
0.0184846
0.0184725
0.0184605
0.0187526
0.0187393
0.0187262
0.0187134
0.0187009
0.0186886
0.0186765
0.0186645
0.0186528
0.0186412
0.0186296
0.0186181
0.0186066
0.0185951
0.0185835
0.0185719
0.0185602
0.0185485
0.0185367
0.0185249
0.0185132
0.0185015
0.0184899
0.0184784
0.0187661
0.0187529
0.0187399
0.0187273
0.0187149
0.0187029
0.0186911
0.0186795
0.0186681
0.018657
0.0186459
0.0186349
0.018624
0.018613
0.0186021
0.018591
0.01858
0.0185689
0.0185577
0.0185466
0.0185354
0.0185244
0.0185134
0.0185026
0.018785
0.0187719
0.0187592
0.0187468
0.0187347
0.018723
0.0187116
0.0187005
0.0186897
0.0186791
0.0186687
0.0186584
0.0186481
0.0186379
0.0186278
0.0186175
0.0186073
0.018597
0.0185866
0.0185762
0.0185659
0.0185556
0.0185453
0.0185352
0.0188117
0.0187989
0.0187865
0.0187745
0.0187629
0.0187516
0.0187408
0.0187304
0.0187202
0.0187104
0.0187008
0.0186914
0.0186821
0.0186729
0.0186638
0.0186546
0.0186453
0.018636
0.0186266
0.0186172
0.0186078
0.0185984
0.0185891
0.0185798
0.0188498
0.0188374
0.0188255
0.018814
0.0188031
0.0187925
0.0187825
0.0187729
0.0187637
0.0187549
0.0187464
0.0187382
0.0187302
0.0187223
0.0187144
0.0187065
0.0186986
0.0186906
0.0186824
0.0186742
0.0186659
0.0186576
0.0186492
0.0186409
0.0189043
0.0188925
0.0188812
0.0188705
0.0188604
0.0188508
0.0188418
0.0188333
0.0188254
0.0188179
0.0188109
0.0188042
0.0187978
0.0187916
0.0187854
0.0187792
0.0187729
0.0187665
0.0187599
0.018753
0.0187461
0.018739
0.0187318
0.0187245
0.0189812
0.0189702
0.0189598
0.01895
0.0189408
0.0189323
0.0189245
0.0189174
0.0189109
0.0189051
0.0188999
0.0188952
0.0188908
0.0188867
0.0188827
0.0188786
0.0188744
0.0188699
0.0188651
0.0188599
0.0188545
0.0188488
0.0188427
0.0188364
0.0190859
0.0190755
0.0190657
0.0190567
0.0190484
0.0190409
0.0190342
0.0190283
0.0190234
0.0190192
0.0190159
0.0190133
0.0190113
0.0190096
0.0190081
0.0190066
0.0190048
0.0190027
0.0190002
0.018997
0.0189933
0.0189891
0.0189843
0.0189789
0.0192154
0.0192048
0.0191949
0.0191858
0.0191775
0.0191701
0.0191637
0.0191584
0.0191542
0.0191512
0.0191494
0.0191486
0.0191487
0.0191495
0.0191506
0.0191518
0.0191528
0.0191536
0.0191538
0.0191532
0.0191518
0.0191494
0.0191461
0.0191417
0.0193438
0.0193314
0.0193196
0.0193086
0.0192984
0.0192892
0.0192812
0.0192745
0.0192692
0.0192656
0.0192636
0.0192632
0.019264
0.0192657
0.019268
0.0192704
0.0192728
0.0192752
0.0192775
0.0192798
0.019281
0.0192809
0.0192792
0.0192759
0.0194047
0.0193883
0.0193722
0.0193567
0.0193419
0.0193278
0.0193149
0.0193032
0.0192927
0.0192836
0.0192757
0.0192685
0.0192613
0.0192535
0.0192448
0.0192354
0.0192258
0.0192174
0.0192114
0.0192088
0.0192106
0.019211
0.0192097
0.0192068
0.0192901
0.019267
0.0192434
0.0192191
0.0191941
0.0191682
0.019141
0.019112
0.0190801
0.0190439
0.0190013
0.0189497
0.018887
0.018813
0.0187294
0.0186406
0.0185521
0.0184703
0.0184019
0.0183523
0.0183259
0.0183216
0.0183193
0.0183187
0.018851
0.0188122
0.0187687
0.0187191
0.0186617
0.0185938
0.018512
0.0184118
0.0182871
0.0181308
0.0179353
0.0168174
0.015956
0.0155239
0.0154315
0.0155522
0.0157821
0.0158375
0.0156099
0.0154352
0.0153207
0.0152753
0.0152909
0.0153186
0.0153579
0.0178031
0.0177011
0.0175759
0.0174227
0.0172357
0.017008
0.0167315
0.0163973
0.0156331
0.0140326
0.0127917
0.0119107
0.0113697
0.0111222
0.0110934
0.0111613
0.0112437
0.0111158
0.0108059
0.0105624
0.0103862
0.0102782
0.0102451
0.0103003
0.0103773
0.0153332
0.0149893
0.0145989
0.0141642
0.0136872
0.0131692
0.0123497
0.0111549
0.0100888
0.00919883
0.0085104
0.00802889
0.00774362
0.00762717
0.00761432
0.00743201
0.00713062
0.00688092
0.00667453
0.00650621
0.00637293
0.00627591
0.0062152
0.00618881
0.00621682
0.0100618
0.00954219
0.00904528
0.00857332
0.00812569
0.00769992
0.00729263
0.00690086
0.00649588
0.00607926
0.00574781
0.00551373
0.00525003
0.00503208
0.00486217
0.00473307
0.00463278
0.00454806
0.00446839
0.00438936
0.00430733
0.00423947
0.004193
0.00416796
0.00416209
0.00486802
0.00465561
0.00446896
0.00430495
0.00416067
0.00403366
0.00392209
0.00382477
0.00374186
0.00367559
0.00363191
0.00361865
0.00363541
0.00366487
0.00371458
0.00377281
0.00381396
0.00380808
0.00374423
0.00364128
0.00349929
0.00344433
0.00344997
0.00349553
0.00356757
0.00274753
0.00273739
0.00273874
0.00275168
0.00277556
0.00281085
0.0028582
0.00291687
0.00299025
0.00308544
0.00321632
0.00339153
0.00358179
0.00361315
0.00376069
0.00393723
0.0040476
0.00393548
0.00361907
0.00329894
0.00290177
0.00310623
0.00302025
0.00303993
0.00309142
0.00313525
0.00266245
0.00276549
0.00287301
0.00298394
0.00309781
0.00321494
0.00333727
0.00347224
0.0036338
0.00385465
0.00411546
0.00416389
0.00437956
0.00457455
0.00441558
0.00389247
0.00284734
0.00243197
0.00240998
0.00267252
0.0029227
0.00363139
0.00419652
0.00499028
0.00624446
0.00351184
0.00365982
0.00380907
0.0039596
0.00411165
0.00426766
0.00443809
0.0046453
0.00492148
0.00496126
0.004006
0.0044106
0.00462776
0.0040587
0.00185275
0.0016581
0.00134092
0.00258905
0.00501672
0.00775692
0.00958186
0.00974973
0.00998985
0.01087
0.00458746
0.0047805
0.00496885
0.00515311
0.00533243
0.00550832
0.00568613
0.00588174
0.0047973
0.00531046
0.00287091
0.00320222
0.00189472
0.00174722
0.000648207
0.000955606
0.00182262
0.00626091
0.00793875
0.00917676
0.00888361
0.00882756
0.00905055
0.00932111
0.0062422
0.00641936
0.00658984
0.00663019
0.00631811
0.00579257
0.00500952
0.00406162
0.00615767
0.00292693
0.00363597
0.00133691
0.000317154
0.00254206
0.00805841
0.00735513
0.00698428
0.00689234
0.00730119
0.00767189
0.00580779
0.00710066
0.00663464
0.00648717
0.00665152
0.00692335
0.00706404
0.00206992
0.00276643
0.00340133
0.00409877
0.00522905
0.00352294
0.00331217
0.00334929
0.00343122
0.00593287
0.0056167
0.00533197
0.00508868
0.0048897
0.00473722
0.00462412
0.00453923
0.00447129
0.00441146
0.00435513
0.00429543
0.00424484
0.00421015
0.00419213
0.00418982
0.00421053
0.00907673
0.00841496
0.00795949
0.00770725
0.0076399
0.00757224
0.00723635
0.00696255
0.00674012
0.00656088
0.00641943
0.00631213
0.00623904
0.00619944
0.00620179
0.00625459
0.0063361
0.00643541
0.0138643
0.0126694
0.0118312
0.0113403
0.011164
0.0112414
0.0114477
0.0112685
0.0109298
0.0106588
0.0104546
0.010317
0.0102459
0.0102597
0.0103286
0.0104174
0.0105239
0.0106462
0.017975
0.0177595
0.0166691
0.0158694
0.0155212
0.0155529
0.0158474
0.0159196
0.0156712
0.015472
0.0153295
0.015249
0.0152452
0.0152675
0.0153019
0.0153472
0.0154018
0.0154645
0.0189905
0.0189409
0.0188818
0.0188115
0.0187306
0.0186419
0.0185507
0.0184632
0.018386
0.0183254
0.0182861
0.0182737
0.0182703
0.0182692
0.0182702
0.0182731
0.0182778
0.0182842
0.0192659
0.0192566
0.0192477
0.0192389
0.0192294
0.0192192
0.0192086
0.0191984
0.0191899
0.0191845
0.0191831
0.0191838
0.0191831
0.019181
0.0191774
0.0191724
0.0191663
0.0191593
0.0192607
0.0192586
0.0192581
0.0192588
0.0192603
0.0192624
0.0192646
0.0192668
0.0192689
0.019271
0.0192728
0.0192734
0.0192724
0.01927
0.0192659
0.0192604
0.0192536
0.0192458
0.0191515
0.0191497
0.0191491
0.0191493
0.0191501
0.0191513
0.0191525
0.0191535
0.0191541
0.0191541
0.0191532
0.0191515
0.0191487
0.0191449
0.01914
0.0191341
0.0191273
0.0191198
0.0190214
0.0190182
0.0190157
0.0190138
0.0190122
0.0190108
0.0190093
0.0190075
0.0190054
0.0190027
0.0189995
0.0189956
0.0189912
0.0189862
0.0189806
0.0189744
0.0189677
0.0189605
0.0189079
0.0189028
0.0188981
0.0188938
0.0188898
0.0188858
0.0188818
0.0188776
0.0188731
0.0188682
0.018863
0.0188575
0.0188517
0.0188456
0.0188392
0.0188325
0.0188255
0.0188184
0.0188208
0.0188139
0.0188073
0.0188009
0.0187947
0.0187886
0.0187824
0.0187762
0.0187697
0.018763
0.0187562
0.0187492
0.0187421
0.0187349
0.0187276
0.0187201
0.0187126
0.0187051
0.0187578
0.0187494
0.0187412
0.0187332
0.0187253
0.0187175
0.0187096
0.0187017
0.0186936
0.0186855
0.0186772
0.0186689
0.0186606
0.0186523
0.018644
0.0186357
0.0186275
0.0186193
0.0187133
0.0187037
0.0186943
0.0186851
0.0186758
0.0186667
0.0186575
0.0186482
0.0186389
0.0186295
0.0186201
0.0186107
0.0186013
0.018592
0.0185827
0.0185736
0.0185645
0.0185556
0.0186819
0.0186715
0.0186612
0.0186509
0.0186407
0.0186305
0.0186203
0.01861
0.0185997
0.0185893
0.0185789
0.0185686
0.0185583
0.018548
0.0185379
0.018528
0.0185182
0.0185085
0.0186597
0.0186486
0.0186376
0.0186266
0.0186156
0.0186046
0.0185936
0.0185825
0.0185714
0.0185602
0.018549
0.0185379
0.0185269
0.0185159
0.0185051
0.0184944
0.0184839
0.0184736
0.0186438
0.0186322
0.0186206
0.0186091
0.0185975
0.0185859
0.0185743
0.0185626
0.0185508
0.018539
0.0185272
0.0185154
0.0185038
0.0184922
0.0184807
0.0184695
0.0184584
0.0184475
0.0186323
0.0186203
0.0186084
0.0185964
0.0185844
0.0185723
0.0185602
0.018548
0.0185357
0.0185234
0.0185111
0.0184988
0.0184866
0.0184746
0.0184626
0.0184509
0.0184393
0.018428
0.018624
0.0186117
0.0185995
0.0185872
0.0185748
0.0185624
0.0185498
0.0185373
0.0185246
0.0185119
0.0184992
0.0184866
0.018474
0.0184615
0.0184492
0.018437
0.0184251
0.0184134
0.018618
0.0186056
0.0185931
0.0185805
0.0185679
0.0185552
0.0185424
0.0185295
0.0185166
0.0185036
0.0184906
0.0184777
0.0184648
0.018452
0.0184394
0.0184269
0.0184147
0.0184027
0.018614
0.0186014
0.0185887
0.018576
0.0185632
0.0185502
0.0185373
0.0185242
0.018511
0.0184978
0.0184847
0.0184715
0.0184584
0.0184454
0.0184325
0.0184199
0.0184074
0.0183952
0.0186114
0.0185987
0.0185859
0.0185731
0.0185602
0.0185471
0.018534
0.0185208
0.0185075
0.0184942
0.0184809
0.0184676
0.0184543
0.0184412
0.0184282
0.0184154
0.0184028
0.0183904
0.0186102
0.0185974
0.0185846
0.0185717
0.0185587
0.0185456
0.0185324
0.0185192
0.0185058
0.0184925
0.0184791
0.0184657
0.0184524
0.0184392
0.0184262
0.0184133
0.0184006
0.0183882
0.0187246
0.0187112
0.018698
0.018685
0.018672
0.0186592
0.0186464
0.0186337
0.018621
0.0186084
0.0185957
0.0185829
0.0185701
0.0185572
0.0185442
0.018531
0.0185178
0.0185045
0.0184912
0.0184778
0.0184645
0.0184512
0.0184379
0.0184248
0.0187256
0.0187123
0.0186991
0.018686
0.0186731
0.0186603
0.0186476
0.0186349
0.0186223
0.0186096
0.018597
0.0185843
0.0185715
0.0185587
0.0185457
0.0185327
0.0185195
0.0185063
0.018493
0.0184797
0.0184664
0.0184531
0.01844
0.0184269
0.0187278
0.0187145
0.0187013
0.0186883
0.0186754
0.0186626
0.0186499
0.0186373
0.0186248
0.0186123
0.0185997
0.0185871
0.0185745
0.0185617
0.0185489
0.018536
0.0185229
0.0185098
0.0184967
0.0184835
0.0184704
0.0184573
0.0184442
0.0184314
0.0187314
0.018718
0.0187049
0.0186919
0.018679
0.0186663
0.0186538
0.0186413
0.0186289
0.0186165
0.0186041
0.0185917
0.0185792
0.0185666
0.018554
0.0185413
0.0185285
0.0185156
0.0185027
0.0184897
0.0184768
0.0184639
0.0184511
0.0184384
0.0187366
0.0187233
0.0187101
0.0186972
0.0186844
0.0186718
0.0186594
0.0186471
0.0186348
0.0186227
0.0186105
0.0185983
0.0185861
0.0185738
0.0185614
0.018549
0.0185365
0.0185239
0.0185113
0.0184986
0.018486
0.0184734
0.0184609
0.0184486
0.0187439
0.0187306
0.0187175
0.0187046
0.018692
0.0186795
0.0186673
0.0186551
0.0186431
0.0186312
0.0186194
0.0186075
0.0185956
0.0185837
0.0185717
0.0185596
0.0185475
0.0185353
0.0185231
0.0185108
0.0184986
0.0184864
0.0184744
0.0184624
0.0187538
0.0187405
0.0187275
0.0187148
0.0187023
0.0186901
0.018678
0.0186662
0.0186545
0.0186429
0.0186314
0.01862
0.0186086
0.0185971
0.0185856
0.018574
0.0185624
0.0185507
0.018539
0.0185272
0.0185155
0.0185039
0.0184923
0.0184809
0.0187673
0.0187542
0.0187413
0.0187288
0.0187165
0.0187045
0.0186928
0.0186813
0.01867
0.0186589
0.018648
0.018637
0.0186262
0.0186153
0.0186044
0.0185934
0.0185825
0.0185714
0.0185603
0.0185493
0.0185382
0.0185272
0.0185163
0.0185055
0.0187862
0.0187732
0.0187606
0.0187483
0.0187363
0.0187247
0.0187134
0.0187024
0.0186917
0.0186812
0.0186708
0.0186606
0.0186505
0.0186404
0.0186303
0.0186201
0.0186099
0.0185997
0.0185894
0.0185792
0.0185689
0.0185587
0.0185485
0.0185385
0.0188128
0.0188001
0.0187878
0.0187759
0.0187644
0.0187533
0.0187425
0.0187322
0.0187222
0.0187125
0.018703
0.0186937
0.0186845
0.0186754
0.0186663
0.0186572
0.0186481
0.0186389
0.0186296
0.0186203
0.0186111
0.0186018
0.0185926
0.0185835
0.0188507
0.0188384
0.0188266
0.0188153
0.0188044
0.018794
0.0187841
0.0187746
0.0187656
0.0187569
0.0187486
0.0187405
0.0187326
0.0187248
0.018717
0.0187093
0.0187015
0.0186936
0.0186856
0.0186775
0.0186694
0.0186613
0.0186532
0.0186451
0.0189049
0.0188932
0.0188822
0.0188716
0.0188617
0.0188522
0.0188434
0.0188351
0.0188273
0.01882
0.0188131
0.0188066
0.0188003
0.0187942
0.0187882
0.0187822
0.0187761
0.0187698
0.0187634
0.0187569
0.0187502
0.0187434
0.0187366
0.0187296
0.0189817
0.0189709
0.0189607
0.0189512
0.0189423
0.018934
0.0189264
0.0189195
0.0189133
0.0189076
0.0189026
0.0188981
0.0188939
0.0188899
0.0188861
0.0188822
0.0188783
0.018874
0.0188696
0.0188648
0.0188598
0.0188546
0.0188491
0.0188434
0.0190868
0.0190768
0.0190675
0.0190588
0.0190509
0.0190437
0.0190374
0.0190319
0.0190272
0.0190234
0.0190203
0.019018
0.0190162
0.0190147
0.0190134
0.0190122
0.0190108
0.019009
0.0190069
0.0190044
0.0190014
0.0189979
0.018994
0.0189896
0.0192186
0.0192087
0.0191995
0.0191911
0.0191834
0.0191767
0.0191709
0.0191661
0.0191624
0.0191599
0.0191585
0.0191581
0.0191586
0.0191596
0.0191611
0.0191627
0.0191642
0.0191655
0.0191664
0.0191667
0.0191663
0.0191652
0.0191633
0.0191604
0.0193537
0.0193426
0.0193321
0.0193223
0.0193134
0.0193053
0.0192984
0.0192927
0.0192884
0.0192857
0.0192845
0.0192848
0.0192865
0.0192892
0.0192927
0.0192966
0.0193008
0.0193051
0.0193094
0.0193136
0.0193169
0.0193192
0.0193201
0.0193196
0.0194298
0.0194157
0.019402
0.0193889
0.0193763
0.0193646
0.0193538
0.0193442
0.019336
0.0193295
0.0193246
0.0193213
0.0193193
0.0193181
0.0193175
0.0193174
0.0193181
0.0193201
0.0193242
0.0193306
0.0193373
0.0193429
0.0193468
0.0193489
0.0193407
0.019322
0.0193029
0.0192834
0.0192636
0.0192434
0.0192228
0.0192018
0.0191802
0.0191575
0.0191331
0.019106
0.019075
0.0190399
0.0190014
0.0189617
0.0189238
0.0188912
0.0188678
0.0188568
0.0188588
0.0188615
0.0188644
0.0188672
0.0189305
0.0189028
0.0188722
0.0188382
0.0188001
0.0187566
0.0187065
0.0186474
0.0185764
0.0184894
0.0183817
0.0181783
0.0172234
0.0166805
0.0164821
0.0165136
0.0166566
0.016836
0.0170408
0.0169658
0.016928
0.0169166
0.0169146
0.0169214
0.0169364
0.0179274
0.0178749
0.0178105
0.0177318
0.0176354
0.0175167
0.0173695
0.0171861
0.0169565
0.0158104
0.0145323
0.0135638
0.0129343
0.0126362
0.0126129
0.0127574
0.0129562
0.0131456
0.0130895
0.0129061
0.0127956
0.0127725
0.0127717
0.0127939
0.0128372
0.015822
0.015672
0.0154891
0.0152704
0.0150113
0.0147064
0.0141221
0.0130178
0.0119419
0.0109711
0.0101683
0.00957201
0.00922467
0.0090676
0.00905373
0.00911714
0.00906122
0.00877419
0.00854287
0.00836704
0.00824679
0.00818228
0.00818334
0.00820927
0.00825941
0.0115276
0.0112087
0.0108713
0.010519
0.0101527
0.00960684
0.00894148
0.00825989
0.0076091
0.00703521
0.00657701
0.0064085
0.00637928
0.00638379
0.00618394
0.00597875
0.00580595
0.00565672
0.00552808
0.00542175
0.00533977
0.00528315
0.00525968
0.00527673
0.00531335
0.00585349
0.00569477
0.00554465
0.00540362
0.00527121
0.00514644
0.00502671
0.00491082
0.00473057
0.00444577
0.00425563
0.00427466
0.00408148
0.00440454
0.00452282
0.00447706
0.00440442
0.00431042
0.00420428
0.00410009
0.00400649
0.00392202
0.00389153
0.00390234
0.00394753
0.00311188
0.00312366
0.00314346
0.00317175
0.00320922
0.00325737
0.00331903
0.00339866
0.00350484
0.00365313
0.00377416
0.00360934
0.00411229
0.00412629
0.00431137
0.00416841
0.00393336
0.00367358
0.00340939
0.00316913
0.0029941
0.00276913
0.00300256
0.00326541
0.00346377
0.00336447
0.00287051
0.00300366
0.00314262
0.00328694
0.00343825
0.00360071
0.0037792
0.00399013
0.00426195
0.0044028
0.00464112
0.00355696
0.0046859
0.00390254
0.00287738
0.00268678
0.00233692
0.0018994
0.00192356
0.00222878
0.00294711
0.00455222
0.00526983
0.00570102
0.00608009
0.0040578
0.0042673
0.00446523
0.00465417
0.00483896
0.00502902
0.00524927
0.0052071
0.00551403
0.0039836
0.00344891
0.00401772
0.0016395
0.0013992
0.000636548
0.000462462
0.000920515
0.0010002
0.00221916
0.00524192
0.00596906
0.0107665
0.00767892
0.00870403
0.00504482
0.00518373
0.00529024
0.00534788
0.00533069
0.00520793
0.00483697
0.00400773
0.00584616
0.00294636
0.00366276
0.00117292
0.0016084
0.00806087
0.00861775
0.00927622
0.00913943
0.00981036
0.00576609
0.00586433
0.00588283
0.00579017
0.00555338
0.00507885
0.00424469
0.00488359
0.00299983
0.00293166
0.000411977
0.00026222
0.00585416
0.0046817
0.00537122
0.00597499
0.00647722
0.000173485
0.0022761
0.00512696
0.00479357
0.00543295
0.0060693
0.00625476
0.00261727
0.003303
0.00462019
0.0054739
0.00630234
0.00446833
0.00459051
0.004236
0.00421216
0.00682766
0.00644553
0.0062689
0.00620672
0.00619543
0.00597703
0.00580146
0.00565669
0.00553514
0.00543401
0.00535489
0.00529922
0.00526576
0.00527109
0.00529982
0.00534554
0.00540762
0.0107516
0.00996794
0.00939869
0.00909713
0.00901021
0.00909045
0.00909743
0.00879049
0.00854352
0.00835222
0.00821541
0.00813252
0.00811621
0.0081352
0.00817826
0.00824415
0.00833067
0.00843587
0.0155713
0.0143236
0.0133912
0.0128121
0.0125905
0.0126775
0.0129657
0.0133155
0.0130804
0.0128691
0.0127286
0.0126651
0.0126591
0.0126763
0.0127156
0.0127743
0.01285
0.01294
0.0183631
0.018239
0.0179383
0.017032
0.0165612
0.0164664
0.0166375
0.0169461
0.0170034
0.0168966
0.0168336
0.0168188
0.0168144
0.0168199
0.0168342
0.0168562
0.0168848
0.016919
0.0191102
0.0190812
0.019049
0.0190127
0.0189725
0.01893
0.0188876
0.018849
0.018818
0.0187983
0.018793
0.0187949
0.0187981
0.0188019
0.018806
0.01881
0.0188141
0.0188182
0.0193115
0.0193058
0.0193015
0.0192985
0.0192963
0.0192949
0.0192941
0.0192944
0.0192964
0.0193006
0.0193074
0.0193132
0.0193179
0.0193211
0.0193226
0.0193223
0.0193205
0.0193174
0.0192799
0.0192786
0.0192789
0.0192806
0.0192833
0.0192867
0.0192906
0.0192947
0.019299
0.0193032
0.019307
0.0193098
0.0193114
0.0193118
0.0193107
0.0193082
0.0193044
0.0192994
0.0191595
0.0191581
0.0191578
0.0191583
0.0191595
0.0191611
0.0191628
0.0191643
0.0191655
0.0191663
0.0191664
0.0191659
0.0191645
0.0191622
0.019159
0.0191549
0.0191499
0.0191442
0.0190251
0.0190221
0.0190198
0.0190181
0.0190167
0.0190156
0.0190143
0.0190129
0.0190112
0.019009
0.0190064
0.0190033
0.0189998
0.0189957
0.0189911
0.0189859
0.0189803
0.0189742
0.0189101
0.0189051
0.0189006
0.0188965
0.0188926
0.0188889
0.018885
0.0188811
0.0188769
0.0188723
0.0188676
0.0188626
0.0188573
0.0188517
0.0188459
0.0188399
0.0188336
0.0188271
0.0188227
0.0188158
0.0188094
0.0188031
0.0187971
0.0187911
0.0187851
0.018779
0.0187728
0.0187663
0.0187598
0.0187531
0.0187464
0.0187395
0.0187325
0.0187255
0.0187184
0.0187113
0.0187597
0.0187514
0.0187433
0.0187354
0.0187276
0.0187199
0.0187121
0.0187043
0.0186965
0.0186885
0.0186804
0.0186723
0.0186642
0.0186561
0.0186481
0.01864
0.018632
0.0186241
0.0187152
0.0187057
0.0186964
0.0186873
0.0186782
0.0186691
0.01866
0.0186508
0.0186416
0.0186324
0.0186231
0.0186138
0.0186046
0.0185954
0.0185863
0.0185773
0.0185684
0.0185597
0.0186839
0.0186735
0.0186633
0.0186531
0.018643
0.0186329
0.0186227
0.0186126
0.0186023
0.018592
0.0185817
0.0185715
0.0185613
0.0185512
0.0185412
0.0185313
0.0185216
0.0185121
0.0186616
0.0186505
0.0186396
0.0186287
0.0186178
0.0186069
0.0185959
0.0185849
0.0185738
0.0185627
0.0185517
0.0185406
0.0185296
0.0185187
0.0185079
0.0184973
0.0184869
0.0184767
0.0186454
0.0186339
0.0186224
0.018611
0.0185995
0.0185879
0.0185763
0.0185647
0.0185529
0.0185412
0.0185294
0.0185177
0.0185061
0.0184946
0.0184832
0.0184719
0.0184609
0.0184501
0.0186336
0.0186217
0.0186098
0.0185979
0.0185859
0.0185739
0.0185618
0.0185496
0.0185374
0.0185251
0.0185129
0.0185006
0.0184885
0.0184764
0.0184645
0.0184527
0.0184412
0.0184299
0.0186249
0.0186127
0.0186005
0.0185882
0.0185759
0.0185635
0.018551
0.0185384
0.0185258
0.0185131
0.0185005
0.0184878
0.0184753
0.0184628
0.0184505
0.0184383
0.0184263
0.0184146
0.0186187
0.0186062
0.0185937
0.0185812
0.0185686
0.0185559
0.0185431
0.0185303
0.0185173
0.0185044
0.0184914
0.0184785
0.0184656
0.0184528
0.0184401
0.0184277
0.0184154
0.0184034
0.0186143
0.0186017
0.0185891
0.0185764
0.0185636
0.0185507
0.0185377
0.0185246
0.0185115
0.0184983
0.0184851
0.0184719
0.0184588
0.0184458
0.0184329
0.0184202
0.0184077
0.0183955
0.0186117
0.018599
0.0185862
0.0185734
0.0185604
0.0185474
0.0185343
0.0185211
0.0185078
0.0184945
0.0184811
0.0184678
0.0184546
0.0184414
0.0184284
0.0184155
0.0184029
0.0183905
0.0186104
0.0185976
0.0185848
0.0185719
0.0185589
0.0185458
0.0185327
0.0185194
0.018506
0.0184926
0.0184792
0.0184659
0.0184526
0.0184393
0.0184263
0.0184134
0.0184007
0.0183882
0.0187247
0.0187114
0.0186982
0.0186852
0.0186723
0.0186595
0.0186467
0.0186341
0.0186214
0.0186088
0.0185961
0.0185833
0.0185705
0.0185576
0.0185446
0.0185315
0.0185183
0.018505
0.0184917
0.0184783
0.0184649
0.0184516
0.0184383
0.0184252
0.0187259
0.0187126
0.0186994
0.0186864
0.0186735
0.0186607
0.018648
0.0186354
0.0186228
0.0186102
0.0185976
0.0185849
0.0185721
0.0185593
0.0185464
0.0185333
0.0185202
0.0185069
0.0184936
0.0184803
0.018467
0.0184537
0.0184406
0.0184275
0.0187284
0.0187151
0.018702
0.018689
0.0186761
0.0186634
0.0186508
0.0186382
0.0186257
0.0186132
0.0186007
0.0185882
0.0185755
0.0185628
0.01855
0.0185371
0.0185241
0.018511
0.0184979
0.0184847
0.0184715
0.0184584
0.0184454
0.0184325
0.0187325
0.0187192
0.0187061
0.0186932
0.0186804
0.0186678
0.0186553
0.0186429
0.0186305
0.0186182
0.0186059
0.0185935
0.0185811
0.0185686
0.018556
0.0185433
0.0185305
0.0185177
0.0185047
0.0184918
0.0184789
0.018466
0.0184532
0.0184406
0.0187386
0.0187254
0.0187124
0.0186995
0.0186869
0.0186744
0.018662
0.0186498
0.0186376
0.0186255
0.0186135
0.0186014
0.0185892
0.018577
0.0185647
0.0185523
0.0185399
0.0185273
0.0185148
0.0185022
0.0184896
0.0184771
0.0184646
0.0184523
0.018747
0.0187338
0.0187208
0.0187081
0.0186956
0.0186833
0.0186711
0.0186591
0.0186473
0.0186355
0.0186237
0.018612
0.0186002
0.0185884
0.0185765
0.0185645
0.0185525
0.0185404
0.0185283
0.0185161
0.018504
0.0184919
0.0184799
0.0184681
0.0187578
0.0187447
0.0187319
0.0187193
0.018707
0.0186949
0.018683
0.0186713
0.0186598
0.0186484
0.0186371
0.0186258
0.0186145
0.0186032
0.0185918
0.0185804
0.0185689
0.0185573
0.0185458
0.0185342
0.0185226
0.0185111
0.0184996
0.0184883
0.0187719
0.0187589
0.0187463
0.0187339
0.0187218
0.0187101
0.0186985
0.0186872
0.0186762
0.0186653
0.0186545
0.0186437
0.0186331
0.0186224
0.0186116
0.0186009
0.0185901
0.0185792
0.0185683
0.0185574
0.0185465
0.0185357
0.018525
0.0185144
0.0187909
0.0187781
0.0187657
0.0187537
0.0187419
0.0187306
0.0187195
0.0187087
0.0186982
0.018688
0.0186778
0.0186679
0.0186579
0.018648
0.0186382
0.0186282
0.0186183
0.0186083
0.0185983
0.0185882
0.0185782
0.0185682
0.0185583
0.0185486
0.0188173
0.0188049
0.0187929
0.0187812
0.01877
0.0187592
0.0187487
0.0187387
0.0187289
0.0187195
0.0187102
0.0187012
0.0186923
0.0186834
0.0186746
0.0186658
0.0186569
0.018648
0.018639
0.0186301
0.0186211
0.0186121
0.0186033
0.0185945
0.0188549
0.0188429
0.0188315
0.0188205
0.0188099
0.0187999
0.0187903
0.0187811
0.0187724
0.018764
0.018756
0.0187482
0.0187406
0.0187331
0.0187257
0.0187182
0.0187108
0.0187032
0.0186956
0.0186879
0.0186803
0.0186726
0.0186649
0.0186573
0.0189086
0.0188974
0.0188868
0.0188766
0.0188671
0.018858
0.0188496
0.0188417
0.0188343
0.0188273
0.0188208
0.0188147
0.0188088
0.0188031
0.0187974
0.0187918
0.0187861
0.0187803
0.0187744
0.0187683
0.0187623
0.0187561
0.0187499
0.0187437
0.0189852
0.0189749
0.0189653
0.0189563
0.0189479
0.0189402
0.0189332
0.0189268
0.018921
0.0189159
0.0189113
0.0189073
0.0189035
0.0189001
0.0188967
0.0188933
0.0188899
0.0188863
0.0188824
0.0188784
0.0188743
0.0188699
0.0188654
0.0188607
0.0190909
0.0190817
0.0190732
0.0190654
0.0190582
0.0190519
0.0190463
0.0190415
0.0190376
0.0190344
0.0190321
0.0190303
0.0190292
0.0190283
0.0190277
0.0190271
0.0190264
0.0190255
0.0190243
0.0190228
0.019021
0.019019
0.0190165
0.0190137
0.0192262
0.0192176
0.0192098
0.0192027
0.0191963
0.0191909
0.0191863
0.0191828
0.0191803
0.0191788
0.0191784
0.019179
0.0191803
0.0191823
0.0191847
0.0191872
0.0191898
0.0191922
0.0191943
0.0191962
0.0191977
0.0191987
0.019199
0.0191985
0.0193723
0.0193634
0.0193553
0.0193478
0.0193411
0.0193354
0.0193306
0.019327
0.0193246
0.0193236
0.0193241
0.0193261
0.0193293
0.0193336
0.0193387
0.0193443
0.0193504
0.0193568
0.0193635
0.0193701
0.0193763
0.0193818
0.0193864
0.0193898
0.0194745
0.0194644
0.0194548
0.0194457
0.0194371
0.0194291
0.0194221
0.019416
0.0194113
0.0194081
0.0194066
0.0194069
0.019409
0.0194127
0.0194178
0.0194242
0.019432
0.0194415
0.0194529
0.0194654
0.0194778
0.0194897
0.0195004
0.0195096
0.019433
0.0194212
0.0194089
0.0193962
0.0193831
0.0193698
0.0193562
0.0193427
0.0193293
0.0193163
0.0193038
0.0192919
0.0192809
0.0192709
0.0192623
0.0192559
0.0192529
0.0192551
0.019264
0.0192789
0.0192951
0.0193118
0.0193279
0.0193429
0.019073
0.0190592
0.0190429
0.0190242
0.0190028
0.0189782
0.01895
0.0189173
0.0188793
0.018835
0.0187834
0.0187239
0.0186573
0.0183895
0.0179735
0.0177877
0.0176854
0.0175416
0.0173259
0.0170886
0.0169301
0.0169606
0.0172661
0.0178491
0.018329
0.0181047
0.018091
0.0180702
0.0180414
0.0180036
0.0179545
0.0178914
0.0178105
0.0177062
0.0175727
0.0168321
0.0158228
0.0150061
0.0144811
0.0142821
0.0143354
0.0144706
0.0145294
0.0144444
0.0142274
0.0139868
0.0139026
0.0140942
0.0145631
0.0152127
0.0160488
0.016041
0.0160182
0.0159737
0.0159047
0.015806
0.0155265
0.0148304
0.0140786
0.0133191
0.0126061
0.0119867
0.0114614
0.0111086
0.0110306
0.0112088
0.0114731
0.0116694
0.0115337
0.0114115
0.0111443
0.0109114
0.010979
0.0112376
0.0112724
0.0116089
0.0116756
0.0116686
0.0115811
0.0114124
0.0111597
0.0108127
0.0103613
0.0098515
0.0093523
0.00893373
0.00859484
0.0083799
0.00821533
0.0081809
0.00811617
0.00789512
0.00770976
0.00756241
0.00746248
0.00740437
0.0073768
0.00737658
0.00740323
0.00745482
0.00702418
0.0070095
0.00698106
0.00694018
0.00689316
0.00684639
0.00675357
0.00644192
0.00608954
0.00579133
0.00555125
0.00511232
0.00537183
0.00564158
0.00558783
0.00550221
0.00542155
0.00534009
0.00526426
0.00520961
0.00519394
0.00520025
0.00521809
0.00525045
0.00530147
0.00383693
0.00387122
0.00390491
0.00393892
0.00397332
0.00400721
0.00404442
0.00410018
0.00416924
0.00426303
0.00389373
0.00439738
0.00381433
0.0037308
0.00408311
0.00436255
0.00423138
0.00407554
0.00391605
0.00378816
0.00371011
0.00363144
0.00356133
0.00366412
0.00380488
0.00398286
0.00296415
0.00305563
0.00315089
0.00325036
0.00335508
0.00346725
0.00359157
0.00375393
0.00400574
0.00408713
0.00288575
0.00290086
0.00320249
0.00317488
0.00272237
0.00242552
0.00221535
0.0020671
0.00198818
0.00194229
0.00203857
0.00255826
0.00340006
0.00415552
0.00503201
0.00364253
0.00377925
0.00391704
0.00406049
0.00421619
0.00439648
0.00461947
0.00466272
0.00334191
0.00258683
0.00252471
0.00114844
0.000112837
0.000753139
0.00182837
0.00429229
0.00795778
0.010431
0.0103484
0.00572117
0.00581797
0.00589082
0.00594365
0.00598977
0.00605323
0.00613695
0.00509397
0.00349524
0.00280305
0.00108536
0.000749389
0.0042254
0.00576871
0.00717809
0.0100063
0.00670443
0.00683969
0.00698601
0.00715289
0.00735112
0.00669142
0.00573118
0.00327363
0.00234265
0.00035015
0.00139549
0.00329958
0.00467424
0.00539378
0.0012053
0.00274187
0.00325459
0.00471529
0.00510483
0.00292093
0.00414775
0.00459765
0.00529584
0.00374233
0.00411612
0.00432079
0.00460173
0.00637445
0.00617381
0.00606733
0.00603155
0.00913237
0.00868436
0.00834854
0.00818934
0.0081198
0.00807616
0.00784274
0.00765442
0.00750345
0.00739167
0.00732594
0.00729379
0.0072925
0.00731795
0.00736704
0.00743749
0.00752755
0.0131199
0.0123883
0.011769
0.011282
0.0110054
0.0110283
0.0113277
0.0116732
0.0114611
0.011311
0.0112136
0.0111084
0.0107137
0.0106365
0.0108453
0.0111957
0.0112739
0.0113732
0.0173777
0.0166087
0.0155934
0.0148029
0.0143386
0.0142316
0.0144045
0.0146686
0.0148211
0.0147534
0.0144752
0.0141218
0.0139069
0.013985
0.0143667
0.0149527
0.0155236
0.0155881
0.0187481
0.0186887
0.018621
0.0185466
0.0181471