/*--------------------------------*- C++ -*----------------------------------*\
  =========                 |
  \\      /  F ield         | OpenFOAM: The Open Source CFD Toolbox
   \\    /   O peration     | Website:  https://openfoam.org
    \\  /    A nd           | Version:  13
     \\/     M anipulation  |
\*---------------------------------------------------------------------------*/
FoamFile
{
    format      ascii;
    class       volScalarField;
    location    "300";
    object      omega;
}
// * * * * * * * * * * * * * * * * * * * * * * * * * * * * * * * * * * * * * //

dimensions      [0 0 -1 0 0 0 0];

internalField   nonuniform List<scalar> 
171745
(
16.402
16.3349
16.2686
16.203
16.1381
16.0739
16.0103
15.9474
15.885
15.8232
15.7618
15.701
15.6405
15.5805
15.5208
15.4616
15.4026
15.3441
15.286
15.2282
15.1709
15.114
15.0577
15.0018
16.4027
16.3356
16.2692
16.2036
16.1387
16.0745
16.011
15.9481
15.8858
15.824
15.7627
15.7019
15.6415
15.5815
15.5219
15.4627
15.4038
15.3454
15.2873
15.2296
15.1723
15.1155
15.0592
15.0034
16.4043
16.3372
16.2708
16.2052
16.1404
16.0762
16.0127
15.9498
15.8876
15.8259
15.7647
15.704
15.6437
15.5838
15.5243
15.4652
15.4065
15.3481
15.2901
15.2326
15.1755
15.1188
15.0626
15.0069
16.4069
16.3397
16.2733
16.2077
16.1429
16.0788
16.0153
15.9526
15.8904
15.8288
15.7678
15.7072
15.6471
15.5873
15.528
15.4691
15.4106
15.3524
15.2947
15.2373
15.1804
15.1239
15.0679
15.0125
16.4108
16.3436
16.2772
16.2116
16.1468
16.0827
16.0193
15.9567
15.8946
15.8332
15.7724
15.712
15.6521
15.5926
15.5336
15.4749
15.4166
15.3587
15.3012
15.2441
15.1875
15.1313
15.0756
15.0204
16.4164
16.3492
16.2827
16.2172
16.1524
16.0884
16.0252
15.9626
15.9008
15.8396
15.779
15.7189
15.6593
15.6001
15.5414
15.483
15.4251
15.3676
15.3104
15.2537
15.1974
15.1416
15.0862
15.0314
16.4245
16.3572
16.2908
16.2252
16.1605
16.0967
16.0336
15.9712
15.9096
15.8487
15.7884
15.7286
15.6694
15.6106
15.5523
15.4944
15.4369
15.3798
15.3231
15.2669
15.211
15.1556
15.1007
15.0463
16.4362
16.3688
16.3024
16.2369
16.1723
16.1085
16.0456
15.9835
15.9222
15.8616
15.8017
15.7424
15.6836
15.6254
15.5676
15.5102
15.4533
15.3967
15.3406
15.2849
15.2296
15.1748
15.1204
15.0665
16.4529
16.3855
16.3191
16.2537
16.1892
16.1257
16.063
16.0012
15.9403
15.8801
15.8207
15.7619
15.7037
15.6461
15.589
15.5323
15.476
15.4202
15.3647
15.3097
15.2551
15.2009
15.1471
15.0939
16.477
16.4097
16.3434
16.278
16.2137
16.1504
16.0881
16.0268
15.9663
15.9067
15.8479
15.7898
15.7323
15.6755
15.6192
15.5633
15.5079
15.4529
15.3982
15.344
15.2901
15.2367
15.1837
15.1311
16.512
16.4447
16.3785
16.3134
16.2494
16.1864
16.1245
16.0637
16.0038
15.9449
15.8869
15.8297
15.7732
15.7174
15.6621
15.6073
15.5529
15.4989
15.4452
15.3919
15.3389
15.2863
15.234
15.1822
16.5627
16.4956
16.4296
16.3648
16.3012
16.2387
16.1774
16.1173
16.0582
16.0003
15.9433
15.8873
15.8321
15.7776
15.7236
15.6702
15.6171
15.5643
15.5118
15.4595
15.4075
15.3558
15.3043
15.2531
16.6368
16.5699
16.5043
16.4399
16.3768
16.315
16.2545
16.1954
16.1375
16.0809
16.0255
15.9711
15.9177
15.865
15.813
15.7614
15.7101
15.6589
15.6078
15.5568
15.5058
15.455
15.4042
15.3535
16.7454
16.6789
16.6138
16.55
16.4878
16.427
16.3677
16.3101
16.254
16.1994
16.1464
16.0947
16.0441
15.9944
15.9454
15.8966
15.848
15.7992
15.7501
15.7006
15.6508
15.6009
15.5506
15.5
16.9062
16.8402
16.7759
16.7132
16.6523
16.5932
16.5361
16.481
16.4281
16.3773
16.3287
16.2819
16.2366
16.1925
16.1491
16.1058
16.0622
16.0178
15.9723
15.9252
15.8771
15.8282
15.7782
15.7272
17.1493
17.0844
17.0216
16.9608
16.9025
16.8467
16.7938
16.7441
16.6977
16.6549
16.6156
16.5798
16.5466
16.5154
16.485
16.4545
16.4226
16.3885
16.3512
16.3101
16.2651
16.2176
16.1677
16.1152
17.532
17.4693
17.4097
17.3535
17.301
17.2529
17.21
17.173
17.1428
17.1199
17.105
17.0978
17.0974
17.102
17.1091
17.116
17.1196
17.1172
17.106
17.0835
17.0459
17.0022
16.9521
16.8957
18.167
18.1113
18.061
18.017
17.9807
17.9536
17.9382
17.937
17.9534
17.9903
18.0505
18.1343
18.2401
18.3637
18.4976
18.6331
18.7608
18.8712
18.9546
19.0024
19.0076
18.9665
18.908
18.8329
19.2913
19.261
19.2438
19.2428
19.2623
19.3083
19.3884
19.5126
19.6917
19.9366
20.2579
20.6594
21.1359
21.6691
22.2312
22.7918
23.3228
23.7977
24.1904
24.478
24.6404
24.6542
24.528
24.3551
24.1416
21.5242
21.6108
21.7406
21.9239
22.1744
22.5104
22.9546
23.5345
24.2817
25.2266
26.3905
27.7697
29.3198
30.9589
32.5929
34.1441
35.5604
36.8067
37.853
38.6668
39.2146
39.4716
39.399
38.9348
38.3545
27.1265
27.7939
28.594
29.5435
30.6661
31.9936
33.5649
35.4253
37.6181
40.1669
43.0452
46.159
49.3412
52.3871
55.1372
57.5286
59.5711
61.3
62.7427
63.9068
64.7677
65.2709
65.3978
65.1617
64.3566
46.217
48.7434
51.3578
54.043
56.7966
59.6298
62.5635
65.6154
68.7783
72.0042
75.1902
78.1809
80.7891
82.8728
84.4244
85.5935
86.5897
87.6212
88.8383
90.2778
92.0689
93.6257
94.7043
95.2301
95.1909
101.064
103.584
105.482
106.81
107.634
108.03
108.072
107.813
107.293
106.544
105.603
104.524
103.347
102.385
101.643
101.563
102.657
105.443
110.13
116.429
127.525
135.664
141.708
146.11
149.151
163.999
158.16
152.184
146.275
140.52
135.011
129.786
124.736
119.897
115.363
111.363
108.172
106.111
104.862
103.411
103.801
107.618
119.106
139.693
166.653
243.75
253.048
262.21
269.943
277.736
288.037
163.035
153.623
145.261
137.731
130.868
124.542
118.672
113.336
108.718
105.499
104.429
103.472
103.726
108.633
123.683
156.872
249.365
340.134
413.396
437.552
431.405
405.438
393.017
382.636
369.551
136.219
128.954
122.582
116.976
112.03
107.709
104.204
101.992
102.246
101.541
104.619
117.533
150.334
180.739
366.566
647.649
802.541
391.088
160.558
130.53
121.459
128.613
139.447
140.672
117.007
112.594
108.79
105.558
102.862
100.788
99.5928
100.05
104.121
104.468
118.029
137.484
205.192
572.48
1149.86
449.531
326.831
152.696
104.509
100.053
103.737
111.672
116.195
118.503
100.006
98.1711
96.7884
95.8821
95.6494
96.4814
99.3388
106.327
106.719
121.477
146.073
350.118
656.62
289.008
110.291
114.991
127.149
141.052
143.766
145.567
121.513
109.743
117.938
137.834
155.436
177.685
169.558
461.471
408.309
382.945
372.134
358.114
249.045
267.008
283.278
300.201
73.5398
76.5504
79.3429
81.7381
83.603
84.9299
85.8591
86.5744
87.26
88.0487
88.9909
90.2421
91.3227
92.0218
92.2742
92.0496
91.1825
41.4999
44.3921
47.4828
50.5995
53.533
56.1207
58.3013
60.094
61.5455
62.6951
63.5637
64.1449
64.4005
64.3223
63.819
62.8172
61.558
60.1697
25.8403
27.0616
28.4877
30.0655
31.7036
33.2986
34.7669
36.0597
37.1517
38.0227
38.6521
39.0193
39.1109
38.8373
38.3185
37.7044
37.0162
36.274
20.1562
20.5052
20.9339
21.4337
21.9817
22.5454
23.0904
23.5852
24.0043
24.3276
24.5373
24.6194
24.5388
24.3875
24.1944
23.9663
23.7101
23.4324
18.0683
18.1376
18.2308
18.3453
18.4756
18.6127
18.7463
18.8658
18.9612
19.0242
19.0479
19.0223
18.9705
18.902
18.8183
18.7213
18.613
18.4957
17.1506
17.1386
17.1344
17.1368
17.1436
17.152
17.1586
17.1602
17.1539
17.1371
17.1077
17.0663
17.0185
16.9645
16.9044
16.8389
16.7688
16.6949
16.6686
16.6305
16.5958
16.5637
16.5333
16.5034
16.4729
16.4405
16.4053
16.3663
16.3225
16.2763
16.2275
16.1762
16.1223
16.0661
16.0078
15.9479
16.3847
16.3366
16.2903
16.2456
16.2019
16.1588
16.1156
16.0719
16.0272
15.9812
15.9336
15.8852
15.8357
15.7851
15.7334
15.6807
15.6271
15.5729
16.2045
16.1518
16.1004
16.0501
16.0007
15.9518
15.9033
15.8547
15.8058
15.7566
15.707
15.6571
15.607
15.5565
15.5056
15.4544
15.403
15.3513
16.0853
16.03
15.9759
15.9226
15.8702
15.8183
15.7668
15.7155
15.6644
15.6133
15.5623
15.5113
15.4604
15.4095
15.3587
15.3079
15.2571
15.2065
16.0045
15.9477
15.8918
15.8367
15.7823
15.7284
15.675
15.622
15.5693
15.5168
15.4646
15.4126
15.3608
15.3093
15.2581
15.2071
15.1563
15.1058
15.9491
15.8911
15.834
15.7776
15.7218
15.6666
15.6119
15.5575
15.5036
15.4499
15.3966
15.3436
15.291
15.2388
15.1869
15.1354
15.0842
15.0334
15.9108
15.852
15.794
15.7366
15.6798
15.6235
15.5677
15.5123
15.4573
15.4027
15.3484
15.2946
15.2412
15.1882
15.1356
15.0834
15.0317
14.9805
15.8842
15.8248
15.766
15.7079
15.6502
15.5931
15.5364
15.4802
15.4243
15.3689
15.3138
15.2592
15.2051
15.1513
15.0981
15.0453
14.993
14.9412
15.8656
15.8057
15.7463
15.6876
15.6293
15.5715
15.5142
15.4572
15.4007
15.3445
15.2888
15.2335
15.1787
15.1243
15.0705
15.0171
14.9643
14.912
15.8525
15.7922
15.7324
15.6732
15.6144
15.5561
15.4981
15.4406
15.3835
15.3268
15.2705
15.2147
15.1593
15.1044
15.05
14.9962
14.9428
14.89
15.8433
15.7826
15.7225
15.6629
15.6037
15.5449
15.4866
15.4286
15.371
15.3139
15.2571
15.2008
15.145
15.0897
15.0349
14.9806
14.9268
14.8736
15.8368
15.7759
15.7155
15.6555
15.596
15.537
15.4783
15.4199
15.362
15.3045
15.2474
15.1907
15.1345
15.0788
15.0237
14.969
14.9149
14.8614
15.8322
15.7711
15.7105
15.6504
15.5906
15.5313
15.4723
15.4137
15.3555
15.2977
15.2404
15.1834
15.127
15.071
15.0155
14.9606
14.9063
14.8525
15.8292
15.768
15.7072
15.6469
15.587
15.5274
15.4683
15.4095
15.3511
15.2931
15.2355
15.1784
15.1217
15.0655
15.0099
14.9547
14.9002
14.8462
15.8273
15.7659
15.7051
15.6446
15.5846
15.5249
15.4657
15.4068
15.3482
15.2901
15.2324
15.1751
15.1183
15.062
15.0062
14.951
14.8963
14.8422
15.8264
15.7651
15.7042
15.6437
15.5836
15.5238
15.4645
15.4055
15.3469
15.2888
15.231
15.1736
15.1168
15.0604
15.0045
14.9492
14.8945
14.8404
16.402
16.3349
16.2686
16.203
16.1381
16.0739
16.0104
15.9474
15.8851
15.8233
15.7619
15.7011
15.6406
15.5806
15.521
15.4617
15.4028
15.3442
15.286
15.2283
15.1709
15.1141
15.0577
15.0018
16.4026
16.3355
16.2692
16.2036
16.1388
16.0746
16.0111
15.9482
15.8859
15.8241
15.7628
15.702
15.6416
15.5816
15.5221
15.4628
15.404
15.3455
15.2874
15.2297
15.1724
15.1156
15.0592
15.0034
16.4043
16.3372
16.2708
16.2052
16.1404
16.0762
16.0127
15.9499
15.8877
15.826
15.7648
15.7041
15.6438
15.5839
15.5244
15.4653
15.4065
15.3482
15.2902
15.2326
15.1755
15.1188
15.0626
15.0069
16.4067
16.3396
16.2732
16.2077
16.1428
16.0787
16.0153
15.9525
15.8904
15.8288
15.7678
15.7072
15.6471
15.5874
15.528
15.4691
15.4106
15.3524
15.2946
15.2372
15.1803
15.1238
15.0678
15.0123
16.4105
16.3433
16.277
16.2114
16.1466
16.0825
16.0192
15.9565
15.8945
15.8331
15.7723
15.7119
15.652
15.5925
15.5334
15.4748
15.4165
15.3586
15.3011
15.244
15.1873
15.1311
15.0753
15.0201
16.416
16.3488
16.2824
16.2168
16.1521
16.0881
16.0249
15.9624
15.9005
15.8393
15.7787
15.7186
15.659
15.5998
15.5411
15.4828
15.4248
15.3673
15.3101
15.2534
15.197
15.1412
15.0858
15.031
16.424
16.3567
16.2903
16.2248
16.1601
16.0962
16.0331
15.9708
15.9092
15.8483
15.788
15.7282
15.669
15.6102
15.5519
15.494
15.4365
15.3794
15.3227
15.2664
15.2105
15.1551
15.1002
15.0458
16.4355
16.3681
16.3017
16.2363
16.1717
16.1079
16.0451
15.983
15.9217
15.8611
15.8012
15.7419
15.6831
15.6248
15.567
15.5097
15.4527
15.3962
15.34
15.2843
15.229
15.1741
15.1198
15.0659
16.452
16.3847
16.3183
16.2529
16.1884
16.1249
16.0623
16.0005
15.9396
15.8795
15.82
15.7613
15.7031
15.6455
15.5883
15.5316
15.4754
15.4195
15.3641
15.309
15.2544
15.2002
15.1465
15.0932
16.4759
16.4086
16.3423
16.277
16.2128
16.1495
16.0872
16.0259
15.9654
15.9058
15.847
15.789
15.7315
15.6747
15.6184
15.5625
15.5071
15.4521
15.3975
15.3433
15.2894
15.236
15.183
15.1305
16.5105
16.4433
16.3771
16.3121
16.2481
16.1852
16.1234
16.0625
16.0027
15.9439
15.8859
15.8287
15.7722
15.7164
15.6611
15.6064
15.552
15.498
15.4444
15.3911
15.3382
15.2857
15.2336
15.1818
16.5609
16.4939
16.428
16.3633
16.2997
16.2373
16.1761
16.116
16.057
15.9991
15.9422
15.8862
15.831
15.7765
15.7226
15.6692
15.6162
15.5635
15.5111
15.4589
15.4071
15.3556
15.3043
15.2533
16.6348
16.568
16.5026
16.4383
16.3754
16.3137
16.2533
16.1942
16.1364
16.0799
16.0245
15.9701
15.9167
15.8641
15.8121
15.7605
15.7093
15.6583
15.6074
15.5566
15.5059
15.4554
15.4051
15.3548
16.7435
16.6773
16.6124
16.5489
16.4868
16.4262
16.3671
16.3096
16.2536
16.1991
16.146
16.0943
16.0437
15.994
15.9448
15.8961
15.8475
15.7988
15.7499
15.7008
15.6516
15.6022
15.5526
15.5028
16.9054
16.8399
16.776
16.7137
16.6531
16.5943
16.5373
16.4824
16.4295
16.3786
16.3297
16.2826
16.237
16.1925
16.1485
16.1047
16.0607
16.016
15.9704
15.9237
15.8763
15.8283
15.7794
15.7296
17.1517
17.0875
17.0253
16.9651
16.9072
16.8517
16.7988
16.7489
16.7021
16.6585
16.6181
16.5805
16.5453
16.5117
16.4788
16.4456
16.4112
16.375
16.3361
16.2938
16.2498
16.2038
16.1556
16.1053
17.5407
17.479
17.4201
17.3643
17.312
17.2636
17.2197
17.1808
17.1477
17.1207
17.1
17.0854
17.0758
17.0696
17.0646
17.0585
17.0494
17.0351
17.014
16.9844
16.9473
16.9054
16.8584
16.8061
18.1876
18.132
18.0811
18.0357
17.9966
17.9651
17.9427
17.9312
17.9326
17.9489
17.9813
18.0299
18.0921
18.1642
18.2406
18.3152
18.3819
18.4351
18.469
18.4783
18.4587
18.4265
18.3812
18.323
19.3386
19.2998
19.2709
19.2537
19.2507
19.2656
19.3032
19.3693
19.4711
19.6148
19.8061
20.0475
20.3338
20.6527
20.9858
21.3136
21.6183
21.883
22.0909
22.2256
22.2709
22.253
22.1982
22.1081
21.9856
21.5494
21.5675
21.6109
21.6853
21.7985
21.962
22.19
22.5006
22.9159
23.4584
24.148
24.99
25.9617
27.0094
28.0668
29.0771
29.9983
30.796
31.4379
31.8929
32.1362
32.1101
31.9878
31.7695
31.4658
26.3733
26.6336
26.9668
27.3869
27.9139
28.5751
29.4061
30.4516
31.7664
33.4041
35.3921
37.6978
40.1975
42.7119
45.0767
47.1977
49.0421
50.5956
51.8363
52.7344
53.2607
53.3906
53.0345
52.4755
51.7338
39.7631
40.9233
42.2122
43.6417
45.2387
47.045
49.117
51.5221
54.3229
57.5531
61.1847
65.0296
68.8133
72.2459
75.1672
77.5783
79.5729
81.2196
82.5219
83.4654
84.0317
84.1463
83.6916
82.5887
81.2513
82.5139
84.3428
86.0685
87.694
89.2434
90.7604
92.2649
93.7986
95.5238
97.4722
99.6278
101.835
103.991
105.774
107.529
109.431
111.46
113.549
115.548
117.342
119.057
121.107
121.858
121.451
119.865
151.633
148.585
145.334
141.975
138.6
135.296
132.153
129.248
126.705
124.745
123.582
123.571
122.558
123.191
127.152
135.149
144.462
153.953
163.398
172.606
182.955
212.236
214.481
215.866
216.581
217.111
179.398
170.11
161.88
154.569
148.1
142.449
137.555
133.63
131.264
130.484
129.914
135.559
154.483
191.299
255.801
263.431
294.713
352.16
357.605
377.111
391.533
414.695
396.232
380.26
367.564
174.833
166.725
159.48
153.056
147.475
142.876
139.81
139.342
136.968
142.341
174.842
228.326
479.74
707.642
1339.28
960.084
869.482
844.933
508.727
342.101
314.407
215.027
262.517
257.396
175.927
168.79
162.745
157.711
153.692
150.806
149.744
153.337
152.329
174.123
216.339
674.477
503.858
147.889
148.819
147.602
151.835
148.375
151.949
147.588
144.077
141.53
140.229
140.998
146.416
148.427
174.113
232.128
1147.7
1591.58
156.417
164.351
175.033
183.518
176.213
1041.71
272.109
143.797
155.749
203.353
233.048
215.685
537.816
417.341
382.508
361.64
336.362
230.639
237.952
245.07
251.705
59.862
63.427
67.1643
70.8059
74.0274
76.6698
78.7326
80.3132
81.4908
82.2955
82.7551
82.9057
82.6722
81.8018
80.6098
79.218
77.6585
34.6632
36.7407
39.1137
41.6446
44.1366
46.4143
48.3792
50.0065
51.3017
52.2606
52.8745
53.135
52.9348
52.4729
51.8301
51.0248
50.0873
49.049
23.94
24.6887
25.5882
26.6083
27.685
28.7428
29.718
30.5656
31.2571
31.7709
32.0866
32.1794
32.088
31.9062
31.6385
31.295
30.8893
30.435
19.7816
19.9947
20.2587
20.566
20.9012
21.2422
21.5665
21.8544
22.0874
22.2516
22.3359
22.328
22.2858
22.2092
22.1
21.962
21.7999
21.6181
18.0107
18.0499
18.1055
18.1744
18.252
18.3315
18.4058
18.4684
18.5128
18.5338
18.5269
18.4988
18.4582
18.4047
18.339
18.2619
18.1751
18.0802
17.146
17.1276
17.1153
17.1079
17.1035
17.0995
17.0934
17.0829
17.066
17.0409
17.0058
16.9661
16.9215
16.8716
16.8166
16.7568
16.6929
16.6253
16.67
16.6305
16.5939
16.5596
16.5268
16.4943
16.4612
16.4265
16.3894
16.3493
16.3061
16.2611
16.214
16.1647
16.1131
16.0595
16.0039
15.9468
16.3849
16.3365
16.2899
16.2447
16.2006
16.1569
16.1133
16.0692
16.0243
15.9784
15.9314
15.8838
15.8354
15.786
15.7358
15.6846
15.6327
15.58
16.2036
16.1509
16.0994
16.0491
15.9996
15.9507
15.9021
15.8535
15.8049
15.7559
15.7068
15.6575
15.608
15.5583
15.5082
15.4579
15.4074
15.3566
16.0839
16.0287
15.9745
15.9213
15.8689
15.817
15.7656
15.7144
15.6634
15.6125
15.5618
15.5112
15.4606
15.4102
15.3598
15.3095
15.2593
15.2091
16.0031
15.9463
15.8904
15.8353
15.7809
15.7271
15.6738
15.6209
15.5682
15.5159
15.4638
15.412
15.3605
15.3092
15.2582
15.2074
15.1569
15.1066
15.9479
15.8899
15.8328
15.7764
15.7207
15.6655
15.6108
15.5565
15.5025
15.4489
15.3957
15.3428
15.2903
15.2382
15.1864
15.135
15.084
15.0333
15.9098
15.8511
15.793
15.7356
15.6788
15.6226
15.5668
15.5114
15.4564
15.4018
15.3476
15.2938
15.2404
15.1874
15.1349
15.0828
15.0311
14.9799
15.8834
15.824
15.7652
15.7071
15.6495
15.5924
15.5357
15.4794
15.4236
15.3681
15.3131
15.2585
15.2043
15.1506
15.0973
15.0446
14.9923
14.9405
15.8649
15.805
15.7457
15.687
15.6287
15.5709
15.5135
15.4566
15.4
15.3439
15.2881
15.2328
15.178
15.1236
15.0698
15.0164
14.9635
14.9112
15.852
15.7917
15.7319
15.6727
15.6139
15.5556
15.4976
15.4401
15.383
15.3263
15.27
15.2141
15.1587
15.1038
15.0494
14.9955
14.9422
14.8893
15.8429
15.7823
15.7222
15.6625
15.6033
15.5446
15.4862
15.4283
15.3707
15.3135
15.2567
15.2004
15.1446
15.0892
15.0344
14.98
14.9263
14.873
15.8366
15.7757
15.7153
15.6554
15.5959
15.5368
15.4781
15.4197
15.3618
15.3043
15.2472
15.1905
15.1343
15.0785
15.0233
14.9687
14.9145
14.861
15.8322
15.7711
15.7105
15.6503
15.5906
15.5312
15.4722
15.4137
15.3555
15.2976
15.2403
15.1833
15.1268
15.0708
15.0153
14.9604
14.906
14.8522
15.8292
15.768
15.7072
15.6469
15.587
15.5274
15.4683
15.4095
15.3511
15.2931
15.2355
15.1783
15.1216
15.0654
15.0097
14.9546
14.9
14.846
15.8273
15.766
15.7051
15.6447
15.5846
15.525
15.4657
15.4068
15.3483
15.2901
15.2324
15.1751
15.1183
15.0619
15.0061
14.9508
14.8961
14.842
15.8265
15.7651
15.7042
15.6437
15.5836
15.5239
15.4646
15.4056
15.347
15.2888
15.231
15.1736
15.1168
15.0604
15.0045
14.9492
14.8944
14.8402
16.402
16.3349
16.2686
16.2031
16.1382
16.0741
16.0105
15.9476
15.8853
15.8235
15.7621
15.7013
15.6408
15.5808
15.5211
15.4619
15.4029
15.3444
15.2862
15.2284
15.171
15.1141
15.0577
15.0018
16.4026
16.3355
16.2693
16.2037
16.1389
16.0747
16.0112
15.9483
15.886
15.8243
15.763
15.7022
15.6418
15.5818
15.5222
15.463
15.4041
15.3456
15.2875
15.2297
15.1724
15.1156
15.0592
15.0033
16.4041
16.3371
16.2708
16.2052
16.1404
16.0762
16.0128
15.9499
15.8877
15.826
15.7648
15.7041
15.6438
15.5839
15.5244
15.4653
15.4065
15.3482
15.2902
15.2326
15.1754
15.1186
15.0624
15.0067
16.4064
16.3393
16.2729
16.2074
16.1426
16.0785
16.0151
15.9523
15.8902
15.8286
15.7676
15.707
15.6469
15.5871
15.5278
15.4689
15.4103
15.3521
15.2943
15.2369
15.1799
15.1234
15.0673
15.0118
16.4097
16.3426
16.2763
16.2107
16.1459
16.0819
16.0186
15.9559
15.8939
15.8325
15.7716
15.7113
15.6513
15.5919
15.5328
15.4741
15.4158
15.3578
15.3003
15.2432
15.1864
15.1302
15.0744
15.0192
16.4147
16.3475
16.2812
16.2156
16.1509
16.0869
16.0237
15.9612
15.8994
15.8382
15.7776
15.7175
15.6578
15.5987
15.5399
15.4815
15.4236
15.366
15.3088
15.252
15.1956
15.1397
15.0843
15.0294
16.4222
16.355
16.2886
16.2231
16.1584
16.0946
16.0315
15.9692
15.9076
15.8467
15.7864
15.7266
15.6673
15.6085
15.5502
15.4923
15.4347
15.3776
15.3208
15.2645
15.2086
15.1532
15.0982
15.0437
16.4333
16.366
16.2997
16.2342
16.1696
16.1059
16.0431
15.981
15.9197
15.8591
15.7992
15.7399
15.6811
15.6228
15.565
15.5076
15.4506
15.394
15.3379
15.2821
15.2267
15.1718
15.1174
15.0635
16.4495
16.3822
16.3159
16.2505
16.1861
16.1226
16.06
15.9982
15.9373
15.8772
15.8178
15.759
15.7008
15.6432
15.586
15.5293
15.473
15.4171
15.3616
15.3066
15.2519
15.1977
15.1439
15.0907
16.4729
16.4057
16.3394
16.2742
16.21
16.1468
16.0845
16.0232
15.9628
15.9033
15.8445
15.7864
15.729
15.6721
15.6158
15.5599
15.5045
15.4495
15.3949
15.3407
15.2868
15.2335
15.1805
15.128
16.507
16.4398
16.3738
16.3088
16.2449
16.1821
16.1203
16.0596
15.9998
15.941
15.883
15.8258
15.7694
15.7136
15.6583
15.6035
15.5492
15.4953
15.4417
15.3885
15.3357
15.2832
15.2312
15.1796
16.5567
16.4898
16.4241
16.3595
16.2961
16.2338
16.1727
16.1127
16.0538
15.9959
15.939
15.8831
15.8279
15.7734
15.7196
15.6662
15.6132
15.5606
15.5083
15.4564
15.4047
15.3534
15.3024
15.2517
16.6299
16.5634
16.4982
16.4342
16.3714
16.3099
16.2497
16.1908
16.1331
16.0766
16.0213
15.967
15.9136
15.861
15.809
15.7576
15.7064
15.6556
15.6049
15.5544
15.5042
15.4541
15.4043
15.3545
16.7383
16.6725
16.6081
16.545
16.4833
16.423
16.3641
16.3068
16.2509
16.1965
16.1435
16.0918
16.0411
15.9913
15.9422
15.8935
15.8449
15.7964
15.7479
15.6993
15.6508
15.6023
15.5537
15.5049
16.901
16.8363
16.7731
16.7114
16.6514
16.593
16.5365
16.4818
16.429
16.3781
16.3291
16.2817
16.2357
16.1907
16.1462
16.102
16.0577
16.0129
15.9674
15.9215
15.8754
15.8287
15.7815
15.7335
17.1505
17.0876
17.0265
16.9673
16.9102
16.8553
16.8029
16.753
16.7059
16.6617
16.6201
16.581
16.5439
16.5081
16.4727
16.437
16.4004
16.3623
16.3223
16.2807
16.2381
16.1941
16.1485
16.1011
17.5465
17.4867
17.4294
17.3749
17.3234
17.2754
17.2312
17.1912
17.1558
17.1253
17.0996
17.0783
17.0604
17.0444
17.0286
17.0113
16.9911
16.967
16.9378
16.9043
16.868
16.8284
16.785
16.7373
18.2105
18.1565
18.1066
18.0612
18.0209
17.9866
17.9592
17.9398
17.9294
17.929
17.939
17.9586
17.9857
18.0167
18.0473
18.0736
18.0926
18.1013
18.0973
18.0806
18.0573
18.0262
17.9864
17.9376
19.3997
19.3544
19.3167
19.2877
19.2687
19.2618
19.2695
19.2948
19.3412
19.412
19.5088
19.6305
19.7721
19.9245
20.0767
20.2187
20.3425
20.4407
20.5059
20.5338
20.5448
20.536
20.5056
20.4532
20.3791
21.6231
21.5937
21.5801
21.5848
21.6116
21.6661
21.7553
21.8882
22.076
22.3306
22.6604
23.0658
23.5318
24.028
24.5195
24.9789
25.3876
25.7291
25.9837
26.1326
26.2381
26.2887
26.28
26.2106
26.0826
26.2096
26.2054
26.2328
26.3075
26.4385
26.6406
26.9348
27.3476
27.9137
28.6708
29.6482
30.8365
32.1682
33.5303
34.8189
35.9787
36.9887
37.8305
38.472
38.8703
39.1511
39.3003
39.2927
39.1268
38.8125
37.13
37.2694
37.4465
37.6585
37.9758
38.4821
39.2217
40.2562
41.6605
43.5065
45.8244
48.5162
51.3409
53.988
56.2665
58.1637
59.741
61.0184
61.9592
62.5147
62.7737
62.7945
62.5326
61.9777
61.17
67.9499
67.9218
68.0358
68.2952
68.657
69.0819
69.664
70.6985
72.2811
74.4894
77.384
80.6961
83.8513
86.5814
88.7133
90.3937
91.8215
93.001
93.8197
94.1897
94.1188
93.8529
93.3017
92.3656
91.0734
124.896
122.536
120.345
118.332
116.524
114.962
113.673
112.55
111.986
112.265
113.835
113.222
114.374
118.601
124.05
129.193
133.917
138.178
141.483
143.323
144.147
147.136
152.578
151.586
150.364
149.05
172.693
165.034
158.195
152.122
146.8
142.268
138.633
135.877
134.925
133.254
134.752
150.552
193.61
217.102
256.6
272.849
279.384
279.684
275.083
280.943
277.041
283.653
310.318
300.956
291.662
178.642
170.384
163.037
156.508
150.801
146.009
142.435
139.203
139.933
157.032
216.788
722.705
2365.26
633.22
695.754
590
444.703
339.285
308.258
145.236
138.835
133.08
127.86
123.164
119.07
115.084
115.948
124.058
152.177
804.505
689.354
210.968
205.195
192.885
200.809
153.407
147.768
142.725
138.297
134.589
131.842
131.032
143.705
182.216
1098.25
239.412
229.397
220.74
201.243
269.65
178
264.489
272.981
244.377
511.298
439.401
348.446
323.217
242.793
212.722
212.721
212.396
116.518
120.065
122.33
123.801
45.0552
47.4673
50.2312
53.0821
55.6831
57.8295
59.5122
60.804
61.7459
62.3245
62.5357
62.5638
62.3945
61.9785
61.316
60.436
59.3803
29.3725
30.4262
31.6884
33.0806
34.4728
35.7479
36.8427
37.7395
38.4271
38.8895
39.1649
39.334
39.3774
39.2819
39.0458
38.6786
38.1942
37.625
22.5975
22.9598
23.3989
23.8957
24.4142
24.9131
25.3609
25.7378
26.0263
26.2131
26.3222
26.3857
26.396
26.3501
26.2478
26.0933
25.8927
25.6527
19.5122
19.6202
19.7536
19.9062
20.067
20.2232
20.3632
20.4783
20.5608
20.6046
20.6204
20.6178
20.5952
20.5514
20.4865
20.4015
20.2982
20.1787
17.9683
17.9822
18.0058
18.0365
18.0702
18.1021
18.1279
18.1439
18.1475
18.1364
18.1158
18.0881
18.0524
18.008
17.9547
17.8926
17.8225
17.7453
17.1425
17.1182
17.0984
17.0818
17.0669
17.0516
17.0342
17.013
16.987
16.9554
16.9204
16.8826
16.8412
16.7959
16.7465
16.693
16.6357
16.5753
16.6698
16.629
16.5906
16.5542
16.5188
16.4838
16.4482
16.4114
16.3728
16.3319
16.2899
16.2468
16.2022
16.1559
16.1077
16.0577
16.0059
15.9526
16.3829
16.3342
16.2872
16.2416
16.1969
16.1527
16.1087
16.0644
16.0195
15.9738
15.9279
15.8816
15.8348
15.7872
15.739
15.6899
15.6401
15.5896
16.2002
16.1475
16.096
16.0456
15.996
15.9471
15.8985
15.8501
15.8016
15.753
15.7045
15.6561
15.6075
15.5588
15.5099
15.4608
15.4114
15.3619
16.0802
16.025
15.9709
15.9177
15.8652
15.8134
15.7621
15.711
15.6602
15.6096
15.5592
15.509
15.459
15.4091
15.3594
15.3097
15.2601
15.2106
15.9996
15.9428
15.887
15.8319
15.7776
15.7238
15.6705
15.6176
15.5651
15.5128
15.4609
15.4094
15.3581
15.3071
15.2564
15.206
15.1558
15.1058
15.9448
15.8869
15.8298
15.7734
15.7176
15.6624
15.6077
15.5535
15.4996
15.446
15.3929
15.3401
15.2877
15.2357
15.184
15.1328
15.0819
15.0313
15.9071
15.8484
15.7903
15.7329
15.6761
15.6198
15.564
15.5086
15.4537
15.399
15.3448
15.2911
15.2377
15.1848
15.1323
15.0802
15.0286
14.9774
15.881
15.8216
15.7629
15.7047
15.6471
15.5899
15.5332
15.477
15.4211
15.3656
15.3105
15.2559
15.2017
15.148
15.0947
15.0419
14.9896
14.9378
15.8629
15.803
15.7436
15.6849
15.6266
15.5688
15.5114
15.4544
15.3978
15.3416
15.2858
15.2305
15.1756
15.1212
15.0673
15.0139
14.961
14.9086
15.8503
15.79
15.7302
15.671
15.6122
15.5538
15.4959
15.4383
15.3811
15.3244
15.2681
15.2122
15.1567
15.1018
15.0473
14.9933
14.9399
14.887
15.8417
15.7811
15.721
15.6613
15.6021
15.5433
15.4849
15.4269
15.3693
15.3121
15.2553
15.199
15.1431
15.0877
15.0328
14.9784
14.9246
14.8713
15.8359
15.775
15.7146
15.6547
15.5952
15.536
15.4773
15.419
15.361
15.3035
15.2463
15.1896
15.1333
15.0776
15.0223
14.9676
14.9134
14.8598
15.8319
15.7708
15.7102
15.65
15.5903
15.5309
15.472
15.4133
15.3551
15.2973
15.2399
15.1829
15.1264
15.0703
15.0148
14.9598
14.9054
14.8515
15.8292
15.768
15.7072
15.6469
15.587
15.5274
15.4683
15.4095
15.351
15.293
15.2354
15.1782
15.1215
15.0652
15.0095
14.9543
14.8997
14.8456
15.8274
15.7661
15.7052
15.6448
15.5848
15.5251
15.4658
15.4069
15.3483
15.2902
15.2324
15.1751
15.1182
15.0619
15.006
14.9507
14.8959
14.8418
15.8266
15.7653
15.7044
15.6439
15.5838
15.5241
15.4647
15.4057
15.3471
15.2889
15.2311
15.1737
15.1168
15.0604
15.0044
14.9491
14.8943
14.84
16.402
16.3351
16.2688
16.2033
16.1385
16.0743
16.0108
15.9479
15.8856
15.8238
15.7625
15.7016
15.6412
15.5812
15.5215
15.4622
15.4033
15.3447
15.2865
15.2287
15.1713
15.1143
15.0578
15.0019
16.4026
16.3356
16.2693
16.2038
16.139
16.0749
16.0114
15.9486
15.8863
15.8245
15.7632
15.7024
15.6421
15.5821
15.5224
15.4632
15.4043
15.3458
15.2876
15.2299
15.1725
15.1156
15.0592
15.0033
16.4038
16.3368
16.2705
16.205
16.1402
16.0761
16.0127
15.9499
15.8876
15.826
15.7648
15.704
15.6438
15.5839
15.5243
15.4652
15.4064
15.348
15.29
15.2323
15.1751
15.1183
15.062
15.0063
16.4054
16.3383
16.272
16.2065
16.1417
16.0777
16.0143
15.9515
15.8894
15.8278
15.7668
15.7062
15.6461
15.5863
15.527
15.468
15.4094
15.3512
15.2933
15.2359
15.1789
15.1223
15.0662
15.0106
16.4075
16.3404
16.2741
16.2086
16.1438
16.0798
16.0165
15.9539
15.8919
15.8304
15.7696
15.7092
15.6492
15.5897
15.5306
15.4719
15.4135
15.3556
15.298
15.2408
15.184
15.1277
15.0719
15.0166
16.411
16.3438
16.2774
16.2119
16.1472
16.0833
16.0201
15.9576
15.8957
15.8345
15.7739
15.7137
15.6541
15.5949
15.536
15.4776
15.4196
15.362
15.3047
15.2479
15.1915
15.1355
15.08
15.025
16.417
16.3498
16.2834
16.2179
16.1533
16.0894
16.0264
15.964
15.9024
15.8415
15.7811
15.7213
15.662
15.6032
15.5448
15.4868
15.4292
15.372
15.3152
15.2587
15.2028
15.1472
15.0922
15.0376
16.427
16.3598
16.2934
16.228
16.1634
16.0997
16.0369
15.9748
15.9135
15.8529
15.7929
15.7335
15.6747
15.6164
15.5585
15.501
15.4439
15.3873
15.331
15.2752
15.2197
15.1647
15.1102
15.0562
16.4424
16.3752
16.3089
16.2436
16.1792
16.1157
16.0531
15.9913
15.9304
15.8703
15.8108
15.752
15.6937
15.636
15.5788
15.522
15.4657
15.4097
15.3541
15.299
15.2442
15.1899
15.1361
15.0827
16.4652
16.398
16.3318
16.2667
16.2025
16.1393
16.0771
16.0158
15.9554
15.8958
15.837
15.7789
15.7214
15.6645
15.6081
15.5522
15.4968
15.4417
15.387
15.3327
15.2789
15.2254
15.1724
15.1199
16.4984
16.4314
16.3655
16.3006
16.2368
16.1741
16.1123
16.0516
15.9919
15.9331
15.8751
15.818
15.7615
15.7056
15.6503
15.5955
15.5412
15.4872
15.4337
15.3805
15.3277
15.2753
15.2233
15.1717
16.5473
16.4806
16.415
16.3506
16.2874
16.2252
16.1642
16.1043
16.0455
15.9877
15.9309
15.8749
15.8198
15.7653
15.7115
15.6581
15.6052
15.5527
15.5004
15.4486
15.3971
15.346
15.2952
15.2447
16.6195
16.5534
16.4885
16.4248
16.3623
16.3011
16.2411
16.1824
16.1249
16.0685
16.0133
15.9591
15.9058
15.8532
15.8013
15.7499
15.6989
15.6481
15.5976
15.5475
15.4976
15.4481
15.3987
15.3495
16.7276
16.6624
16.5985
16.5359
16.4747
16.4149
16.3564
16.2994
16.2439
16.1897
16.1368
16.0852
16.0346
15.9849
15.9358
15.8871
15.8388
15.7905
15.7423
15.6943
15.6465
15.5989
15.5512
15.5035
16.8911
16.8275
16.7653
16.7045
16.6454
16.5878
16.5319
16.4777
16.4254
16.3747
16.3258
16.2784
16.2323
16.1871
16.1425
16.0981
16.0537
16.0091
15.964
15.9191
15.8741
15.829
15.7835
15.7373
17.1443
17.0832
17.0238
16.9661
16.9104
16.8567
16.8053
16.7561
16.7094
16.6651
16.6233
16.5835
16.5454
16.5083
16.4716
16.4345
16.3967
16.3577
16.3175
16.2772
16.2364
16.1948
16.1519
16.1075
17.5485
17.4916
17.437
17.3849
17.3355
17.2891
17.2459
17.2062
17.1704
17.1385
17.1104
17.0857
17.0633
17.0419
17.02
16.9965
16.9702
16.9408
16.9086
16.8754
16.8407
16.8036
16.7637
16.7203
18.2359
18.1852
18.1381
18.0949
18.056
18.0221
17.9937
17.9715
17.9563
17.9484
17.9477
17.9531
17.9624
17.9725
17.9799
17.982
17.9768
17.9634
17.9441
17.9215
17.895
17.8634
17.8254
17.7803
19.4656
19.4204
19.3819
19.3508
19.328
19.3147
19.3123
19.3226
19.3472
19.3877
19.4439
19.5132
19.5895
19.6649
19.7316
19.7843
19.8198
19.8364
19.8415
19.8387
19.827
19.8044
19.7681
19.7163
19.6487
21.7966
21.7663
21.7364
21.712
21.7052
21.7182
21.755
21.8203
21.9195
22.0574
22.2358
22.4486
22.6783
22.9014
23.0983
23.2597
23.3829
23.4652
23.5314
23.5798
23.6086
23.6131
23.5862
23.5228
23.4229
26.4789
26.4547
26.4436
26.4437
26.4465
26.4557