/*--------------------------------*- C++ -*----------------------------------*\
  =========                 |
  \\      /  F ield         | OpenFOAM: The Open Source CFD Toolbox
   \\    /   O peration     | Website:  https://openfoam.org
    \\  /    A nd           | Version:  13
     \\/     M anipulation  |
\*---------------------------------------------------------------------------*/
FoamFile
{
    format      ascii;
    class       volScalarField;
    location    "400";
    object      k;
}
// * * * * * * * * * * * * * * * * * * * * * * * * * * * * * * * * * * * * * //

dimensions      [0 2 -2 0 0 0 0];

internalField   nonuniform List<scalar> 
169896
(
0.623748
0.617447
0.611261
0.605187
0.599223
0.593365
0.587611
0.581959
0.576404
0.570946
0.565582
0.560309
0.555125
0.550029
0.545017
0.540088
0.535241
0.530472
0.52578
0.521164
0.516622
0.512152
0.507752
0.503421
0.499157
0.494959
0.490826
0.486755
0.482746
0.478798
0.474909
0.471077
0.467302
0.463582
0.459917
0.456305
0.452746
0.449237
0.445779
0.442369
0.439008
0.435695
0.432428
0.429206
0.42603
0.422897
0.419808
0.416761
0.413756
0.410792
0.407868
0.404985
0.40214
0.399334
0.396567
0.393837
0.391144
0.388487
0.385867
0.383283
0.380734
0.37822
0.37574
0.373295
0.370884
0.368506
0.366162
0.363851
0.361572
0.359326
0.357112
0.35493
0.35278
0.350661
0.623748
0.617447
0.611261
0.605187
0.599223
0.593365
0.587611
0.581959
0.576404
0.570946
0.565582
0.560309
0.555125
0.550029
0.545017
0.540088
0.53524
0.530472
0.52578
0.521164
0.516622
0.512151
0.507752
0.503421
0.499157
0.494959
0.490826
0.486755
0.482746
0.478798
0.474908
0.471077
0.467302
0.463582
0.459917
0.456305
0.452746
0.449237
0.445779
0.44237
0.439009
0.435695
0.432428
0.429207
0.42603
0.422898
0.419808
0.416761
0.413757
0.410793
0.407869
0.404986
0.402141
0.399336
0.396568
0.393838
0.391145
0.388489
0.385869
0.383285
0.380736
0.378223
0.375743
0.373299
0.370888
0.36851
0.366166
0.363855
0.361577
0.359331
0.357118
0.354936
0.352787
0.350669
0.623748
0.617447
0.611261
0.605187
0.599223
0.593365
0.587611
0.581959
0.576404
0.570946
0.565582
0.560309
0.555125
0.550029
0.545017
0.540088
0.535241
0.530472
0.52578
0.521164
0.516622
0.512152
0.507752
0.503421
0.499158
0.49496
0.490827
0.486756
0.482748
0.4788
0.47491
0.471079
0.467304
0.463585
0.45992
0.456308
0.452749
0.449241
0.445783
0.442374
0.439013
0.4357
0.432434
0.429213
0.426036
0.422904
0.419815
0.416769
0.413765
0.410801
0.407879
0.404996
0.402152
0.399347
0.39658
0.393851
0.391159
0.388503
0.385884
0.383301
0.380753
0.37824
0.375762
0.373318
0.370908
0.368532
0.366189
0.363879
0.361603
0.359358
0.357146
0.354966
0.352819
0.350703
0.623748
0.617447
0.611261
0.605187
0.599223
0.593365
0.587612
0.581959
0.576405
0.570947
0.565583
0.56031
0.555127
0.55003
0.545019
0.540091
0.535243
0.530475
0.525784
0.521169
0.516627
0.512157
0.507758
0.503428
0.499165
0.494968
0.490836
0.486766
0.482758
0.478811
0.474923
0.471092
0.467319
0.463601
0.459937
0.456326
0.452768
0.449261
0.445804
0.442397
0.439038
0.435726
0.432461
0.429241
0.426067
0.422936
0.419849
0.416804
0.413801
0.41084
0.407918
0.405037
0.402195
0.399392
0.396627
0.3939
0.39121
0.388557
0.38594
0.383359
0.380813
0.378303
0.375827
0.373386
0.370979
0.368605
0.366265
0.363958
0.361684
0.359443
0.357235
0.355058
0.352914
0.350802
0.623748
0.617447
0.611262
0.605189
0.599225
0.593368
0.587615
0.581963
0.57641
0.570953
0.56559
0.560319
0.555137
0.550042
0.545033
0.540106
0.535261
0.530495
0.525806
0.521193
0.516653
0.512186
0.50779
0.503462
0.499202
0.495008
0.490878
0.486812
0.482807
0.478863
0.474978
0.471151
0.467381
0.463666
0.460005
0.456398
0.452844
0.44934
0.445887
0.442483
0.439128
0.435819
0.432558
0.429342
0.426171
0.423044
0.419961
0.41692
0.413921
0.410963
0.408046
0.405169
0.402331
0.399532
0.396771
0.394048
0.391363
0.388714
0.386101
0.383524
0.380984
0.378478
0.376007
0.37357
0.371168
0.3688
0.366465
0.364163
0.361895
0.35966
0.357457
0.355287
0.353149
0.351043
0.623753
0.617453
0.61127
0.605199
0.599238
0.593385
0.587636
0.581988
0.57644
0.570988
0.56563
0.560364
0.555188
0.550099
0.545096
0.540175
0.535336
0.530577
0.525895
0.521288
0.516756
0.512295
0.507906
0.503585
0.499332
0.495145
0.491023
0.486963
0.482966
0.479028
0.47515
0.47133
0.467567
0.463859
0.460206
0.456606
0.453058
0.449561
0.446115
0.442718
0.439369
0.436067
0.432812
0.429603
0.426439
0.423319
0.420242
0.417207
0.414215
0.411263
0.408353
0.405482
0.402651
0.399858
0.397104
0.394387
0.391708
0.389065
0.386459
0.383889
0.381355
0.378856
0.376391
0.373962
0.371566
0.369205
0.366877
0.364583
0.362322
0.360095
0.3579
0.355737
0.353607
0.35151
0.623762
0.617465
0.611285
0.605219
0.599265
0.593418
0.587676
0.582037
0.576497
0.571055
0.565707
0.560451
0.555285
0.550208
0.545215
0.540306
0.535479
0.530731
0.52606
0.521466
0.516945
0.512497
0.508119
0.50381
0.499569
0.495394
0.491283
0.487235
0.483249
0.479323
0.475457
0.471648
0.467896
0.464199
0.460556
0.456967
0.453429
0.449943
0.446507
0.44312
0.439781
0.436489
0.433244
0.430045
0.42689
0.423778
0.420711
0.417685
0.414701
0.411759
0.408857
0.405994
0.403171
0.400387
0.39764
0.394932
0.39226
0.389626
0.387028
0.384465
0.381939
0.379448
0.376991
0.374569
0.372182
0.369828
0.367508
0.365222
0.362969
0.36075
0.358563
0.356409
0.354288
0.352199
0.623769
0.617474
0.611298
0.605236
0.599287
0.593446
0.587711
0.582079
0.576548
0.571114
0.565775
0.56053
0.555374
0.550307
0.545325
0.540428
0.535612
0.530875
0.526217
0.521635
0.517126
0.51269
0.508325
0.504029
0.499801
0.495638
0.49154
0.487505
0.483532
0.479619
0.475765
0.471969
0.468229
0.464545
0.460915
0.457338
0.453813
0.450338
0.446914
0.443539
0.440212
0.436932
0.433698
0.430509
0.427366
0.424265
0.421208
0.418194
0.41522
0.412288
0.409396
0.406544
0.403731
0.400956
0.398219
0.39552
0.392858
0.390233
0.387644
0.38509
0.382573
0.38009
0.377643
0.37523
0.372851
0.370506
0.368195
0.365917
0.363673
0.361462
0.359284
0.357139
0.355027
0.352948
0.623773
0.61748
0.611306
0.605247
0.599301
0.593464
0.587734
0.582107
0.576581
0.571153
0.565821
0.560582
0.555434
0.550374
0.545401
0.540511
0.535704
0.530976
0.526327
0.521754
0.517255
0.512829
0.508474
0.504187
0.499969
0.495817
0.491729
0.487705
0.483742
0.479839
0.475996
0.47221
0.468481
0.464808
0.461188
0.457622
0.454107
0.450644
0.44723
0.443865
0.440548
0.437279
0.434055
0.430877
0.427743
0.424653
0.421606
0.418601
0.415638
0.412715
0.409833
0.40699
0.404186
0.401421
0.398693
0.396003
0.393351
0.390734
0.388154
0.38561
0.383101
0.380627
0.378188
0.375783
0.373413
0.371077
0.368774
0.366505
0.36427
0.362067
0.359898
0.357762
0.355659
0.353589
0.623776
0.617483
0.61131
0.605253
0.599309
0.593475
0.587747
0.582123
0.576601
0.571177
0.565849
0.560614
0.555471
0.550416
0.545447
0.540563
0.535761
0.53104
0.526396
0.521829
0.517337
0.512917
0.508568
0.504289
0.500077
0.495932
0.491851
0.487834
0.483879
0.479983
0.476148
0.472369
0.468648
0.464982
0.46137
0.457811
0.454305
0.450849
0.447443
0.444086
0.440777
0.437515
0.4343
0.431129
0.428003
0.424921
0.421882
0.418884
0.415929
0.413014
0.410139
0.407303
0.404507
0.401749
0.399029
0.396347
0.393701
0.391092
0.388519
0.385982
0.38348
0.381014
0.378582
0.376184
0.373821
0.371492
0.369197
0.366936
0.364708
0.362514
0.360352
0.358224
0.356129
0.354067
0.623777
0.617485
0.611313
0.605257
0.599314
0.593481
0.587755
0.582134
0.576613
0.571191
0.565866
0.560634
0.555493
0.550441
0.545476
0.540595
0.535796
0.531078
0.526439
0.521875
0.517387
0.512971
0.508626
0.504351
0.500144
0.496003
0.491927
0.487915
0.483964
0.480074
0.476243
0.472469
0.468753
0.465092
0.461485
0.457931
0.45443
0.450979
0.447579
0.444227
0.440923
0.437667
0.434456
0.431291
0.42817
0.425093
0.422059
0.419067
0.416117
0.413207
0.410338
0.407508
0.404717
0.401964
0.399249
0.396572
0.393932
0.391328
0.38876
0.386229
0.383732
0.381271
0.378845
0.376453
0.374096
0.371773
0.369484
0.367228
0.365007
0.362819
0.360664
0.358543
0.356455
0.354401
0.623778
0.617487
0.611315
0.605259
0.599317
0.593485
0.58776
0.58214
0.576621
0.5712
0.565876
0.560646
0.555507
0.550457
0.545493
0.540614
0.535818
0.531102
0.526465
0.521904
0.517418
0.513005
0.508663
0.50439
0.500186
0.496048
0.491975
0.487965
0.484017
0.48013
0.476302
0.472532
0.468818
0.46516
0.461557
0.458006
0.454508
0.451061
0.447663
0.444315
0.441015
0.437761
0.434554
0.431393
0.428275
0.425202
0.422171
0.419183
0.416236
0.413329
0.410463
0.407637
0.404849
0.4021
0.399389
0.396715
0.394078
0.391478
0.388914
0.386386
0.383894
0.381437
0.379015
0.376627
0.374274
0.371955
0.369671
0.36742
0.365204
0.363021
0.360872
0.358757
0.356676
0.354627
0.623779
0.617487
0.611316
0.605261
0.599319
0.593488
0.587764
0.582144
0.576625
0.571206
0.565883
0.560653
0.555515
0.550467
0.545504
0.540627
0.535832
0.531117
0.526481
0.521922
0.517437
0.513026
0.508686
0.504415
0.500212
0.496076
0.492004
0.487996
0.48405
0.480165
0.476339
0.472571
0.468859
0.465203
0.461602
0.458053
0.454557
0.451112
0.447716
0.44437
0.441072
0.437821
0.434616
0.431456
0.428341
0.425269
0.422241
0.419254
0.416309
0.413405
0.410541
0.407717
0.404932
0.402185
0.399476
0.396804
0.39417
0.391572
0.38901
0.386485
0.383995
0.381541
0.379122
0.376737
0.374387
0.372072
0.369791
0.367545
0.365333
0.363155
0.361011
0.358901
0.356825
0.354783
0.623779
0.617488
0.611317
0.605262
0.599321
0.59349
0.587766
0.582146
0.576629
0.57121
0.565887
0.560659
0.555521
0.550473
0.545512
0.540635
0.535841
0.531127
0.526492
0.521934
0.51745
0.51304
0.5087
0.504431
0.500229
0.496094
0.492024
0.488017
0.484072
0.480188
0.476363
0.472596
0.468885
0.465231
0.46163
0.458083
0.454588
0.451144
0.44775
0.444405
0.441108
0.437858
0.434654
0.431496
0.428382
0.425311
0.422284
0.419299
0.416355
0.413452
0.41059
0.407766
0.404982
0.402237
0.399529
0.396859
0.394226
0.39163
0.38907
0.386546
0.384058
0.381606
0.379189
0.376807
0.37446
0.372147
0.36987
0.367626
0.365418
0.363244
0.361105
0.359
0.35693
0.354894
0.62378
0.617488
0.611317
0.605263
0.599322
0.593491
0.587767
0.582148
0.576631
0.571212
0.56589
0.560662
0.555525
0.550478
0.545517
0.540641
0.535847
0.531134
0.5265
0.521942
0.517459
0.513049
0.50871
0.504441
0.50024
0.496106
0.492036
0.48803
0.484086
0.480202
0.476378
0.472612
0.468902
0.465248
0.461649
0.458102
0.454608
0.451164
0.447771
0.444427
0.44113
0.437881
0.434678
0.43152
0.428407
0.425337
0.422311
0.419326
0.416383
0.413481
0.410619
0.407796
0.405013
0.402268
0.399561
0.396892
0.39426
0.391665
0.389106
0.386584
0.384097
0.381646
0.379231
0.376851
0.374506
0.372196
0.369921
0.367681
0.365476
0.363307
0.361172
0.359072
0.357007
0.354977
0.62378
0.617489
0.611318
0.605263
0.599322
0.593492
0.587768
0.582149
0.576632
0.571214
0.565892
0.560664
0.555528
0.550481
0.54552
0.540644
0.535851
0.531139
0.526505
0.521947
0.517465
0.513055
0.508717
0.504448
0.500248
0.496114
0.492044
0.488039
0.484095
0.480212
0.476388
0.472622
0.468913
0.46526
0.46166
0.458114
0.45462
0.451177
0.447784
0.44444
0.441144
0.437895
0.434692
0.431535
0.428422
0.425353
0.422326
0.419342
0.4164
0.413498
0.410636
0.407814
0.405031
0.402287
0.39958
0.396911
0.39428
0.391685
0.389128
0.386606
0.38412
0.381671
0.379257
0.376879
0.374536
0.372228
0.369956
0.367719
0.365518
0.363352
0.361222
0.359127
0.357069
0.355045
0.62378
0.617489
0.611318
0.605263
0.599323
0.593492
0.587769
0.58215
0.576633
0.571215
0.565894
0.560666
0.55553
0.550483
0.545522
0.540647
0.535854
0.531142
0.526508
0.521951
0.517468
0.513059
0.508721
0.504453
0.500253
0.496119
0.49205
0.488044
0.484101
0.480218
0.476395
0.472629
0.46892
0.465267
0.461668
0.458122
0.454628
0.451185
0.447792
0.444448
0.441152
0.437904
0.434701
0.431544
0.428431
0.425361
0.422335
0.419351
0.416408
0.413507
0.410645
0.407823
0.40504
0.402296
0.39959
0.396921
0.39429
0.391696
0.389139
0.386618
0.384133
0.381685
0.379272
0.376896
0.374555
0.372249
0.36998
0.367746
0.365549
0.363388
0.361262
0.359173
0.357121
0.355105
0.62378
0.617489
0.611318
0.605264
0.599323
0.593493
0.58777
0.582151
0.576634
0.571216
0.565895
0.560667
0.555531
0.550484
0.545524
0.540649
0.535856
0.531144
0.52651
0.521953
0.517471
0.513062
0.508724
0.504456
0.500256
0.496122
0.492053
0.488048
0.484105
0.480222
0.476399
0.472633
0.468924
0.465271
0.461672
0.458126
0.454632
0.451189
0.447797
0.444453
0.441157
0.437908
0.434705
0.431548
0.428435
0.425365
0.422339
0.419355
0.416412
0.41351
0.410649
0.407827
0.405044
0.402299
0.399593
0.396925
0.394294
0.3917
0.389144
0.386623
0.38414
0.381692
0.379281
0.376906
0.374567
0.372264
0.369997
0.367767
0.365574
0.363417
0.361297
0.359214
0.357169
0.35516
0.62378
0.617489
0.611318
0.605264
0.599323
0.593493
0.58777
0.582151
0.576635
0.571217
0.565895
0.560668
0.555532
0.550485
0.545525
0.54065
0.535857
0.531145
0.526512
0.521955
0.517473
0.513064
0.508726
0.504458
0.500258
0.496124
0.492056
0.48805
0.484107
0.480224
0.476401
0.472635
0.468926
0.465273
0.461674
0.458128
0.454634
0.451191
0.447798
0.444454
0.441158
0.437909
0.434706
0.431549
0.428436
0.425366
0.42234
0.419355
0.416412
0.41351
0.410648
0.407826
0.405043
0.402299
0.399593
0.396924
0.394294
0.3917
0.389144
0.386624
0.384141
0.381695
0.379285
0.376911
0.374575
0.372274
0.370011
0.367784
0.365595
0.363443
0.361329
0.359253
0.357215
0.355215
0.62378
0.617489
0.611318
0.605264
0.599323
0.593493
0.58777
0.582152
0.576635
0.571217
0.565896
0.560669
0.555533
0.550486
0.545526
0.540651
0.535858
0.531146
0.526513
0.521956
0.517474
0.513065
0.508727
0.504459
0.500259
0.496126
0.492057
0.488052
0.484108
0.480225
0.476402
0.472636
0.468927
0.465274
0.461675
0.458129
0.454635
0.451192
0.447799
0.444454
0.441158
0.437909
0.434706
0.431548
0.428435
0.425365
0.422338
0.419353
0.41641
0.413508
0.410646
0.407823
0.40504
0.402295
0.399589
0.396921
0.39429
0.391697
0.389141
0.386622
0.38414
0.381694
0.379286
0.376914
0.37458
0.372282
0.370022
0.367799
0.365615
0.363468
0.361361
0.359292
0.357262
0.355272
0.62378
0.617489
0.611318
0.605264
0.599324
0.593493
0.58777
0.582152
0.576635
0.571218
0.565896
0.560669
0.555533
0.550486
0.545527
0.540651
0.535859
0.531147
0.526513
0.521957
0.517475
0.513066
0.508728
0.50446
0.50026
0.496126
0.492057
0.488052
0.484109
0.480226
0.476402
0.472636
0.468927
0.465274
0.461674
0.458128
0.454634
0.451191
0.447797
0.444453
0.441157
0.437907
0.434704
0.431545
0.428432
0.425362
0.422334
0.419349
0.416406
0.413503
0.410641
0.407818
0.405035
0.40229
0.399584
0.396915
0.394285
0.391692
0.389136
0.386618
0.384136
0.381692
0.379285
0.376915
0.374583
0.372288
0.370031
0.367813
0.365634
0.363493
0.361392
0.359332
0.357311
0.355331
0.62378
0.617489
0.611318
0.605264
0.599324
0.593493
0.587771
0.582152
0.576636
0.571218
0.565897
0.560669
0.555533
0.550487
0.545527
0.540652
0.535859
0.531147
0.526514
0.521957
0.517475
0.513066
0.508728
0.50446
0.50026
0.496126
0.492057
0.488052
0.484108
0.480225
0.476402
0.472636
0.468927
0.465273
0.461673
0.458127
0.454633
0.451189
0.447796
0.444451
0.441154
0.437904
0.4347
0.431542
0.428428
0.425357
0.42233
0.419344
0.416401
0.413498
0.410635
0.407812
0.405028
0.402283
0.399577
0.396908
0.394278
0.391685
0.38913
0.386612
0.384131
0.381688
0.379283
0.376915
0.374585
0.372294
0.370041
0.367827
0.365653
0.363519
0.361426
0.359374
0.357363
0.355395
0.62378
0.617489
0.611318
0.605264
0.599324
0.593494
0.587771
0.582152
0.576636
0.571218
0.565897
0.56067
0.555534
0.550487
0.545527
0.540652
0.535859
0.531147
0.526514
0.521957
0.517475
0.513066
0.508728
0.50446
0.50026
0.496126
0.492057
0.488052
0.484108
0.480225
0.476401
0.472635
0.468926
0.465272
0.461672
0.458125
0.454631
0.451187
0.447793
0.444448
0.441151
0.437901
0.434697
0.431538
0.428423
0.425352
0.422324
0.419339
0.416394
0.413491
0.410628
0.407804
0.40502
0.402275
0.399569
0.3969
0.39427
0.391677
0.389122
0.386605
0.384126
0.381684
0.37928
0.376915
0.374587
0.372299
0.37005
0.367842
0.365674
0.363547
0.361462
0.359419
0.357419
0.355463
0.62378
0.617489
0.611319
0.605264
0.599324
0.593494
0.587771
0.582152
0.576636
0.571218
0.565897
0.56067
0.555534
0.550487
0.545527
0.540652
0.535859
0.531147
0.526514
0.521957
0.517475
0.513066
0.508728
0.50446
0.500259
0.496126
0.492057
0.488051
0.484107
0.480224
0.4764
0.472634
0.468924
0.46527
0.46167
0.458123
0.454628
0.451184
0.44779
0.444445
0.441147
0.437897
0.434692
0.431533
0.428418
0.425347
0.422319
0.419332
0.416388
0.413484
0.41062
0.407797
0.405012
0.402267
0.39956
0.396892
0.394261
0.391669
0.389115
0.386598
0.38412
0.381679
0.379277
0.376914
0.37459
0.372305
0.370061
0.367857
0.365696
0.363576
0.3615
0.359468
0.35748
0.355537
0.62378
0.617489
0.611319
0.605264
0.599324
0.593494
0.587771
0.582153
0.576636
0.571218
0.565897
0.56067
0.555534
0.550487
0.545527
0.540652
0.535859
0.531147
0.526514
0.521957
0.517475
0.513066
0.508728
0.504459
0.500259
0.496125
0.492056
0.48805
0.484106
0.480223
0.476398
0.472632
0.468922
0.465268
0.461668
0.458121
0.454625
0.451181
0.447787
0.444441
0.441143
0.437892
0.434687
0.431528
0.428413
0.425341
0.422312
0.419326
0.416381
0.413476
0.410612
0.407788
0.405004
0.402258
0.399551
0.396883
0.394253
0.391661
0.389107
0.386591
0.384113
0.381675
0.379274
0.376914
0.374593
0.372312
0.370072
0.367874
0.365719
0.363608
0.361541
0.35952
0.357544
0.355616
0.62378
0.617489
0.611319
0.605264
0.599324
0.593494
0.587771
0.582153
0.576636
0.571218
0.565897
0.56067
0.555534
0.550487
0.545527
0.540652
0.535859
0.531147
0.526514
0.521957
0.517474
0.513065
0.508727
0.504459
0.500258
0.496124
0.492055
0.488049
0.484105
0.480221
0.476397
0.47263
0.46892
0.465266
0.461665
0.458118
0.454622
0.451178
0.447783
0.444437
0.441139
0.437888
0.434683
0.431523
0.428407
0.425335
0.422306
0.419319
0.416373
0.413469
0.410604
0.40778
0.404995
0.402249
0.399542
0.396874
0.394244
0.391652
0.389099
0.386584
0.384107
0.38167
0.379272
0.376914
0.374596
0.372319
0.370085
0.367893
0.365745
0.363642
0.361586
0.359576
0.357614
0.355701
0.62378
0.617489
0.611319
0.605264
0.599324
0.593494
0.587771
0.582153
0.576636
0.571218
0.565897
0.56067
0.555534
0.550487
0.545527
0.540652
0.535859
0.531147
0.526513
0.521956
0.517474
0.513065
0.508727
0.504458
0.500258
0.496123
0.492054
0.488048
0.484104
0.48022
0.476395
0.472629
0.468918
0.465264
0.461663
0.458115
0.454619
0.451175
0.447779
0.444433
0.441135
0.437883
0.434678
0.431517
0.428401
0.425329
0.422299
0.419312
0.416366
0.413461
0.410596
0.407772
0.404987
0.402241
0.399533
0.396865
0.394235
0.391644
0.389091
0.386577
0.384101
0.381666
0.37927
0.376914
0.3746
0.372327
0.370098
0.367913
0.365773
0.363679
0.361633
0.359636
0.357689
0.355793
0.62378
0.617489
0.611319
0.605264
0.599324
0.593494
0.587771
0.582153
0.576636
0.571218
0.565897
0.56067
0.555534
0.550487
0.545527
0.540652
0.535859
0.531147
0.526513
0.521956
0.517474
0.513064
0.508726
0.504458
0.500257
0.496122
0.492053
0.488047
0.484102
0.480218
0.476394
0.472627
0.468916
0.465261
0.46166
0.458112
0.454616
0.451171
0.447776
0.444429
0.44113
0.437879
0.434673
0.431512
0.428396
0.425323
0.422293
0.419305
0.416359
0.413453
0.410588
0.407763
0.404978
0.402232
0.399525
0.396856
0.394226
0.391635
0.389083
0.38657
0.384096
0.381662
0.379268
0.376915
0.374605
0.372337
0.370113
0.367934
0.365802
0.363718
0.361684
0.3597
0.357769
0.35589
0.62378
0.617489
0.611319
0.605264
0.599324
0.593494
0.587771
0.582153
0.576636
0.571218
0.565897
0.56067
0.555534
0.550487
0.545527
0.540652
0.535859
0.531147
0.526513
0.521956
0.517473
0.513064
0.508726
0.504457
0.500256
0.496122
0.492052
0.488045
0.484101
0.480217
0.476392
0.472625
0.468914
0.465259
0.461658
0.45811
0.454613
0.451168
0.447772
0.444425
0.441126
0.437874
0.434668
0.431507
0.42839
0.425317
0.422286
0.419298
0.416351
0.413446
0.410581
0.407755
0.40497
0.402223
0.399516
0.396847
0.394218
0.391627
0.389076
0.386563
0.384091
0.381658
0.379267
0.376917
0.37461
0.372347
0.370128
0.367957
0.365833
0.36376
0.361737
0.359768
0.357852
0.355993
0.62378
0.617489
0.611319
0.605264
0.599324
0.593494
0.587771
0.582153
0.576636
0.571218
0.565897
0.56067
0.555534
0.550487
0.545527
0.540651
0.535859
0.531146
0.526513
0.521955
0.517473
0.513063
0.508725
0.504456
0.500255
0.496121
0.492051
0.488044
0.4841
0.480215
0.47639
0.472623
0.468912
0.465257
0.461655
0.458107
0.45461
0.451165
0.447769
0.444421
0.441122
0.437869
0.434663
0.431501
0.428384
0.425311
0.42228
0.419291
0.416344
0.413438
0.410573
0.407747
0.404962
0.402215
0.399508
0.396839
0.39421
0.39162
0.389069
0.386557
0.384086
0.381655
0.379266
0.376919
0.374616
0.372357
0.370145
0.367981
0.365866
0.363803
0.361793
0.359838
0.35794
0.356101
0.62378
0.617489
0.611319
0.605264
0.599324
0.593494
0.587771
0.582153
0.576636
0.571218
0.565897
0.56067
0.555534
0.550487
0.545527
0.540651
0.535858
0.531146
0.526512
0.521955
0.517472
0.513063
0.508724
0.504455
0.500254
0.49612
0.49205
0.488043
0.484098
0.480214
0.476388
0.472621
0.46891
0.465254
0.461653
0.458104
0.454607
0.451161
0.447765
0.444418
0.441118
0.437865
0.434658
0.431496
0.428379
0.425305
0.422274
0.419285
0.416338
0.413431
0.410566
0.40774
0.404954
0.402207
0.3995
0.396831
0.394202
0.391612
0.389062
0.386551
0.384081
0.381653
0.379266
0.376922
0.374622
0.372369
0.370162
0.368005
0.3659
0.363847
0.36185
0.359911
0.358031
0.356211
0.62378
0.617489
0.611319
0.605264
0.599324
0.593494
0.587771
0.582153
0.576636
0.571218
0.565897
0.560669
0.555533
0.550486
0.545526
0.540651
0.535858
0.531146
0.526512
0.521954
0.517472
0.513062
0.508723
0.504454
0.500253
0.496119
0.492048
0.488042
0.484097
0.480212
0.476387
0.472619
0.468908
0.465252
0.46165
0.458101
0.454604
0.451158
0.447762
0.444414
0.441114
0.437861
0.434654
0.431492
0.428374
0.4253
0.422268
0.419279
0.416331
0.413425
0.410559
0.407733
0.404946
0.4022
0.399492
0.396824
0.394195
0.391606
0.389056
0.386546
0.384078
0.381651
0.379266
0.376925
0.374629
0.37238
0.37018
0.368031
0.365934
0.363892
0.361909
0.359985
0.358122
0.356326
0.62378
0.617489
0.611319
0.605264
0.599324
0.593494
0.587771
0.582152
0.576636
0.571218
0.565897
0.560669
0.555533
0.550486
0.545526
0.540651
0.535858
0.531145
0.526511
0.521954
0.517471
0.513061
0.508723
0.504454
0.500253
0.496118
0.492047
0.488041
0.484095
0.480211
0.476385
0.472617
0.468906
0.46525
0.461648
0.458099
0.454602
0.451155
0.447759
0.444411
0.44111
0.437857
0.43465
0.431487
0.428369
0.425295
0.422263
0.419274
0.416326
0.413419
0.410552
0.407726
0.40494
0.402193
0.399486
0.396817
0.394189
0.3916
0.38905
0.386542
0.384074
0.381649
0.379267
0.376929
0.374637
0.372392
0.370198
0.368056
0.365968
0.363937
0.361967
0.360058
0.358215
0.356438
0.62378
0.617489
0.611319
0.605264
0.599324
0.593494
0.587771
0.582152
0.576636
0.571218
0.565897
0.560669
0.555533
0.550486
0.545526
0.540651
0.535858
0.531145
0.526511
0.521954
0.517471
0.513061
0.508722
0.504453
0.500252
0.496117
0.492047
0.48804
0.484094
0.48021
0.476384
0.472616
0.468904
0.465248
0.461646
0.458097
0.4546
0.451153
0.447756
0.444408
0.441107
0.437854
0.434646
0.431483
0.428365
0.42529
0.422258
0.419269
0.416321
0.413413
0.410547
0.407721
0.404934
0.402187
0.39948
0.396812
0.394183
0.391594
0.389046
0.386538
0.384072
0.381648
0.379268
0.376933
0.374644
0.372404
0.370215
0.36808
0.366001
0.363981
0.362023
0.36013
0.358304
0.356549
0.62378
0.617489
0.611319
0.605264
0.599324
0.593494
0.587771
0.582152
0.576636
0.571218
0.565897
0.560669
0.555533
0.550486
0.545526
0.54065
0.535857
0.531145
0.526511
0.521953
0.51747
0.51306
0.508722
0.504453
0.500251
0.496116
0.492046
0.488039
0.484093
0.480208
0.476383
0.472615
0.468903
0.465247
0.461644
0.458095
0.454597
0.451151
0.447754
0.444405
0.441105
0.437851
0.434643
0.43148
0.428361
0.425287
0.422254
0.419264
0.416316
0.413409
0.410542
0.407716
0.404929
0.402182
0.399474
0.396807
0.394178
0.39159
0.389042
0.386535
0.38407
0.381647
0.379269
0.376937
0.374651
0.372416
0.370232
0.368103
0.366032
0.364022
0.362076
0.360198
0.358389
0.356654
0.62378
0.617489
0.611319
0.605264
0.599324
0.593494
0.587771
0.582152
0.576636
0.571218
0.565897
0.560669
0.555533
0.550486
0.545526
0.54065
0.535857
0.531145
0.52651
0.521953
0.51747
0.51306
0.508721
0.504452
0.500251
0.496115
0.492045
0.488038
0.484093
0.480208
0.476382
0.472613
0.468902
0.465245
0.461643
0.458093
0.454596
0.451149
0.447752
0.444403
0.441102
0.437848
0.43464
0.431477
0.428358
0.425283
0.422251
0.419261
0.416312
0.413405
0.410538
0.407711
0.404925
0.402178
0.39947
0.396802
0.394174
0.391586
0.389039
0.386533
0.384068
0.381647
0.379271
0.37694
0.374658
0.372426
0.370247
0.368124
0.36606
0.364059
0.362124
0.360259
0.358466
0.35675
0.62378
0.617489
0.611319
0.605265
0.599324
0.593494
0.587771
0.582152
0.576636
0.571218
0.565897
0.560669
0.555533
0.550486
0.545526
0.54065
0.535857
0.531144
0.52651
0.521953
0.51747
0.51306
0.508721
0.504452
0.50025
0.496115
0.492045
0.488037
0.484092
0.480207
0.476381
0.472613
0.468901
0.465244
0.461642
0.458092
0.454594
0.451147
0.44775
0.444401
0.4411
0.437846
0.434638
0.431475
0.428356
0.425281
0.422248
0.419258
0.416309
0.413402
0.410535
0.407708
0.404921
0.402174
0.399467
0.396799
0.394171
0.391583
0.389036
0.386531
0.384067
0.381647
0.379272
0.376944
0.374664
0.372435
0.37026
0.368142
0.366085
0.364091
0.362165
0.360311
0.358532
0.356831
0.62378
0.617489
0.611319
0.605264
0.599324
0.593494
0.587771
0.582152
0.576636
0.571218
0.565897
0.560669
0.555533
0.550486
0.545526
0.54065
0.535857
0.531144
0.52651
0.521953
0.51747
0.51306
0.508721
0.504451
0.50025
0.496115
0.492044
0.488037
0.484091
0.480206
0.47638
0.472612
0.4689
0.465243
0.461641
0.458091
0.454593
0.451146
0.447749
0.4444
0.441099
0.437845
0.434636
0.431473
0.428354
0.425279
0.422246
0.419256
0.416307
0.4134
0.410532
0.407706
0.404919
0.402172
0.399464
0.396797
0.394169
0.391581
0.389035
0.386529
0.384067
0.381648
0.379274
0.376947
0.374669
0.372442
0.370271
0.368157
0.366104
0.364117
0.362198
0.360353
0.358585
0.356897
0.62378
0.617489
0.611319
0.605265
0.599324
0.593494
0.587771
0.582152
0.576636
0.571218
0.565897
0.560669
0.555533
0.550486
0.545526
0.54065
0.535857
0.531144
0.52651
0.521952
0.517469
0.513059
0.508721
0.504451
0.50025
0.496114
0.492044
0.488036
0.484091
0.480206
0.47638
0.472611
0.4689
0.465243
0.46164
0.458091
0.454593
0.451146
0.447748
0.444399
0.441098
0.437844
0.434635
0.431472
0.428353
0.425278
0.422245
0.419254
0.416306
0.413398
0.410531
0.407704
0.404917
0.40217
0.399462
0.396795
0.394167
0.39158
0.389033
0.386528
0.384066
0.381648
0.379275
0.376949
0.374672
0.372447
0.370277
0.368166
0.366117
0.364134
0.362221
0.360382
0.358621
0.356941
0.599324
0.593494
0.587771
0.582152
0.576636
0.571218
0.565897
0.560669
0.555533
0.550486
0.545526
0.54065
0.535857
0.531144
0.52651
0.521952
0.517469
0.513059
0.508721
0.504451
0.50025
0.496114
0.492044
0.488036
0.484091
0.480206
0.47638
0.472611
0.468899
0.465243
0.46164
0.45809
0.454592
0.451145
0.447748
0.444399
0.441098
0.437843
0.434635
0.431472
0.428353
0.425277
0.422244
0.419254
0.416305
0.413397
0.41053
0.407703
0.404916
0.402169
0.399462
0.396794
0.394167
0.39158
0.389033
0.386529
0.384067
0.381649
0.379276
0.376951
0.374675
0.372451
0.370283
0.368172
0.366125
0.364144
0.362234
0.360398
0.358641
0.356966
0.368173
0.366126
0.364145
0.362234
0.360399
0.36817
0.366121
0.364138
0.362224
0.360385
0.623748
0.617447
0.611261
0.605187
0.599223
0.593365
0.587612
0.581959
0.576405
0.570947
0.565582
0.56031
0.555126
0.550029
0.545018
0.540089
0.535242
0.530473
0.525782
0.521166
0.516624
0.512153
0.507754
0.503423
0.49916
0.494962
0.490829
0.486758
0.48275
0.478802
0.474913
0.471081
0.467307
0.463588
0.459923
0.456311
0.452752
0.449244
0.445786
0.442377
0.439017
0.435703
0.432437
0.429216
0.42604
0.422908
0.419819
0.416772
0.413768
0.410804
0.407881
0.404998
0.402154
0.399349
0.396582
0.393852
0.391159
0.388503
0.385883
0.383299
0.38075
0.378236
0.375756
0.37331
0.370898
0.36852
0.366174
0.363862
0.361582
0.359334
0.357118
0.354934
0.352781
0.35066
0.623748
0.617447
0.611261
0.605187
0.599223
0.593365
0.587612
0.581959
0.576405
0.570947
0.565582
0.56031
0.555126
0.550029
0.545018
0.540089
0.535241
0.530473
0.525781
0.521166
0.516623
0.512153
0.507754
0.503423
0.499159
0.494962
0.490829
0.486758
0.48275
0.478802
0.474913
0.471081
0.467307
0.463588
0.459923
0.456311
0.452752
0.449244
0.445786
0.442377
0.439017
0.435704
0.432437
0.429216
0.42604
0.422908
0.419819
0.416773
0.413769
0.410805
0.407883
0.404999
0.402156
0.39935
0.396583
0.393854
0.391161
0.388505
0.385885
0.383301
0.380752
0.378238
0.375759
0.373314
0.370902
0.368524
0.366179
0.363867
0.361587
0.359339
0.357124
0.35494
0.352788
0.350668
0.623748
0.617447
0.611261
0.605187
0.599223
0.593365
0.587612
0.581959
0.576405
0.570947
0.565582
0.56031
0.555126
0.550029
0.545018
0.540089
0.535242
0.530473
0.525782
0.521166
0.516624
0.512154
0.507754
0.503424
0.49916
0.494963
0.49083
0.48676
0.482751
0.478803
0.474915
0.471083
0.467309
0.46359
0.459926
0.456315
0.452756
0.449248
0.44579
0.442382
0.439022
0.435709
0.432443
0.429222
0.426047
0.422915
0.419827
0.416781
0.413777
0.410814
0.407892
0.405009
0.402166
0.399362
0.396595
0.393866
0.391174
0.388519
0.3859
0.383317
0.380769
0.378256
0.375777
0.373333
0.370922
0.368545
0.366202
0.363891
0.361612
0.359366
0.357152
0.35497
0.352819
0.3507
0.623748
0.617447
0.611261
0.605187
0.599223
0.593366
0.587612
0.581959
0.576405
0.570947
0.565583
0.560311
0.555127
0.550031
0.54502
0.540091
0.535244
0.530476
0.525785
0.52117
0.516628
0.512159
0.50776
0.50343
0.499168
0.494971
0.490839
0.486769
0.482762
0.478815
0.474927
0.471097
0.467324
0.463606
0.459943
0.456333
0.452775
0.449268
0.445812
0.442405
0.439046
0.435735
0.43247
0.429251
0.426077
0.422947
0.41986
0.416816
0.413813
0.410852
0.407932
0.405051
0.40221
0.399407
0.396642
0.393915
0.391226
0.388573
0.385956
0.383375
0.380829
0.378318
0.375842
0.3734
0.370992
0.368618
0.366277
0.363969
0.361693
0.35945
0.35724
0.355061
0.352914
0.350798
0.623748
0.617447
0.611262
0.605189
0.599225
0.593368
0.587615
0.581963
0.57641
0.570953
0.565591
0.560319
0.555138
0.550043
0.545033
0.540107
0.535262
0.530496
0.525807
0.521194
0.516655
0.512188
0.507792
0.503465
0.499205
0.495011
0.490882
0.486815
0.482811
0.478867
0.474982
0.471156
0.467386
0.463671
0.460011
0.456405
0.45285
0.449347