/*--------------------------------*- C++ -*----------------------------------*\
  =========                 |
  \\      /  F ield         | OpenFOAM: The Open Source CFD Toolbox
   \\    /   O peration     | Website:  https://openfoam.org
    \\  /    A nd           | Version:  13
     \\/     M anipulation  |
\*---------------------------------------------------------------------------*/
FoamFile
{
    format      ascii;
    class       volScalarField;
    location    "400";
    object      p;
}
// * * * * * * * * * * * * * * * * * * * * * * * * * * * * * * * * * * * * * //

dimensions      [0 2 -2 0 0 0 0];

internalField   nonuniform List<scalar> 
169896
(
15.5151
15.5149
15.5145
15.5138
15.5128
15.5117
15.5103
15.5087
15.5067
15.5045
15.502
15.4992
15.496
15.4924
15.4885
15.4841
15.4793
15.474
15.4683
15.4619
15.455
15.4475
15.4393
15.4303
15.4206
15.41
15.3986
15.3861
15.3726
15.358
15.3421
15.3249
15.3062
15.2861
15.2642
15.2406
15.215
15.1874
15.1575
15.1253
15.0905
15.053
15.0125
14.9688
14.9217
14.871
14.8165
14.7578
14.6946
14.6268
14.554
14.4759
14.3921
14.3023
14.2063
14.1035
13.9938
13.8767
13.7519
13.619
13.4777
13.3278
13.1687
13.0003
12.8223
12.6343
12.4362
12.2277
12.0087
11.779
11.5385
11.2872
11.0252
10.7525
15.5153
15.5151
15.5147
15.514
15.5131
15.5119
15.5106
15.5089
15.507
15.5048
15.5023
15.4995
15.4964
15.4928
15.4889
15.4846
15.4798
15.4745
15.4688
15.4625
15.4556
15.4481
15.44
15.4311
15.4214
15.4109
15.3995
15.3871
15.3737
15.3591
15.3433
15.3262
15.3077
15.2876
15.2659
15.2424
15.217
15.1895
15.1598
15.1277
15.0931
15.0557
15.0154
14.972
14.9251
14.8747
14.8203
14.7619
14.699
14.6315
14.5589
14.4811
14.3976
14.3082
14.2125
14.1101
14.0007
13.8839
13.7595
13.627
13.4861
13.3364
13.1777
13.0097
12.8319
12.6443
12.4464
12.2382
12.0194
11.7899
11.5496
11.2985
11.0365
10.7639
15.5158
15.5156
15.5152
15.5145
15.5136
15.5125
15.5111
15.5095
15.5076
15.5054
15.503
15.5002
15.4971
15.4936
15.4897
15.4854
15.4807
15.4755
15.4699
15.4636
15.4569
15.4494
15.4414
15.4326
15.423
15.4127
15.4014
15.3891
15.3759
15.3615
15.3459
15.3289
15.3106
15.2907
15.2693
15.246
15.2208
15.1936
15.1643
15.1325
15.0982
15.0612
15.0213
14.9783
14.9318
14.8818
14.828
14.7701
14.7077
14.6408
14.5688
14.4916
14.4087
14.32
14.2249
14.1232
14.0145
13.8985
13.7747
13.6429
13.5027
13.3538
13.1958
13.0284
12.8513
12.6643
12.4671
12.2594
12.041
11.812
11.572
11.3212
11.0596
10.7871
15.5165
15.5163
15.5159
15.5152
15.5143
15.5132
15.5119
15.5103
15.5085
15.5063
15.5039
15.5012
15.4981
15.4947
15.4909
15.4867
15.4821
15.477
15.4714
15.4653
15.4587
15.4514
15.4435
15.4348
15.4255
15.4153
15.4042
15.3921
15.3791
15.3649
15.3496
15.333
15.3149
15.2954
15.2743
15.2514
15.2266
15.1999
15.1709
15.1397
15.1059
15.0695
15.0301
14.9877
14.9419
14.8926
14.8395
14.7823
14.7208
14.6546
14.5836
14.5072
14.4253
14.3375
14.2435
14.1428
14.0352
13.9202
13.7975
13.6668
13.5277
13.3799
13.2229
13.0566
12.8805
12.6944
12.4981
12.2912
12.0736
11.8452
11.6058
11.3555
11.0942
10.8221
15.5175
15.5173
15.5169
15.5162
15.5153
15.5143
15.5129
15.5114
15.5096
15.5075
15.5052
15.5025
15.4996
15.4962
15.4925
15.4884
15.4839
15.479
15.4735
15.4676
15.4611
15.454
15.4462
15.4378
15.4287
15.4187
15.4079
15.3961
15.3834
15.3696
15.3546
15.3383
15.3207
15.3016
15.2809
15.2585
15.2343
15.2081
15.1798
15.1492
15.1161
15.0804
15.0418
15.0002
14.9553
14.9069
14.8547
14.7986
14.7381
14.6731
14.6032
14.528
14.4474
14.3609
14.2682
14.1689
14.0627
13.9491
13.8279
13.6987
13.561
13.4146
13.2591
13.0942
12.9194
12.7347
12.5395
12.3337
12.1172
11.8896
11.6511
11.4014
11.1406
10.8689
15.5186
15.5185
15.518
15.5174
15.5166
15.5155
15.5143
15.5128
15.511
15.509
15.5068
15.5042
15.5013
15.4981
15.4945
15.4905
15.4862
15.4814
15.4761
15.4703
15.464
15.4572
15.4497
15.4415
15.4326
15.423
15.4125
15.4011
15.3887
15.3753
15.3607
15.3449
15.3278
15.3093
15.2891
15.2674
15.2438
15.2183
15.1907
15.1609
15.1287
15.0939
15.0563
15.0157
14.9718
14.9246
14.8736
14.8187
14.7596
14.696
14.6275
14.5539
14.4748
14.39
14.2989
14.2014
14.0969
13.9852
13.8658
13.7384
13.6026
13.458
13.3043
13.1411
12.9681
12.7849
12.5913
12.387
12.1717
11.9453
11.7078
11.4589
11.1989
10.9276
15.52
15.5198
15.5195
15.5188
15.518
15.517
15.5158
15.5144
15.5127
15.5108
15.5086
15.5062
15.5034
15.5003
15.4969
15.4931
15.4889
15.4842
15.4792
15.4736
15.4676
15.461
15.4537
15.4459
15.4373
15.428
15.4179
15.4069
15.395
15.3821
15.368
15.3528
15.3363
15.3183
15.2989
15.2779
15.2551
15.2304
15.2038
15.1749
15.1437
15.1099
15.0735
15.0341
14.9916
14.9457
14.8961
14.8428
14.7852
14.7232
14.6565
14.5847
14.5076
14.4246
14.3356
14.2401
14.1378
14.0282
13.911
13.7858
13.6523
13.5099
13.3584
13.1973
13.0264
12.8452
12.6535
12.4509
12.2372
12.0123
11.776
11.5282
11.269
10.9985
15.5216
15.5214
15.5211
15.5205
15.5197
15.5188
15.5176
15.5162
15.5147
15.5128
15.5108
15.5084
15.5058
15.5028
15.4996
15.4959
15.4919
15.4875
15.4827
15.4774
15.4716
15.4653
15.4584
15.4509
15.4428
15.4339
15.4242
15.4137
15.4023
15.3899
15.3764
15.3618
15.346
15.3288
15.3102
15.29
15.2681
15.2444
15.2188
15.191
15.161
15.1285
15.0933
15.0554
15.0143
14.97
14.9222
14.8705
14.8148
14.7548
14.6901
14.6204
14.5454
14.4648
14.3781
14.2851
14.1852
14.0782
13.9636
13.841
13.7101
13.5703
13.4214
13.2629
13.0944
12.9156
12.7261
12.5256
12.3139
12.0907
11.8559
11.6095
11.3514
11.0816
15.5234
15.5232
15.5229
15.5223
15.5216
15.5207
15.5196
15.5183
15.5168
15.5151
15.5132
15.511
15.5085
15.5057
15.5026
15.4992
15.4954
15.4913
15.4867
15.4817
15.4762
15.4702
15.4637
15.4566
15.4489
15.4404
15.4313
15.4213
15.4105
15.3987
15.3859
15.372
15.357
15.3406
15.3229
15.3037
15.2828
15.2602
15.2357
15.2092
15.1805
15.1494
15.1158
15.0794
15.04
14.9975
14.9515
14.9019
14.8483
14.7905
14.7281
14.6608
14.5884
14.5103
14.4264
14.3361
14.2391
14.135
14.0234
13.9038
13.7759
13.6392
13.4932
13.3377
13.1721
12.996
12.8092
12.6112
12.4017
12.1806
11.9477
11.7028
11.446
11.1773
15.5253
15.5252
15.5249
15.5244
15.5237
15.5228
15.5218
15.5206
15.5193
15.5177
15.5159
15.5138
15.5115
15.5089
15.506
15.5028
15.4992
15.4954
15.4911
15.4864
15.4813
15.4757
15.4695
15.4629
15.4556
15.4477
15.4391
15.4297
15.4195
15.4084
15.3964
15.3833
15.3691
15.3537
15.337
15.3188
15.2991
15.2777
15.2545
15.2293
15.2021
15.1726
15.1406
15.106
15.0686
15.028
14.9842
14.9368
14.8855
14.8302
14.7704
14.7058
14.6362
14.5611
14.4802
14.393
14.2993
14.1985
14.0902
13.9741
13.8496
13.7163
13.5738
13.4216
13.2593
13.0865
12.9027
12.7076
12.5008
12.2821
12.0513
11.8084
11.5532
11.2858
15.5275
15.5274
15.5271
15.5266
15.526
15.5252
15.5243
15.5232
15.5219
15.5204
15.5188
15.5169
15.5147
15.5123
15.5097
15.5067
15.5034
15.4998
15.4959
15.4915
15.4868
15.4816
15.4759
15.4697
15.463
15.4556
15.4476
15.4389
15.4294
15.4191
15.4078
15.3956
15.3824
15.368
15.3523
15.3353
15.3168
15.2967
15.275
15.2514
15.2257
15.198
15.1678
15.1352
15.0998
15.0615
15.02
14.975
14.9263
14.8737
14.8168
14.7552
14.6887
14.6168
14.5393
14.4557
14.3655
14.2684
14.1639
14.0516
13.931
13.8016
13.663
13.5146
13.3561
13.1869
13.0066
12.8148
12.6111
12.3952
12.1671
11.9264
11.6731
11.4073
15.5298
15.5297
15.5294
15.529
15.5284
15.5277
15.5269
15.5259
15.5247
15.5234
15.5219
15.5201
15.5182
15.516
15.5136
15.5109
15.5079
15.5046
15.501
15.4971
15.4927
15.4879
15.4827
15.4771
15.4709
15.4641
15.4567
15.4487
15.44
15.4305
15.4202
15.4089
15.3967
15.3833
15.3688
15.3531
15.3359
15.3173
15.2971
15.2751
15.2513
15.2253
15.1972
15.1667
15.1336
15.0976
15.0586
15.0163
14.9705
14.9208
14.867
14.8088
14.7457
14.6774
14.6036
14.5238
14.4376
14.3446
14.2443
14.1362
14.0199
13.8949
13.7606
13.6165
13.4622
13.2971
13.1208
12.9327
12.7326
12.5201
12.2949
12.0568
11.8059
11.542
15.5322
15.5321
15.5319
15.5315
15.531
15.5304
15.5296
15.5287
15.5277
15.5265
15.5252
15.5237
15.5219
15.52
15.5178
15.5154
15.5127
15.5097
15.5065
15.5029
15.499
15.4947
15.49
15.4849
15.4793
15.4732
15.4665
15.4592
15.4513
15.4427
15.4333
15.423
15.4119
15.3997
15.3865
15.3721
15.3564
15.3393
15.3207
15.3005
15.2785
15.2546
15.2286
15.2004
15.1697
15.1363
15.1
15.0607
15.0179
14.9714
14.921
14.8663
14.8069
14.7425
14.6727
14.5972
14.5153
14.4268
14.3311
14.2277
14.1161
13.9958
13.8664
13.7271
13.5775
13.417
13.2452
13.0614
12.8653
12.6565
12.4348
12.1998
11.9516
11.6901
15.5348
15.5347
15.5345
15.5342
15.5337
15.5332
15.5325
15.5318
15.5309
15.5299
15.5287
15.5273
15.5258
15.5241
15.5222
15.5201
15.5177
15.5151
15.5123
15.5091
15.5057
15.5019
15.4977
15.4932
15.4882
15.4828
15.4768
15.4703
15.4633
15.4556
15.4472
15.438
15.428
15.417
15.4051
15.3921
15.3779
15.3625
15.3457
15.3273
15.3074
15.2856
15.2619
15.2361
15.2079
15.1773
15.144
15.1077
15.0682
15.0252
14.9784
14.9275
14.8721
14.8119
14.7465
14.6755
14.5983
14.5147
14.4239
14.3257
14.2193
14.1043
13.9801
13.8461
13.7018
13.5464
13.3796
13.2006
13.0091
12.8046
12.5868
12.3554
12.1104
11.8517
15.5375
15.5374
15.5372
15.537
15.5366
15.5361
15.5356
15.5349
15.5342
15.5333
15.5323
15.5312
15.5299
15.5285
15.5268
15.525
15.523
15.5208
15.5183
15.5156
15.5126
15.5093
15.5057
15.5018
15.4975
15.4928
15.4876
15.482
15.4758
15.469
15.4617
15.4536
15.4448
15.4352
15.4246
15.4131
15.4006
15.3868
15.3719
15.3555
15.3376
15.3181
15.2968
15.2736
15.2482
15.2205
15.1902
15.1572
15.1212
15.0818
15.0389
14.9921
14.941
14.8853
14.8246
14.7584
14.6864
14.6079
14.5226
14.4299
14.3292
14.2199
14.1015
13.9733
13.8347
13.6851
13.5238
13.3502
13.1638
12.9641
12.7508
12.5236
12.2823
12.0268
15.5403
15.5402
15.5401
15.5399
15.5396
15.5392
15.5387
15.5382
15.5376
15.5369
15.5361
15.5352
15.5341
15.533
15.5316
15.5301
15.5285
15.5266
15.5246
15.5223
15.5198
15.5171
15.5141
15.5108
15.5071
15.5032
15.4988
15.494
15.4888
15.483
15.4767
15.4699
15.4623
15.454
15.4449
15.435
15.4241
15.4122
15.3991
15.3848
15.3692
15.352
15.3332
15.3127
15.2902
15.2655
15.2385
15.209
15.1766
15.1411
15.1023
15.0598
15.0132
14.9623
14.9066
14.8456
14.779
14.7062
14.6267
14.5399
14.4453
14.3422
14.2301
14.1083
13.976
13.8326
13.6774
13.5098
13.3291
13.1349
12.9267
12.7042
12.4672
12.2155
15.5432
15.5431
15.543
15.5428
15.5426
15.5423
15.542
15.5416
15.5412
15.5406
15.54
15.5393
15.5385
15.5376
15.5366
15.5354
15.5341
15.5326
15.531
15.5292
15.5273
15.5251
15.5227
15.52
15.5171
15.5139
15.5103
15.5064
15.5022
15.4975
15.4923
15.4866
15.4804
15.4735
15.4659
15.4576
15.4484
15.4384
15.4273
15.4151
15.4018
15.3871
15.371
15.3532
15.3337
15.3122
15.2886
15.2627
15.2341
15.2027
15.1682
15.1302
15.0885
15.0426
14.9922
14.9367
14.8758
14.809
14.7357
14.6553
14.5673
14.4709
14.3656
14.2506
14.1252
13.9886
13.8402
13.6792
13.5049
13.3167
13.1143
12.8971
12.665
12.4177
15.5461
15.5461
15.546
15.5459
15.5457
15.5455
15.5453
15.5451
15.5448
15.5444
15.544
15.5435
15.543
15.5423
15.5416
15.5408
15.5398
15.5388
15.5376
15.5363
15.5349
15.5333
15.5315
15.5295
15.5273
15.5248
15.5221
15.5192
15.5159
15.5122
15.5082
15.5038
15.4989
15.4934
15.4874
15.4807
15.4734
15.4652
15.4562
15.4463
15.4353
15.4231
15.4097
15.3949
15.3785
15.3603
15.3402
15.318
15.2935
15.2663
15.2363
15.2031
15.1664
15.1258
15.0809
15.0313
14.9765
14.916
14.8492
14.7756
14.6946
14.6054
14.5074
14.3998
14.2818
14.1527
14.0116
13.8578
13.6905
13.5091
13.3131
13.102
12.8754
12.6332
15.5491
15.5491
15.549
15.5489
15.5489
15.5488
15.5487
15.5486
15.5484
15.5482
15.548
15.5478
15.5475
15.5471
15.5467
15.5462
15.5457
15.545
15.5443
15.5435
15.5426
15.5416
15.5404
15.5391
15.5376
15.536
15.5342
15.5321
15.5298
15.5273
15.5244
15.5213
15.5177
15.5137
15.5093
15.5043
15.4988
15.4926
15.4857
15.4781
15.4695
15.46
15.4493
15.4375
15.4243
15.4095
15.3931
15.3748
15.3544
15.3316
15.3062
15.278
15.2465
15.2114
15.1723
15.1287
15.0803
15.0265
14.9667
14.9003
14.8267
14.7451
14.6549
14.5552
14.4452
14.3241
14.191
14.0451
13.8855
13.7116
13.5227
13.3183
13.0981
12.8617
15.5521
15.5521
15.5521
15.5521
15.552
15.552
15.5521
15.5521
15.5521
15.5521
15.5521
15.5521
15.5521
15.552
15.5519
15.5517
15.5516
15.5513
15.5511
15.5508
15.5504
15.5499
15.5494
15.5488
15.5481
15.5472
15.5463
15.5452
15.5439
15.5425
15.5408
15.5389
15.5368
15.5343
15.5315
15.5282
15.5245
15.5204
15.5156
15.5103
15.5042
15.4973
15.4895
15.4807
15.4708
15.4595
15.4469
15.4325
15.4164
15.3981
15.3776
15.3544
15.3283
15.2989
15.2659
15.2287
15.1869
15.1401
15.0876
15.0287
14.9629
14.8894
14.8075
14.7162
14.6148
14.5023
14.3779
14.2405
14.0893
13.9236
13.7425
13.5457
13.3325
13.1028
15.5551
15.5551
15.5551
15.5552
15.5552
15.5553
15.5555
15.5556
15.5558
15.556
15.5562
15.5564
15.5566
15.5568
15.5571
15.5573
15.5575
15.5577
15.5579
15.558
15.5582
15.5584
15.5585
15.5585
15.5586
15.5586
15.5585
15.5583
15.5581
15.5578
15.5573
15.5567
15.5559
15.555
15.5537
15.5523
15.5505
15.5483
15.5458
15.5427
15.5392
15.535
15.5301
15.5244
15.5178
15.5101
15.5012
15.491
15.4791
15.4655
15.4499
15.432
15.4114
15.3879
15.3611
15.3305
15.2957
15.2561
15.2111
15.1602
15.1026
15.0376
14.9644
14.8821
14.7898
14.6865
14.5713
14.4431
14.301
14.1441
13.9717
13.7832
13.5779
13.3556
15.5581
15.5581
15.5582
15.5583
15.5584
15.5586
15.5588
15.5591
15.5595
15.5599
15.5603
15.5607
15.5612
15.5617
15.5622
15.5628
15.5634
15.564
15.5646
15.5653
15.566
15.5667
15.5675
15.5683
15.569
15.5698
15.5707
15.5715
15.5723
15.573
15.5738
15.5745
15.5751
15.5756
15.576
15.5763
15.5764
15.5763
15.5759
15.5752
15.5742
15.5727
15.5708
15.5682
15.565
15.5609
15.5559
15.5497
15.5423
15.5334
15.5228
15.5102
15.4954
15.4779
15.4575
15.4336
15.4059
15.3738
15.3367
15.294
15.245
15.1889
15.1248
15.0519
14.9692
14.8757
14.7703
14.6519
14.5196
14.3724
14.2094
14.0299
13.8333
13.6194
15.561
15.5611
15.5612
15.5613
15.5615
15.5618
15.5622
15.5626
15.5631
15.5637
15.5643
15.565
15.5657
15.5665
15.5673
15.5682
15.5692
15.5702
15.5713
15.5725
15.5737
15.5751
15.5764
15.5779
15.5794
15.581
15.5827
15.5845
15.5863
15.5882
15.5901
15.5921
15.5941
15.5962
15.5982
15.6002
15.6022
15.6041
15.6059
15.6076
15.6091
15.6104
15.6113
15.6119
15.612
15.6116
15.6104
15.6085
15.6055
15.6014
15.5958
15.5887
15.5796
15.5683
15.5544
15.5374
15.517
15.4926
15.4636
15.4294
15.3892
15.3423
15.2878
15.2248
15.1522
15.0689
14.9739
14.866
14.7441
14.6072
14.4543
14.2847
14.0977
13.8929
15.5639
15.564
15.5641
15.5643
15.5646
15.565
15.5655
15.566
15.5667
15.5674
15.5682
15.5691
15.5701
15.5712
15.5723
15.5736
15.5749
15.5764
15.5779
15.5796
15.5813
15.5832
15.5852
15.5874
15.5897
15.5921
15.5946
15.5973
15.6001
15.6031
15.6062
15.6095
15.6129
15.6164
15.62
15.6238
15.6276
15.6316
15.6356
15.6396
15.6436
15.6476
15.6514
15.6552
15.6587
15.6618
15.6646
15.6668
15.6683
15.6689
15.6685
15.6668
15.6636
15.6585
15.6511
15.6412
15.6282
15.6117
15.591
15.5655
15.5344
15.497
15.4524
15.3996
15.3375
15.2649
15.1809
15.084
14.9732
14.8473
14.7053
14.5463
14.3696
14.1748
15.5668
15.5668
15.567
15.5673
15.5676
15.5681
15.5687
15.5694
15.5702
15.5711
15.5721
15.5732
15.5745
15.5758
15.5773
15.5788
15.5805
15.5824
15.5844
15.5865
15.5888
15.5912
15.5939
15.5967
15.5997
15.6028
15.6062
15.6098
15.6137
15.6177
15.622
15.6265
15.6313
15.6363
15.6415
15.6469
15.6526
15.6585
15.6647
15.671
15.6775
15.6841
15.6909
15.6977
15.7046
15.7113
15.7179
15.7243
15.7302
15.7356
15.7403
15.7441
15.7467
15.7478
15.7472
15.7443
15.7388
15.7302
15.7179
15.7013
15.6796
15.6519
15.6174
15.5752
15.5239
15.4626
15.3899
15.3046
15.2054
15.0911
14.9606
14.813
14.6474
14.4635
15.5695
15.5696
15.5698
15.5701
15.5705
15.5711
15.5718
15.5726
15.5736
15.5746
15.5759
15.5772
15.5787
15.5803
15.582
15.5839
15.586
15.5882
15.5906
15.5932
15.596
15.599
15.6022
15.6057
15.6094
15.6133
15.6175
15.622
15.6268
15.6319
15.6374
15.6431
15.6492
15.6556
15.6624
15.6695
15.677
15.6848
15.693
15.7016
15.7106
15.7198
15.7294
15.7393
15.7494
15.7597
15.7701
15.7806
15.7909
15.8011
15.8108
15.82
15.8284
15.8358
15.8417
15.846
15.848
15.8475
15.8436
15.836
15.8237
15.8059
15.7818
15.7503
15.7103
15.6605
15.5996
15.5262
15.4392
15.3371
15.2187
15.0831
14.9293
14.757
15.5722
15.5723
15.5725
15.5728
15.5733
15.574
15.5748
15.5757
15.5768
15.5781
15.5795
15.581
15.5827
15.5846
15.5866
15.5888
15.5912
15.5938
15.5966
15.5997
15.603
15.6065
15.6103
15.6144
15.6187
15.6234
15.6285
15.6338
15.6396
15.6457
15.6522
15.6591
15.6665
15.6743
15.6825
15.6913
15.7005
15.7102
15.7205
15.7313
15.7426
15.7544
15.7668
15.7796
15.793
15.8067
15.8209
15.8353
15.85
15.8647
15.8795
15.894
15.9082
15.9217
15.9342
15.9455
15.9551
15.9625
15.9671
15.9684
15.9656
15.9579
15.9443
15.9237
15.8951
15.857
15.8082
15.7473
15.6727
15.5832
15.4775
15.3545
15.2132
15.0532
15.5747
15.5748
15.575
15.5754
15.576
15.5767
15.5776
15.5787
15.5799
15.5813
15.5829
15.5846
15.5865
15.5887
15.591
15.5935
15.5962
15.5992
15.6024
15.6059
15.6096
15.6137
15.618
15.6227
15.6277
15.6331
15.6389
15.6451
15.6517
15.6588
15.6664
15.6744
15.683
15.6921
15.7018
15.7121
15.7231
15.7346
15.7468
15.7598
15.7734
15.7877
15.8027
15.8184
15.8349
15.852
15.8697
15.888
15.9069
15.9262
15.9458
15.9656
15.9853
16.0049
16.0239
16.0421
16.059
16.0743
16.0874
16.0976
16.1043
16.1066
16.1035
16.094
16.0768
16.0507
16.0142
15.9658
15.9041
15.8276
15.735
15.625
15.4967
15.3495
15.577
15.5772
15.5774
15.5779
15.5785
15.5793
15.5803
15.5815
15.5828
15.5844
15.5861
15.5881
15.5902
15.5925
15.5951
15.5979
15.6009
15.6042
15.6078
15.6117
15.6159
15.6204
15.6253
15.6306
15.6362
15.6423
15.6488
15.6558
15.6633
15.6713
15.6798
15.689
15.6987
15.7091
15.7202
15.732
15.7445
15.7578
15.7719
15.7868
15.8026
15.8193
15.8369
15.8554
15.8748
15.8951
15.9164
15.9384
15.9613
15.985
16.0093
16.0341
16.0593
16.0847
16.11
16.135
16.1592
16.1822
16.2035
16.2226
16.2386
16.2507
16.2581
16.2595
16.2539
16.2397
16.2156
16.18
16.1313
16.068
15.9887
15.8921
15.7771
15.6433
15.5793
15.5794
15.5797
15.5802
15.5809
15.5818
15.5828
15.5841
15.5856
15.5873
15.5892
15.5913
15.5936
15.5962
15.599
15.602
15.6054
15.609
15.6129
15.6172
15.6218
15.6268
15.6322
15.638
15.6442
15.6509
15.6581
15.6658
15.6741
15.683
15.6925
15.7027
15.7135
15.7251
15.7375
15.7507
15.7647
15.7797
15.7955
15.8124
15.8303
15.8492
15.8692
15.8903
15.9125
15.9359
15.9605
15.9861
16.0129
16.0407
16.0695
16.0992
16.1296
16.1606
16.192
16.2234
16.2546
16.2851
16.3145
16.3421
16.3672
16.3891
16.4067
16.4189
16.4246
16.4223
16.4105
16.3876
16.352
16.302
16.2362
16.1531
16.0517
15.9315
15.5813
15.5814
15.5818
15.5823
15.5831
15.584
15.5852
15.5865
15.5881
15.5899
15.592
15.5942
15.5968
15.5995
15.6026
15.6059
15.6095
15.6134
15.6177
15.6223
15.6273
15.6327
15.6385
15.6448
15.6516
15.6589
15.6667
15.6751
15.6842
15.6939
15.7043
15.7154
15.7273
15.74
15.7536
15.7681
15.7835
15.8
15.8175
15.8362
15.856
15.877
15.8993
15.9229
15.9478
15.974
16.0017
16.0307
16.0611
16.0928
16.1259
16.1601
16.1955
16.2319
16.269
16.3066
16.3445
16.3822
16.4192
16.4551
16.489
16.5202
16.5478
16.5706
16.5873
16.5966
16.5969
16.5866
16.5639
16.5271
16.4746
16.405
16.3173
16.2108
15.5832
15.5833
15.5837
15.5842
15.585
15.586
15.5873
15.5887
15.5904
15.5924
15.5945
15.597
15.5996
15.6026
15.6058
15.6094
15.6132
15.6174
15.622
15.6269
15.6323
15.6381
15.6443
15.6511
15.6584
15.6662
15.6746
15.6837
15.6934
15.7038
15.715
15.727
15.7399
15.7536
15.7683
15.784
15.8008
15.8187
15.8377
15.8581
15.8797
15.9026
15.927
15.9529
15.9802
16.0091
16.0397
16.0718
16.1056
16.141
16.178
16.2166
16.2566
16.2979
16.3404
16.3839
16.4281
16.4725
16.5168
16.5605
16.6028
16.6429
16.68
16.7128
16.7402
16.7607
16.7727
16.7745
16.7644
16.7405
16.7011
16.6448
16.5705
16.4774
15.5848
15.585
15.5854
15.586
15.5868
15.5879
15.5892
15.5907
15.5925
15.5945
15.5968
15.5994
15.6022
15.6053
15.6088
15.6125
15.6166
15.6211
15.6259
15.6311
15.6368
15.643
15.6496
15.6567
15.6645
15.6728
15.6817
15.6914
15.7017
15.7129
15.7248
15.7376
15.7513
15.766
15.7817
15.7985
15.8164
15.8356
15.8561
15.8779
15.9011
15.9258
15.9521
15.9801
16.0097
16.041
16.0742
16.1092
16.1461
16.1848
16.2255
16.2679
16.3122
16.3582
16.4057
16.4545
16.5045
16.5552
16.6063
16.6572
16.7073
16.7558
16.8018
16.8441
16.8816
16.9127
16.9358
16.9492
16.951
16.9395
16.9127
16.8692
16.8078
16.7278
15.5863
15.5865
15.5868
15.5875
15.5883
15.5895
15.5908
15.5924
15.5943
15.5964
15.5988
15.6015
15.6045
15.6078
15.6114
15.6153
15.6196
15.6242
15.6293
15.6348
15.6408
15.6472
15.6542
15.6617
15.6699
15.6786
15.688
15.6982
15.7091
15.7208
15.7334
15.7469
15.7614
15.7769
15.7935
15.8113
15.8303
15.8506
15.8723
15.8955
15.9202
15.9465
15.9745
16.0043
16.0359
16.0694
16.1049
16.1425
16.1822
16.2239
16.2678
16.3138
16.3619
16.4121
16.4641
16.5178
16.5731
16.6295
16.6867
16.7442
16.8015
16.8576
16.9118
16.9628
17.0096
17.0505
17.084
17.1082
17.1212
17.1212
17.1063
17.0748
17.0256
16.9579
15.5875
15.5877
15.5881
15.5888
15.5897
15.5908
15.5922
15.5939
15.5959
15.5981
15.6006
15.6034
15.6064
15.6098
15.6136
15.6177
15.6221
15.627
15.6323
15.638
15.6442
15.6509
15.6582
15.6661
15.6745
15.6837
15.6935
15.7041
15.7155
15.7277
15.7409
15.755
15.7701
15.7864
15.8038
15.8224
15.8423
15.8636
15.8864
15.9107
15.9367
15.9644
15.9939
16.0253
16.0587
16.0941
16.1317
16.1715
16.2136
16.258
16.3047
16.3539
16.4053
16.4591
16.5151
16.5731
16.633
16.6945
16.7572
16.8206
16.8842
16.9472
17.0086
17.0676
17.1226
17.1724
17.2152
17.2492
17.2724
17.2829
17.2788
17.2583
17.2202
17.1637
15.5885
15.5887
15.5891
15.5898
15.5907
15.5919
15.5934
15.5951
15.5971
15.5994
15.602
15.6049
15.608
15.6116
15.6154
15.6196
15.6242
15.6293
15.6347
15.6406
15.6471
15.654
15.6615
15.6696
15.6784
15.6879
15.698
15.709
15.7208
15.7335
15.7471
15.7617
15.7774
15.7943
15.8123
15.8317
15.8524
15.8745
15.8982
15.9235
15.9506
15.9794
16.0102
16.0429
16.0778
16.1149
16.1542
16.1959
16.24
16.2867
16.3359
16.3876
16.442
16.4989
16.5583
16.62
16.6839
16.7496
16.817
16.8855
16.9545
17.0234
17.0912
17.1569
17.2192
17.2766
17.3276
17.3701
17.4022
17.422
17.4273
17.4164
17.388
17.3414
15.5893
15.5895
15.5899
15.5906
15.5916
15.5928
15.5943
15.5961
15.5981
15.6004
15.6031
15.606
15.6093
15.6129
15.6168
15.6212
15.6259
15.631
15.6366
15.6427
15.6493
15.6564
15.6642
15.6725
15.6815
15.6912
15.7016
15.7129
15.725
15.7381
15.7521
15.7671
15.7833
15.8006
15.8192
15.8391
15.8604
15.8833
15.9077
15.9338
15.9617
15.9915
16.0233
16.0571
16.0932
16.1315
16.1723
16.2155
16.2613
16.3098
16.361
16.4149
16.4716
16.531
16.5931
16.6578
16.7249
16.7943
16.8654
16.9381
17.0116
17.0852
17.1583
17.2295
17.2978
17.3616
17.4193
17.4689
17.5084
17.5358
17.549
17.5462
17.5259
17.4874
15.5898
15.59
15.5905
15.5912
15.5922
15.5934
15.5949
15.5967
15.5988
15.6012
15.6039
15.6069
15.6102
15.6138
15.6179
15.6223
15.6271
15.6323
15.638
15.6442
15.6509
15.6582
15.6661
15.6746
15.6837
15.6936
15.7043
15.7158
15.7281
15.7414
15.7557
15.7711
15.7876
15.8053
15.8243
15.8446
15.8664
15.8897
15.9147
15.9414
15.97
16.0005
16.033
16.0677
16.1047
16.144
16.1858
16.2302
16.2773
16.3271
16.3798
16.4353
16.4937
16.5551
16.6193
16.6863
16.7558
16.8278
16.9019
16.9777
17.0546
17.132
17.209
17.2845
17.3573
17.426
17.4888
17.5439
17.5891
17.6224
17.6417
17.645
17.6309
17.5986
15.5901
15.5903
15.5908
15.5915
15.5925
15.5937
15.5953
15.5971
15.5992
15.6016
15.6043
15.6073
15.6107
15.6144
15.6185
15.6229
15.6278
15.6331
15.6389
15.6451
15.6519
15.6593
15.6673
15.6759
15.6851
15.6952
15.7059
15.7176
15.7301
15.7436
15.7581
15.7736
15.7904
15.8083
15.8275
15.8482
15.8703
15.8939
15.9193
15.9464
15.9754
16.0063
16.0394
16.0746
16.1122
16.1522
16.1947
16.2398
16.2877
16.3385
16.3921
16.4487
16.5083
16.5709
16.6365
16.705
16.7762
16.85
16.926
17.0039
17.0831
17.1629
17.2426
17.321
17.3969
17.4688
17.5351
17.5938
17.6429
17.6801
17.7034
17.7109
17.701
17.6728
15.5925
15.5938
15.5953
15.5972
15.5993
15.6017
15.6044
15.6075
15.6108
15.6146
15.6187
15.6231
15.628
15.6334
15.6392
15.6455
15.6523
15.6597
15.6677
15.6764
15.6857
15.6958
15.7066
15.7183
15.7309
15.7445
15.7591
15.7747
15.7915
15.8096
15.829
15.8497
15.872
15.8958
15.9213
15.9486
15.9778
16.009
16.0423
16.0778
16.1156
16.1559
16.1988
16.2443
16.2926
16.3438
16.3979
16.455
16.5152
16.5784
16.6447
16.7139
16.7859
16.8605
16.9375
17.0163
17.0966
17.1776
17.2586
17.3383
17.4157
17.4893
17.5572
17.6177
17.6685
17.7076
17.7328
17.7422
17.7341
17.7078
17.6155
17.6662
17.7051
17.7302
17.7394
17.5873
17.6359
17.6727
17.6955
17.7024
15.5018
15.5016
15.5011
15.5003
15.4992
15.4979
15.4964
15.4945
15.4923
15.4898
15.487
15.4838
15.4802
15.4763
15.4718
15.467
15.4617
15.4558
15.4494
15.4425
15.4349
15.4266
15.4177
15.4079
15.3974
15.3859
15.3735
15.3601
15.3456
15.33
15.313
15.2947
15.2749
15.2536
15.2305
15.2056
15.1788
15.1499
15.1187
15.0851
15.049
15.01
14.9681
14.923
14.8746
14.8225
14.7666
14.7065
14.6421
14.5731
14.4991
14.4198
14.335
14.2443
14.1475
14.0441
13.9338
13.8164
13.6914
13.5585
13.4175
13.2681
13.1098
12.9425
12.7658
12.5794
12.3833
12.177
11.9606
11.7338
11.4966
11.249
10.9909
10.7224
15.502
15.5018
15.5013
15.5005
15.4995
15.4982
15.4966
15.4948
15.4926
15.4901
15.4873
15.4841
15.4806
15.4766
15.4722
15.4674
15.4621
15.4563
15.4499
15.443
15.4355
15.4273
15.4183
15.4087
15.3982
15.3868
15.3745
15.3611
15.3467
15.3311
15.3143
15.296
15.2763
15.2551
15.2321
15.2074
15.1807
15.1519
15.1209
15.0874
15.0514
15.0127
14.971
14.9261
14.8778
14.826
14.7703
14.7105
14.6463
14.5775
14.5038
14.4248
14.3403
14.2499
14.1534
14.0503
13.9404
13.8233
13.6986
13.5661
13.4255
13.2763
13.1184
12.9514
12.775
12.5889
12.393
12.1871
11.9708
11.7443
11.5073
11.2597
11.0018
10.7334
15.5025
15.5023
15.5018
15.501
15.5
15.4987
15.4971
15.4953
15.4932
15.4907
15.4879
15.4848
15.4813
15.4774
15.473
15.4683
15.463
15.4573
15.451
15.4441
15.4367
15.4285
15.4197
15.4101
15.3997
15.3885
15.3763
15.3631
15.3488
15.3334
15.3167
15.2986
15.2792
15.2581
15.2354
15.2109
15.1844
15.1559
15.1252
15.092
15.0564
15.018
14.9766
14.9321
14.8843
14.8329
14.7776
14.7183
14.6547
14.5864
14.5132
14.4348
14.3509
14.2611
14.1652
14.0628
13.9535
13.8371
13.7131
13.5813
13.4413
13.2929
13.1356
12.9692
12.7935
12.608
12.4127
12.2073
11.9915
11.7654
11.5288
11.2816
11.0239
10.7557
15.5032
15.503
15.5025
15.5017
15.5007
15.4994
15.4979
15.4961
15.494
15.4916
15.4889
15.4858
15.4823
15.4785
15.4742
15.4695
15.4644
15.4587
15.4525
15.4458
15.4384
15.4304
15.4217
15.4123
15.4021
15.391
15.379
15.366
15.3519
15.3367
15.3203
15.3025
15.2833
15.2626
15.2402
15.2161
15.19
15.1619
15.1316
15.0989
15.0637
15.0259
14.9851
14.9412
14.894
14.8432
14.7886
14.73
14.6671
14.5997
14.5273
14.4498
14.3667
14.2779
14.1829
14.0815
13.9732
13.8578
13.7349
13.6041
13.4651
13.3177
13.1614
12.996
12.8212
12.6367
12.4423
12.2377
12.0227
11.7972
11.5612
11.3145
11.0572
10.7894
15.5041
15.5039
15.5034
15.5027
15.5017
15.5004
15.4989
15.4972
15.4951
15.4928
15.4901
15.4871
15.4837
15.4799
15.4758
15.4712
15.4661
15.4606
15.4546
15.448
15.4408
15.4329
15.4244
15.4152
15.4052
15.3943
15.3826
15.3699
15.3561
15.3412
15.3251
15.3077
15.2889
15.2686
15.2466
15.223
15.1974
15.1698
15.1401
15.1081
15.0735
15.0363
14.9963
14.9532
14.9068
14.8569
14.8032
14.7456
14.6837
14.6173
14.546
14.4696
14.3878
14.3002
14.2065
14.1063
13.9994
13.8853
13.7638
13.6344
13.4968
13.3508
13.1959
13.0318
12.8583
12.675
12.4818
12.2782
12.0642
11.8397
11.6044
11.3585
11.1018
10.8344
15.5052
15.5051
15.5046
15.5039
15.5029
15.5017
15.5002
15.4985
15.4965
15.4942
15.4916
15.4887
15.4854
15.4818
15.4777
15.4733
15.4683
15.463
15.4571
15.4506
15.4437
15.436
15.4278
15.4188
15.409
15.3985
15.387
15.3746
15.3612
15.3467
15.3311
15.3141
15.2958
15.276
15.2546
15.2315
15.2066
15.1797
15.1506
15.1194
15.0856
15.0493
15.0102
14.968
14.9227
14.8738
14.8213
14.7649
14.7043
14.6392
14.5693
14.4943
14.414
14.3279
14.2358
14.1373
14.032
13.9196
13.7998
13.6721
13.5363
13.392
13.2388
13.0765
12.9046
12.7229
12.5311
12.329
12.1163
11.8929
11.6587
11.4136
11.1577
10.8909
15.5066
15.5064
15.506
15.5053
15.5043
15.5032
15.5017
15.5001
15.4982
15.496
15.4935
15.4906
15.4875
15.4839
15.48
15.4757
15.4709
15.4657
15.4601
15.4538
15.4471
15.4397
15.4317
15.423
15.4136
15.4034
15.3923
15.3803
15.3673
15.3533
15.3381
15.3217
15.3039
15.2848
15.264
15.2416
15.2174
15.1913
15.1632
15.1328
15.1001
15.0647
15.0267
14.9857
14.9416
14.894
14.8429
14.7879
14.7288
14.6652
14.597
14.5237
14.4452
14.361
14.2707
14.1742
14.0709
13.9606
13.8429
13.7173
13.5836
13.4414
13.2903
13.1299
12.96
12.7803
12.5903
12.3899
12.1787
11.9568
11.7239
11.4799
11.2249
10.959
15.5081
15.508
15.5075
15.5069
15.506
15.5048
15.5035
15.5019
15.5001
15.498
15.4955
15.4928
15.4898
15.4864
15.4827
15.4785
15.474
15.469
15.4635
15.4575
15.451
15.444
15.4363
15.4279
15.4189
15.409
15.3984
15.3869
15.3744
15.3609
15.3463
15.3304
15.3134
15.2949
15.2749
15.2533
15.23
15.2048
15.1776
15.1483
15.1167
15.0826
15.0458
15.0061
14.9634
14.9174
14.8678
14.8145
14.7571
14.6954
14.629
14.5578
14.4813
14.3992
14.3113
14.217
14.1161
14.0082
13.8928
13.7698
13.6385
13.4988
13.3501
13.1922
13.0247
12.8472
12.6594
12.461
12.2518
12.0315
11.8002
11.5576
11.3038
11.0388
15.5099
15.5097
15.5093
15.5087
15.5078
15.5068
15.5055
15.504
15.5022
15.5002
15.4979
15.4953
15.4924
15.4892
15.4856
15.4817
15.4773
15.4726
15.4674
15.4617
15.4555
15.4487
15.4414
15.4334
15.4248
15.4154
15.4052
15.3942
15.3823
15.3694
15.3554
15.3403
15.324
15.3063
15.2871
15.2665
15.2441
15.22
15.1939
15.1658
15.1354
15.1027
15.0673
15.0292
14.988
14.9437
14.8959
14.8445
14.7891
14.7295
14.6653
14.5964
14.5222
14.4426
14.3572
14.2655
14.1673
14.0622
13.9497
13.8294
13.701
13.5641
13.4183
13.2632
13.0984
12.9236
12.7383
12.5423
12.3353
12.1172
11.8877
11.6467
11.3944
11.1305
15.5118
15.5117
15.5113
15.5107
15.5099
15.5089
15.5076
15.5062
15.5046
15.5027
15.5005
15.4981
15.4953
15.4923
15.4889
15.4852
15.4811
15.4766
15.4716
15.4663
15.4604
15.454
15.4471
15.4395
15.4313
15.4224
15.4128
15.4024
15.3911
15.3788
15.3656
15.3512
15.3357
15.3189
15.3007
15.281
15.2598
15.2368
15.212
15.1852
15.1562
15.1249
15.0912
15.0547
15.0154
14.973
14.9272
14.8778
14.8247
14.7674
14.7057
14.6393
14.5678
14.491
14.4084
14.3197
14.2245
14.1225
14.0131
13.8961
13.771
13.6373
13.4948
13.3429
13.1812
13.0094
12.827
12.6338
12.4295
12.2137
11.9864
11.7475
11.4968
11.2344
15.5139
15.5138
15.5134
15.5128
15.5121
15.5111
15.51
15.5087
15.5071
15.5054
15.5033