/*--------------------------------*- C++ -*----------------------------------*\
  =========                 |
  \\      /  F ield         | OpenFOAM: The Open Source CFD Toolbox
   \\    /   O peration     | Website:  https://openfoam.org
    \\  /    A nd           | Version:  13
     \\/     M anipulation  |
\*---------------------------------------------------------------------------*/
FoamFile
{
    format      ascii;
    class       volScalarField;
    location    "1000";
    object      k;
}
// * * * * * * * * * * * * * * * * * * * * * * * * * * * * * * * * * * * * * //

dimensions      [0 2 -2 0 0 0 0];

internalField   nonuniform List<scalar> 
172290
(
0.623748
0.617447
0.611261
0.605187
0.599223
0.593365
0.58761
0.581957
0.576402
0.570943
0.565578
0.560304
0.555119
0.55002
0.545007
0.540076
0.535226
0.530455
0.525761
0.521142
0.516596
0.512123
0.507719
0.503384
0.499116
0.494914
0.490775
0.486699
0.482685
0.478731
0.474835
0.470997
0.467215
0.463489
0.459816
0.456197
0.452629
0.449113
0.445646
0.442228
0.438858
0.435536
0.432259
0.429029
0.425843
0.422701
0.419603
0.416548
0.413534
0.410563
0.407632
0.404743
0.401893
0.399084
0.396315
0.393585
0.390895
0.388244
0.385633
0.383061
0.380529
0.378038
0.375586
0.373176
0.370806
0.368478
0.366192
0.363948
0.361746
0.359586
0.357468
0.355391
0.353354
0.351355
0.349394
0.347467
0.345573
0.623748
0.617447
0.611261
0.605187
0.599223
0.593365
0.58761
0.581957
0.576402
0.570943
0.565578
0.560304
0.555119
0.550021
0.545007
0.540076
0.535226
0.530455
0.525761
0.521142
0.516596
0.512123
0.507719
0.503384
0.499116
0.494913
0.490775
0.486699
0.482685
0.47873
0.474835
0.470997
0.467215
0.463488
0.459816
0.456196
0.452629
0.449112
0.445645
0.442227
0.438857
0.435535
0.432258
0.429028
0.425842
0.4227
0.419602
0.416546
0.413533
0.410561
0.40763
0.404741
0.401891
0.399082
0.396312
0.393583
0.390892
0.388241
0.38563
0.383059
0.380527
0.378035
0.375584
0.373174
0.370804
0.368477
0.366191
0.363948
0.361747
0.359588
0.357471
0.355396
0.35336
0.351364
0.349405
0.347481
0.345589
0.623748
0.617447
0.611261
0.605187
0.599223
0.593365
0.58761
0.581957
0.576402
0.570943
0.565578
0.560304
0.555119
0.55002
0.545007
0.540076
0.535226
0.530455
0.525761
0.521142
0.516596
0.512122
0.507719
0.503384
0.499115
0.494913
0.490774
0.486699
0.482684
0.47873
0.474834
0.470996
0.467214
0.463487
0.459815
0.456195
0.452627
0.44911
0.445643
0.442225
0.438855
0.435533
0.432256
0.429025
0.425839
0.422698
0.419599
0.416543
0.41353
0.410558
0.407627
0.404737
0.401888
0.399079
0.396309
0.393579
0.390889
0.388238
0.385627
0.383055
0.380524
0.378033
0.375582
0.373172
0.370804
0.368478
0.366194
0.363952
0.361754
0.359597
0.357484
0.355412
0.353381
0.351389
0.349435
0.347517
0.345631
0.623748
0.617447
0.611261
0.605187
0.599223
0.593365
0.58761
0.581957
0.576402
0.570943
0.565578
0.560304
0.555119
0.55002
0.545007
0.540076
0.535226
0.530455
0.525761
0.521141
0.516596
0.512122
0.507718
0.503383
0.499115
0.494912
0.490774
0.486698
0.482683
0.478729
0.474833
0.470995
0.467213
0.463486
0.459813
0.456193
0.452626
0.449109
0.445641
0.442223
0.438853
0.43553
0.432254
0.429023
0.425836
0.422694
0.419595
0.41654
0.413526
0.410554
0.407623
0.404733
0.401883
0.399074
0.396304
0.393574
0.390884
0.388233
0.385622
0.383051
0.38052
0.378029
0.375579
0.373171
0.370804
0.36848
0.366198
0.363959
0.361764
0.359612
0.357503
0.355436
0.353412
0.351427
0.349481
0.347571
0.345695
0.623748
0.617447
0.611261
0.605187
0.599223
0.593365
0.58761
0.581957
0.576402
0.570943
0.565578
0.560304
0.555118
0.55002
0.545007
0.540076
0.535226
0.530455
0.52576
0.521141
0.516595
0.512121
0.507718
0.503382
0.499114
0.494911
0.490773
0.486697
0.482682
0.478728
0.474832
0.470993
0.467211
0.463484
0.459811
0.456191
0.452623
0.449106
0.445639
0.44222
0.43885
0.435527
0.43225
0.429019
0.425832
0.42269
0.419591
0.416535
0.413521
0.410548
0.407617
0.404727
0.401877
0.399067
0.396297
0.393567
0.390877
0.388226
0.385616
0.383045
0.380514
0.378025
0.375576
0.373169
0.370805
0.368483
0.366204
0.36397
0.361779
0.359633
0.35753
0.355472
0.353456
0.351482
0.349547
0.347649
0.345786
0.623748
0.617447
0.611261
0.605187
0.599223
0.593365
0.58761
0.581957
0.576402
0.570943
0.565578
0.560303
0.555118
0.55002
0.545007
0.540076
0.535226
0.530454
0.52576
0.521141
0.516595
0.512121
0.507717
0.503382
0.499113
0.49491
0.490772
0.486696
0.482681
0.478726
0.47483
0.470992
0.467209
0.463482
0.459809
0.456189
0.452621
0.449103
0.445635
0.442217
0.438846
0.435523
0.432246
0.429014
0.425827
0.422685
0.419585
0.416529
0.413514
0.410542
0.40761
0.40472
0.401869
0.399059
0.396289
0.393559
0.390869
0.388219
0.385608
0.383038
0.380508
0.37802
0.375573
0.373168
0.370806
0.368488
0.366213
0.363984
0.361799
0.359661
0.357567
0.355519
0.353515
0.351555
0.349635
0.347754
0.345908
0.623748
0.617447
0.611261
0.605187
0.599223
0.593365
0.58761
0.581957
0.576402
0.570943
0.565577
0.560303
0.555118
0.55002
0.545006
0.540075
0.535225
0.530454
0.525759
0.52114
0.516594
0.51212
0.507716
0.503381
0.499112
0.494909
0.49077
0.486694
0.482679
0.478724
0.474828
0.470989
0.467207
0.46348
0.459806
0.456186
0.452617
0.449099
0.445632
0.442213
0.438842
0.435518
0.43224
0.429008
0.425821
0.422678
0.419578
0.416521
0.413507
0.410534
0.407602
0.404711
0.40186
0.39905
0.39628
0.39355
0.390859
0.388209
0.385599
0.38303
0.380501
0.378014
0.375569
0.373167
0.370808
0.368494
0.366225
0.364002
0.361826
0.359696
0.357615
0.35558
0.353592
0.351649
0.34975
0.34789
0.346068
0.623748
0.617447
0.611261
0.605187
0.599223
0.593364
0.58761
0.581957
0.576402
0.570943
0.565577
0.560303
0.555118
0.55002
0.545006
0.540075
0.535225
0.530453
0.525759
0.52114
0.516594
0.512119
0.507715
0.50338
0.499111
0.494908
0.490769
0.486693
0.482677
0.478722
0.474826
0.470987
0.467204
0.463477
0.459803
0.456182
0.452613
0.449095
0.445627
0.442208
0.438836
0.435512
0.432234
0.429002
0.425814
0.422671
0.419571
0.416513
0.413498
0.410524
0.407592
0.404701
0.40185
0.399039
0.396269
0.393539
0.390848
0.388198
0.385589
0.38302
0.380493
0.378008
0.375565
0.373166
0.370811
0.368502
0.36624
0.364025
0.361859
0.359742
0.357675
0.355657
0.353689
0.35177
0.349896
0.348066
0.346275
0.623748
0.617447
0.611261
0.605187
0.599223
0.593364
0.58761
0.581957
0.576402
0.570943
0.565577
0.560303
0.555118
0.550019
0.545006
0.540075
0.535224
0.530453
0.525758
0.521139
0.516593
0.512119
0.507714
0.503379
0.49911
0.494907
0.490767
0.486691
0.482675
0.47872
0.474823
0.470984
0.467201
0.463473
0.459799
0.456178
0.452609
0.449091
0.445622
0.442202
0.43883
0.435506
0.432227
0.428995
0.425806
0.422662
0.419562
0.416504
0.413488
0.410514
0.407581
0.404689
0.401838
0.399027
0.396257
0.393526
0.390836
0.388186
0.385577
0.38301
0.380484
0.378001
0.375561
0.373166
0.370816
0.368513
0.366259
0.364054
0.3619
0.359798
0.357749
0.355754
0.353812
0.351922
0.350082
0.34829
0.346541
0.623748
0.617447
0.611261
0.605187
0.599223
0.593364
0.58761
0.581957
0.576402
0.570943
0.565577
0.560303
0.555118
0.550019
0.545005
0.540074
0.535224
0.530452
0.525758
0.521138
0.516592
0.512118
0.507713
0.503377
0.499108
0.494905
0.490765
0.486689
0.482673
0.478718
0.474821
0.470981
0.467198
0.46347
0.459795
0.456174
0.452604
0.449085
0.445616
0.442196
0.438824
0.435499
0.43222
0.428986
0.425798
0.422653
0.419552
0.416493
0.413477
0.410502
0.407569
0.404677
0.401825
0.399014
0.396243
0.393512
0.390822
0.388173
0.385565
0.382999
0.380474
0.377994
0.375557
0.373166
0.370822
0.368527
0.366282
0.36409
0.361951
0.359868
0.357842
0.355874
0.353965
0.352113
0.350318
0.348576
0.346882
0.623748
0.617447
0.611261
0.605187
0.599223
0.593364
0.58761
0.581957
0.576402
0.570942
0.565577
0.560303
0.555117
0.550019
0.545005
0.540074
0.535223
0.530452
0.525757
0.521137
0.516591
0.512116
0.507712
0.503376
0.499107
0.494903
0.490763
0.486686
0.482671
0.478715
0.474818
0.470978
0.467194
0.463466
0.459791
0.456169
0.452599
0.44908
0.44561
0.442189
0.438817
0.435491
0.432211
0.428977
0.425788
0.422643
0.419541
0.416482
0.413465
0.41049
0.407556
0.404663
0.401811
0.398999
0.396228
0.393497
0.390808
0.388159
0.385552
0.382987
0.380465
0.377987
0.375554
0.373169
0.370832
0.368546
0.366312
0.364134
0.362014
0.359954
0.357956
0.356023
0.354155
0.352353
0.350616
0.34894
0.34732
0.623748
0.617447
0.611261
0.605187
0.599222
0.593364
0.58761
0.581956
0.576401
0.570942
0.565577
0.560302
0.555117
0.550019
0.545005
0.540073
0.535223
0.530451
0.525756
0.521136
0.51659
0.512115
0.507711
0.503374
0.499105
0.494901
0.490761
0.486684
0.482668
0.478712
0.474814
0.470974
0.46719
0.463461
0.459786
0.456164
0.452593
0.449073
0.445603
0.442182
0.438809
0.435483
0.432202
0.428968
0.425778
0.422632
0.419529
0.416469
0.413452
0.410476
0.407541
0.404648
0.401795
0.398983
0.396212
0.393481
0.390792
0.388144
0.385538
0.382974
0.380455
0.37798
0.375552
0.373173
0.370844
0.368568
0.366349
0.364188
0.36209
0.360058
0.358096
0.356206
0.354391
0.352653
0.350992
0.349404
0.347886
0.623748
0.617447
0.611261
0.605187
0.599222
0.593364
0.58761
0.581956
0.576401
0.570942
0.565577
0.560302
0.555117
0.550018
0.545004
0.540073
0.535222
0.53045
0.525755
0.521135
0.516589
0.512114
0.507709
0.503373
0.499103
0.494899
0.490759
0.486681
0.482665
0.478709
0.474811
0.47097
0.467186
0.463457
0.459781
0.456158
0.452587
0.449067
0.445596
0.442175
0.438801
0.435474
0.432193
0.428958
0.425767
0.42262
0.419517
0.416456
0.413438
0.410461
0.407526
0.404632
0.401779
0.398967
0.396195
0.393465
0.390775
0.388128
0.385523
0.382962
0.380445
0.377974
0.375552
0.373179
0.37086
0.368597
0.366393
0.364254
0.362183
0.360185
0.358266
0.35643
0.354683
0.353028
0.351466
0.349998
0.348618
0.623748
0.617447
0.611261
0.605187
0.599222
0.593364
0.58761
0.581956
0.576401
0.570942
0.565576
0.560302
0.555117
0.550018
0.545004
0.540072
0.535222
0.53045
0.525754
0.521134
0.516588
0.512113
0.507708
0.503371
0.499101
0.494897
0.490757
0.486679
0.482662
0.478705
0.474807
0.470966
0.467181
0.463452
0.459776
0.456152
0.452581
0.44906
0.445589
0.442166
0.438792
0.435464
0.432183
0.428947
0.425755
0.422608
0.419504
0.416443
0.413423
0.410446
0.40751
0.404616
0.401762
0.398949
0.396178
0.393447
0.390758
0.388112
0.385508
0.382949
0.380435
0.377969
0.375553
0.373189
0.37088
0.368631
0.366447
0.364332
0.362293
0.360337
0.358471
0.356703
0.355042
0.353494
0.352066
0.350759
0.349572
0.623748
0.617447
0.611261
0.605187
0.599222
0.593364
0.58761
0.581956
0.576401
0.570942
0.565576
0.560302
0.555116
0.550017
0.545003
0.540072
0.535221
0.530449
0.525754
0.521133
0.516587
0.512111
0.507706
0.503369
0.499099
0.494895
0.490754
0.486676
0.482659
0.478702
0.474803
0.470962
0.467177
0.463447
0.45977
0.456146
0.452574
0.449053
0.445581
0.442158
0.438783
0.435455
0.432172
0.428936
0.425743
0.422595
0.41949
0.416428
0.413408
0.41043
0.407494
0.404598
0.401744
0.398931
0.396159
0.393429
0.390741
0.388095
0.385493
0.382936
0.380426
0.377965
0.375555
0.3732
0.370904
0.368672
0.366509
0.364423
0.362422
0.360516
0.358715
0.357032
0.355481
0.354073
0.352822
0.351736
0.350819
0.623748
0.617447
0.611261
0.605187
0.599222
0.593364
0.58761
0.581956
0.576401
0.570942
0.565576
0.560302
0.555116
0.550017
0.545003
0.540071
0.53522
0.530448
0.525753
0.521132
0.516585
0.51211
0.507704
0.503367
0.499097
0.494892
0.490751
0.486673
0.482656
0.478698
0.474799
0.470958
0.467172
0.463441
0.459764
0.45614
0.452567
0.449045
0.445573
0.442149
0.438773
0.435444
0.432161
0.428924
0.425731
0.422582
0.419476
0.416413
0.413392
0.410414
0.407476
0.40458
0.401726
0.398912
0.39614
0.39341
0.390723
0.388078
0.385478
0.382924
0.380418
0.377962
0.37556
0.373215
0.370933
0.368719
0.366582
0.364529
0.362572
0.360725
0.359004
0.357426
0.356012
0.354787
0.353772
0.352991
0.352455
0.623748
0.617447
0.611261
0.605187
0.599222
0.593364
0.58761
0.581956
0.576401
0.570942
0.565576
0.560301
0.555116
0.550017
0.545002
0.540071
0.53522
0.530447
0.525752
0.521131
0.516584
0.512108
0.507703
0.503365
0.499095
0.49489
0.490749
0.48667
0.482652
0.478695
0.474795
0.470953
0.467167
0.463436
0.459758
0.456134
0.45256
0.449038
0.445565
0.44214
0.438764
0.435434
0.43215
0.428912
0.425718
0.422568
0.419462
0.416398
0.413376
0.410397
0.407459
0.404562
0.401707
0.398893
0.396121
0.393391
0.390704
0.388061
0.385463
0.382912
0.38041
0.37796
0.375566
0.373233
0.370966
0.368773
0.366663
0.364648
0.362743
0.360965
0.359338
0.357889
0.35665
0.355659
0.35496
0.354592
0.354571
0.623748
0.617447
0.611261
0.605187
0.599222
0.593364
0.58761
0.581956
0.576401
0.570942
0.565576
0.560301
0.555115
0.550016
0.545002
0.54007
0.535219
0.530446
0.525751
0.52113
0.516583
0.512107
0.507701
0.503364
0.499093
0.494888
0.490746
0.486667
0.482649
0.478691
0.474791
0.470948
0.467162
0.46343
0.459752
0.456127
0.452553
0.44903
0.445556
0.442131
0.438754
0.435423
0.432139
0.428899
0.425705
0.422554
0.419447
0.416382
0.41336
0.410379
0.40744
0.404543
0.401688
0.398874
0.396101
0.393372
0.390686
0.388044
0.385448
0.3829
0.380403
0.377959
0.375574
0.373253
0.371002
0.368832
0.366753
0.36478
0.362933
0.361235
0.359719
0.358424
0.3574
0.35671
0.35642
0.356576
0.35711
0.623748
0.617447
0.611261
0.605187
0.599222
0.593364
0.58761
0.581956
0.576401
0.570941
0.565576
0.560301
0.555115
0.550016
0.545001
0.54007
0.535218
0.530446
0.52575
0.521129
0.516581
0.512105
0.507699
0.503362
0.499091
0.494885
0.490743
0.486664
0.482645
0.478687
0.474787
0.470944
0.467157
0.463425
0.459746
0.45612
0.452546
0.449022
0.445547
0.442122
0.438744
0.435412
0.432127
0.428887
0.425691
0.42254
0.419431
0.416366
0.413343
0.410362
0.407422
0.404524
0.401668
0.398854
0.396082
0.393352
0.390667
0.388027
0.385433
0.382888
0.380396
0.377959
0.375583
0.373275
0.371042
0.368895
0.366849
0.364921
0.363137
0.361529
0.36014
0.359026
0.358263
0.357943
0.358145
0.358754
0.359751
0.623748
0.617447
0.611261
0.605187
0.599222
0.593364
0.58761
0.581956
0.576401
0.570941
0.565575
0.560301
0.555115
0.550015
0.545001
0.540069
0.535217
0.530445
0.525749
0.521128
0.51658
0.512104
0.507698
0.50336
0.499088
0.494882
0.49074
0.486661
0.482642
0.478683
0.474782
0.470939
0.467152
0.463419
0.45974
0.456113
0.452538
0.449014
0.445539
0.442112
0.438733
0.435401
0.432115
0.428874
0.425678
0.422525
0.419416
0.41635
0.413326
0.410344
0.407404
0.404505
0.401649
0.398834
0.396062
0.393333
0.390648
0.38801
0.385418
0.382877
0.380389
0.37796
0.375593
0.373298
0.371082
0.36896
0.366947
0.365067
0.363351
0.361839
0.360589
0.35968
0.359219
0.359322
0.359901
0.360935
0.362499
0.623748
0.617447
0.611261
0.605187
0.599222
0.593364
0.587609
0.581956
0.5764
0.570941
0.565575
0.5603
0.555114
0.550015
0.545
0.540068
0.535217
0.530444
0.525748
0.521127
0.516579
0.512102
0.507696
0.503358
0.499086
0.49488
0.490738
0.486657
0.482638
0.478679
0.474778
0.470934
0.467146
0.463413
0.459733
0.456106
0.452531
0.449006
0.44553
0.442103
0.438723
0.43539
0.432103
0.428862
0.425664
0.422511
0.419401
0.416334
0.413309
0.410326
0.407385
0.404486
0.401629
0.398814
0.396042
0.393314
0.39063
0.387993
0.385404
0.382866
0.380383
0.37796
0.375603
0.37332
0.371122
0.369024
0.367045
0.365211
0.363562
0.362148
0.361043
0.360353
0.36022
0.360662
0.361586
0.363099
0.365335
0.623748
0.617447
0.611261
0.605187
0.599222
0.593364
0.587609
0.581956
0.5764
0.570941
0.565575
0.5603
0.555114
0.550015
0.545
0.540068
0.535216
0.530443
0.525747
0.521125
0.516577
0.512101
0.507694
0.503356
0.499084
0.494877
0.490735
0.486654
0.482635
0.478675
0.474774
0.470929
0.467141
0.463407
0.459727
0.4561
0.452523
0.448998
0.445521
0.442093
0.438713
0.435379
0.432091
0.428849
0.425651
0.422497
0.419386
0.416318
0.413292
0.410308
0.407367
0.404467
0.401609
0.398794
0.396022
0.393294
0.390612
0.387976
0.385389
0.382855
0.380377
0.37796
0.375612
0.373341
0.371159
0.369083
0.367134
0.365345
0.363757
0.362435
0.361469
0.360993
0.361179
0.361856
0.363126
0.365152
0.368152
0.623748
0.617447
0.611261
0.605187
0.599222
0.593364
0.587609
0.581956
0.5764
0.570941
0.565575
0.5603
0.555114
0.550014
0.544999
0.540067
0.535215
0.530442
0.525746
0.521124
0.516576
0.512099
0.507692
0.503354
0.499082
0.494875
0.490732
0.486651
0.482631
0.478671
0.474769
0.470925
0.467136
0.463402
0.459721
0.456093
0.452516
0.448989
0.445512
0.442084
0.438703
0.435368
0.43208
0.428836
0.425637
0.422482
0.419371
0.416302
0.413275
0.410291
0.407348
0.404448
0.40159
0.398775
0.396003
0.393275
0.390593
0.387959
0.385375
0.382843
0.38037
0.377959
0.375619
0.373358
0.371191
0.369133
0.367211
0.365457
0.36392
0.362672
0.361822
0.361525
0.361877
0.362764
0.364358
0.366896
0.623748
0.617447
0.611261
0.605187
0.599222
0.593364
0.587609
0.581956
0.5764
0.570941
0.565574
0.560299
0.555113
0.550014
0.544999
0.540066
0.535215
0.530441
0.525745
0.521123
0.516575
0.512098
0.507691
0.503352
0.499079
0.494872
0.490729
0.486648
0.482628
0.478667
0.474765
0.47092
0.467131
0.463396
0.459715
0.456086
0.452509
0.448982
0.445504
0.442074
0.438693
0.435357
0.432068
0.428824
0.425624
0.422468
0.419356
0.416286
0.413259
0.410273
0.40733
0.40443
0.401571
0.398756
0.395984
0.393257
0.390576
0.387942
0.38536
0.382832
0.380362
0.377957
0.375623
0.373371
0.371215
0.369172
0.367267
0.365537
0.364033
0.362832
0.362052
0.361866
0.362299
0.363322
0.36515
0.368105
0.623748
0.617447
0.611261
0.605187
0.599222
0.593364
0.587609
0.581955
0.5764
0.57094
0.565574
0.560299
0.555113
0.550013
0.544998
0.540066
0.535214
0.53044
0.525744
0.521122
0.516573
0.512096
0.507689
0.50335
0.499077
0.49487
0.490726
0.486645
0.482625
0.478664
0.474761
0.470916
0.467126
0.463391
0.459709
0.45608
0.452502
0.448974
0.445495
0.442065
0.438683
0.435347
0.432057
0.428812
0.425611
0.422455
0.419341
0.416271
0.413242
0.410257
0.407313
0.404412
0.401553
0.398737
0.395965
0.393238
0.390558
0.387926
0.385346
0.38282
0.380353
0.377952
0.375624
0.373379
0.371229
0.369195
0.367299
0.365578
0.364082
0.362889
0.362115
0.361938
0.362368
0.363408
0.365303
0.368455
0.623748
0.617447
0.611261
0.605187
0.599222
0.593364
0.587609
0.581955
0.5764
0.57094
0.565574
0.560299
0.555113
0.550013
0.544998
0.540065
0.535213
0.53044
0.525743
0.521121
0.516572
0.512095
0.507687
0.503348
0.499075
0.494868
0.490724
0.486642
0.482621
0.47866
0.474757
0.470911
0.467121
0.463385
0.459703
0.456073
0.452495
0.448966
0.445487
0.442057
0.438673
0.435337
0.432046
0.4288
0.425599
0.422441
0.419327
0.416256
0.413227
0.41024
0.407296
0.404394
0.401535
0.398719
0.395947
0.393221
0.390541
0.38791
0.385331
0.382807
0.380344
0.377946
0.375621
0.373379
0.371233
0.3692
0.367303
0.365575
0.36406
0.362829
0.361988
0.361699
0.362028
0.362935
0.364674
0.367683
0.623748
0.617447
0.611261
0.605187
0.599222
0.593364
0.587609
0.581955
0.5764
0.57094
0.565574
0.560299
0.555112
0.550013
0.544998
0.540065
0.535213
0.530439
0.525742
0.52112
0.516571
0.512093
0.507686
0.503346
0.499073
0.494865
0.490721
0.486639
0.482618
0.478657
0.474753
0.470907
0.467116
0.46338
0.459697
0.456067
0.452488
0.448959
0.445479
0.442048
0.438664
0.435327
0.432035
0.428789
0.425587
0.422428
0.419313
0.416241
0.413212
0.410224
0.40728
0.404377
0.401518
0.398702
0.39593
0.393203
0.390524
0.387894
0.385317
0.382795
0.380333
0.377937
0.375614
0.373374
0.371227
0.369189
0.367281
0.365528
0.363969
0.362659
0.361683
0.36117
0.36129
0.361904
0.36325
0.365742
0.623748
0.617447
0.611261
0.605187
0.599222
0.593364
0.587609
0.581955
0.5764
0.57094
0.565574
0.560299
0.555112
0.550012
0.544997
0.540064
0.535212
0.530438
0.525741
0.521119
0.51657
0.512092
0.507684
0.503344
0.499071
0.494863
0.490719
0.486637
0.482615
0.478653
0.47475
0.470903
0.467112
0.463375
0.459692
0.456061
0.452482
0.448952
0.445472
0.44204
0.438655
0.435317
0.432025
0.428778
0.425575
0.422416
0.4193
0.416228
0.413197
0.410209
0.407264
0.404361
0.401501
0.398685
0.395913
0.393187
0.390508
0.387879
0.385302
0.382782
0.380321
0.377926
0.375604
0.373362
0.371211
0.369163
0.367234
0.365445
0.363821
0.362402
0.361241
0.360427
0.360098
0.360323
0.361113
0.362823
0.623748
0.617447
0.611261
0.605187
0.599222
0.593364
0.587609
0.581955
0.5764
0.57094
0.565574
0.560298
0.555112
0.550012
0.544997
0.540064
0.535211
0.530437
0.52574
0.521118
0.516569
0.512091
0.507683
0.503343
0.499069
0.494861
0.490717
0.486634
0.482612
0.47865
0.474746
0.470899
0.467108
0.463371
0.459687
0.456056
0.452476
0.448946
0.445465
0.442032
0.438647
0.435309
0.432016
0.428768
0.425564
0.422405
0.419288
0.416215
0.413184
0.410195
0.407249
0.404346
0.401486
0.398669
0.395897
0.393171
0.390493
0.387864
0.385288
0.382768
0.380308
0.377914
0.37559
0.373345
0.371187
0.369124
0.36717
0.365335
0.363636
0.362092
0.360728
0.359589
0.358752
0.358355
0.358537
0.359378
0.623748
0.617447
0.611261
0.605187
0.599222
0.593364
0.587609
0.581955
0.5764
0.57094
0.565573
0.560298
0.555112
0.550012
0.544996
0.540063
0.535211
0.530437
0.52574
0.521117
0.516568
0.51209
0.507681
0.503341
0.499068
0.494859
0.490714
0.486632
0.48261
0.478647
0.474743
0.470895
0.467104
0.463366
0.459682
0.456051
0.45247
0.448939
0.445458
0.442025
0.438639
0.4353
0.432007
0.428758
0.425554
0.422394
0.419276
0.416202
0.413171
0.410182
0.407235
0.404331
0.401471
0.398654
0.395882
0.393156
0.390478
0.38785
0.385275
0.382755
0.380295
0.3779
0.375575
0.373325
0.371157
0.369079
0.367095
0.365212
0.363435
0.361766
0.360207
0.358766
0.357471
0.356396
0.355726
0.355827
0.623748
0.617447
0.611261
0.605187
0.599222
0.593364
0.587609
0.581955
0.576399
0.57094
0.565573
0.560298
0.555111
0.550011
0.544996
0.540063
0.53521
0.530436
0.525739
0.521116
0.516567
0.512089
0.50768
0.50334
0.499066
0.494857
0.490712
0.486629
0.482607
0.478644
0.47474
0.470892
0.4671
0.463362
0.459678
0.456046
0.452465
0.448934
0.445452
0.442018
0.438632
0.435292
0.431998
0.428749
0.425544
0.422383
0.419266
0.416191
0.413159
0.410169
0.407222
0.404318
0.401457
0.39864
0.395868
0.393142
0.390464
0.387837
0.385262
0.382742
0.380282
0.377886
0.375558
0.373303
0.371126
0.36903
0.367017
0.365088
0.363237
0.361455
0.359727
0.358036
0.356381
0.354794
0.35341
0.352554
0.623748
0.617447
0.611261
0.605187
0.599222
0.593364
0.587609
0.581955
0.576399
0.57094
0.565573
0.560298
0.555111
0.550011
0.544996
0.540062
0.53521
0.530436
0.525738
0.521115
0.516566
0.512088
0.507679
0.503339
0.499065
0.494856
0.490711
0.486627
0.482605
0.478642
0.474737
0.470889
0.467096
0.463358
0.459674
0.456041
0.45246
0.448928
0.445446
0.442012
0.438625
0.435285
0.431991
0.428741
0.425536
0.422374
0.419256
0.416181
0.413148
0.410158
0.40721
0.404306
0.401445
0.398628
0.395855
0.39313
0.390452
0.387824
0.385249
0.38273
0.38027
0.377872
0.375542
0.373281
0.371094
0.368982
0.366943
0.364972
0.363058
0.361182
0.359319
0.357441
0.355531
0.353609
0.351788
0.350347
0.623748
0.617447
0.611261
0.605187
0.599222
0.593364
0.587609
0.581955
0.576399
0.570939
0.565573
0.560298
0.555111
0.550011
0.544995
0.540062
0.535209
0.530435
0.525738
0.521115
0.516565
0.512087
0.507678
0.503337
0.499063
0.494854
0.490709
0.486625
0.482603
0.47864
0.474734
0.470886
0.467093
0.463355
0.45967
0.456037
0.452455
0.448924
0.445441
0.442007
0.438619
0.435279
0.431984
0.428734
0.425528
0.422366
0.419247
0.416171
0.413138
0.410148
0.4072
0.404295
0.401433
0.398616
0.395844
0.393118
0.39044
0.387813
0.385238
0.382719
0.380258
0.377859
0.375526
0.37326
0.371065
0.368938
0.366876
0.364871
0.362906
0.360959
0.358998
0.356994
0.354927
0.352819
0.350784
0.349087
0.623748
0.617447
0.611261
0.605187
0.599222
0.593364
0.587609
0.581955
0.576399
0.570939
0.565573
0.560297
0.555111
0.550011
0.544995
0.540062
0.535209
0.530435
0.525737
0.521114
0.516564
0.512086
0.507677
0.503336
0.499062
0.494853
0.490707
0.486624
0.482601
0.478638
0.474732
0.470884
0.467091
0.463352
0.459667
0.456034
0.452452
0.448919
0.445437
0.442002
0.438614
0.435273
0.431977
0.428727
0.425521
0.422358
0.419239
0.416163
0.413129
0.410138
0.40719
0.404285
0.401423
0.398606
0.395834
0.393108
0.39043
0.387803
0.385228
0.382709
0.380247
0.377847
0.375512
0.373242
0.371038
0.3689
0.36682
0.364789
0.362787
0.36079
0.358769
0.356692
0.35455
0.352378
0.350303
0.348597
0.623748
0.617447
0.611261
0.605187
0.599222
0.593364
0.587609
0.581955
0.576399
0.570939
0.565573
0.560297
0.555111
0.55001
0.544995
0.540062
0.535209
0.530434
0.525737
0.521114
0.516564
0.512085
0.507676
0.503335
0.499061
0.494852
0.490706
0.486622
0.482599
0.478636
0.47473
0.470882
0.467088
0.46335
0.459664
0.456031
0.452448
0.448916
0.445433
0.441997
0.438609
0.435268
0.431972
0.428721
0.425515
0.422352
0.419232
0.416156
0.413122
0.410131
0.407182
0.404277
0.401415
0.398597
0.395825
0.393099
0.390421
0.387794
0.385219
0.3827
0.380238
0.377837
0.375499
0.373226
0.371017
0.368869
0.366776
0.364726
0.362701
0.360675
0.358622
0.35652
0.354372
0.352234
0.35026
0.348744
0.623748
0.617447
0.611261
0.605187
0.599222
0.593364
0.587609
0.581955
0.576399
0.570939
0.565573
0.560297
0.55511
0.55001
0.544995
0.540061
0.535208
0.530434
0.525736
0.521113
0.516563
0.512085
0.507676
0.503335
0.49906
0.494851
0.490705
0.486621
0.482598
0.478634
0.474729
0.47088
0.467086
0.463347
0.459662
0.456028
0.452445
0.448913
0.445429
0.441994
0.438606
0.435264
0.431968
0.428716
0.425509
0.422346
0.419226
0.41615
0.413115
0.410124
0.407175
0.40427
0.401407
0.39859
0.395817
0.393091
0.390414
0.387787
0.385212
0.382692
0.38023
0.377829
0.375489
0.373213
0.371
0.368846
0.366744
0.364683
0.362644
0.360606
0.358546
0.356455
0.354354
0.352327
0.350566
0.349406
0.623748
0.617447
0.611261
0.605187
0.599222
0.593364
0.587609
0.581955
0.576399
0.570939
0.565573
0.560297
0.55511
0.55001
0.544994
0.540061
0.535208
0.530434
0.525736
0.521113
0.516563
0.512084
0.507675
0.503334
0.49906
0.49485
0.490704
0.48662
0.482597
0.478633
0.474727
0.470878
0.467085
0.463346
0.45966
0.456026
0.452443
0.44891
0.445427
0.441991
0.438602
0.43526
0.431964
0.428713
0.425505
0.422342
0.419222
0.416145
0.41311
0.410119
0.40717
0.404264
0.401402
0.398584
0.395811
0.393085
0.390408
0.387781
0.385206
0.382686
0.380224
0.377822
0.375481
0.373203
0.370987
0.36883
0.366723
0.364655
0.362611
0.360572
0.358523
0.356467
0.354446
0.623748
0.617447
0.611261
0.605187
0.599222
0.593364
0.587609
0.581955
0.576399
0.570939
0.565573
0.560297
0.55511
0.55001
0.544994
0.540061
0.535208
0.530434
0.525736
0.521113
0.516563
0.512084
0.507675
0.503334
0.499059
0.49485
0.490704
0.48662
0.482596
0.478632
0.474726
0.470877
0.467084
0.463344
0.459658
0.456024
0.452441
0.448908
0.445425
0.441989
0.4386
0.435258
0.431961
0.42871
0.425502
0.422339
0.419218
0.416141
0.413106
0.410115
0.407166
0.40426
0.401397
0.398579
0.395807
0.393081
0.390403
0.387776
0.385201
0.382682
0.380219
0.377817
0.375476
0.373197
0.370979
0.368819
0.366709
0.364639
0.362596
0.360562
0.358533
0.623748
0.617447
0.611261
0.605187
0.599222
0.593364
0.587609
0.581955
0.576399
0.570939
0.565573
0.560297
0.55511
0.55001
0.544994
0.540061
0.535208
0.530433
0.525736
0.521112
0.516562
0.512084
0.507674
0.503333
0.499059
0.494849
0.490703
0.486619
0.482596
0.478632
0.474726
0.470876
0.467083
0.463343
0.459657
0.456023
0.45244
0.448907
0.445423
0.441987
0.438599
0.435256
0.43196
0.428708
0.4255
0.422337
0.419216
0.416139
0.413104
0.410112
0.407163
0.404257
0.401394
0.398576
0.395804
0.393078
0.3904
0.387773
0.385199
0.382679
0.380216
0.377813
0.375472
0.373192
0.370973
0.368812
0.366701
0.36463
0.362587
0.360561
0.358549
0.623748
0.617447
0.611261
0.605187
0.599222
0.593364
0.587609
0.581955
0.576399
0.570939
0.565573
0.560297
0.55511
0.55001
0.544994
0.540061
0.535208
0.530433
0.525735
0.521112
0.516562
0.512083
0.507674
0.503333
0.499059
0.494849
0.490703
0.486619
0.482595
0.478631
0.474725
0.470876
0.467082
0.463343
0.459657
0.456023
0.45244
0.448907
0.445423
0.441987
0.438598
0.435255
0.431959
0.428707
0.425499
0.422335
0.419215
0.416137
0.413103
0.410111
0.407161
0.404255
0.401393
0.398575
0.395802
0.393077
0.390399
0.387772
0.385197
0.382678
0.380215
0.377812
0.375471
0.373191
0.370972
0.36881
0.366699
0.364629
0.362589
0.360568
0.358569
0.623748
0.617447
0.611261
0.605187
0.599222
0.593364
0.587609
0.581955
0.576399
0.570939
0.565573
0.560297
0.55511
0.55001
0.544994
0.540061
0.535208
0.530433
0.525735
0.521112
0.516562
0.512083
0.507674
0.503333
0.499059
0.494849
0.490703
0.486619
0.482595
0.478631
0.474725
0.470876
0.467082
0.463343
0.459657
0.456023
0.45244
0.448907
0.445423
0.441987
0.438598
0.435256
0.431959
0.428707
0.425499
0.422336
0.419215
0.416138
0.413103
0.410111
0.407162
0.404256
0.401393
0.398575
0.395803
0.393077
0.390399
0.387772
0.385198
0.382678
0.380216
0.377813
0.375471
0.373191
0.370972
0.36881
0.366699
0.364629
0.362589
0.360568
0.358569
0.623748
0.617447
0.611261
0.605187
0.599222
0.593364
0.587609
0.581955
0.576399
0.570939
0.565573
0.560297
0.55511
0.55001
0.544994
0.540061
0.535208
0.530433
0.525736
0.521112
0.516562
0.512084
0.507675
0.503333
0.499059
0.494849
0.490703
0.486619
0.482596
0.478632
0.474726
0.470877
0.467083
0.463344
0.459657
0.456023
0.45244
0.448907
0.445423
0.441988
0.438599
0.435257
0.43196
0.428708
0.425501
0.422337
0.419216
0.416139
0.413104
0.410112
0.407163
0.404257
0.401395
0.398577
0.395804
0.393079
0.390401
0.387774
0.385199
0.38268
0.380217
0.377814
0.375473
0.373193
0.370974
0.368813
0.366702
0.364631
0.623748
0.617447
0.611261
0.605187
0.599222
0.593364
0.587609
0.581955
0.576399
0.570939
0.565573
0.560297
0.55511
0.55001
0.544994
0.540061
0.535208
0.530434
0.525736
0.521113
0.516563
0.512084
0.507675
0.503334
0.499059
0.49485
0.490704
0.48662
0.482596
0.478632
0.474727
0.470877
0.467084
0.463345
0.459658
0.456025
0.452442
0.448909
0.445425
0.441989
0.438601
0.435258
0.431962
0.42871
0.425503
0.422339
0.419219
0.416142
0.413107
0.410115
0.407166
0.40426
0.401398
0.39858
0.395808
0.393082
0.390405
0.387777
0.385203
0.382683
0.380221
0.377819
0.375478
0.373199
0.370981
0.368821
0.366711
0.623748
0.617447
0.611261
0.605187
0.599222
0.593364
0.587609
0.581955
0.576399
0.570939
0.565573
0.560297
0.55511
0.55001
0.544995
0.540061
0.535208
0.530434
0.525736
0.521113
0.516563
0.512084
0.507675
0.503334
0.49906
0.49485
0.490704
0.48662
0.482597
0.478633
0.474728
0.470879
0.467085
0.463346
0.45966
0.456026
0.452443
0.448911
0.445427
0.441991
0.438603
0.435261
0.431965
0.428713
0.425506
0.422343
0.419223