/*--------------------------------*- C++ -*----------------------------------*\
  =========                 |
  \\      /  F ield         | OpenFOAM: The Open Source CFD Toolbox
   \\    /   O peration     | Website:  https://openfoam.org
    \\  /    A nd           | Version:  13
     \\/     M anipulation  |
\*---------------------------------------------------------------------------*/
FoamFile
{
    format      ascii;
    class       volScalarField;
    location    "1000";
    object      p;
}
// * * * * * * * * * * * * * * * * * * * * * * * * * * * * * * * * * * * * * //

dimensions      [0 2 -2 0 0 0 0];

internalField   nonuniform List<scalar> 
172290
(
15.9423
15.9426
15.9433
15.9444
15.9459
15.9478
15.95
15.9526
15.9556
15.9589
15.9626
15.9666
15.9709
15.9755
15.9805
15.9857
15.9912
15.997
16.003
16.0092
16.0156
16.0221
16.0288
16.0355
16.0422
16.0489
16.0555
16.062
16.0682
16.0741
16.0795
16.0845
16.0889
16.0925
16.0952
16.0968
16.0972
16.0962
16.0935
16.0889
16.0822
16.0731
16.0612
16.0463
16.0279
16.0056
15.9791
15.9477
15.911
15.8684
15.8193
15.7629
15.6986
15.6257
15.5432
15.4504
15.3462
15.2298
15.1
14.956
14.7965
14.6205
14.4269
14.2147
13.9829
13.7306
13.4569
13.1612
12.8428
12.5016
12.1373
11.7502
11.3409
10.9103
10.4598
9.99092
9.50588
15.9426
15.9429
15.9436
15.9447
15.9462
15.9481
15.9504
15.953
15.956
15.9594
15.963
15.9671
15.9714
15.9761
15.9811
15.9863
15.9919
15.9977
16.0038
16.0101
16.0165
16.0231
16.0299
16.0367
16.0435
16.0503
16.057
16.0636
16.07
16.076
16.0817
16.0868
16.0914
16.0952
16.0981
16.1
16.1007
16.0999
16.0976
16.0933
16.087
16.0783
16.0668
16.0523
16.0344
16.0127
15.9867
15.9559
15.9199
15.8779
15.8295
15.7739
15.7104
15.6383
15.5566
15.4647
15.3614
15.2458
15.117
14.9738
14.8151
14.6399
14.447
14.2354
14.0041
13.752
13.4784
13.1824
12.8636
12.5215
12.1561
11.7674
11.3562
10.9232
10.4699
9.998
9.50956
15.9433
15.9436
15.9443
15.9454
15.947
15.9489
15.9512
15.9538
15.9569
15.9602
15.964
15.9681
15.9725
15.9772
15.9823
15.9876
15.9933
15.9992
16.0054
16.0118
16.0184
16.0252
16.0321
16.0391
16.0461
16.0531
16.0601
16.0669
16.0736
16.0799
16.0859
16.0914
16.0964
16.1006
16.104
16.1064
16.1076
16.1074
16.1057
16.1022
16.0965
16.0886
16.078
16.0644
16.0475
16.0268
16.0019
15.9724
15.9376
15.897
15.85
15.7959
15.734
15.6635
15.5836
15.4933
15.3919
15.2781
15.1511
15.0097
14.8528
14.6792
14.4878
14.2775
14.0472
13.7958
13.5225
13.2263
12.9067
12.5632
12.1955
11.804
11.389
10.9514
10.4927
10.0146
9.51938
15.9443
15.9446
15.9453
15.9464
15.948
15.95
15.9523
15.955
15.9581
15.9616
15.9654
15.9695
15.974
15.9789
15.9841
15.9896
15.9954
16.0015
16.0078
16.0144
16.0212
16.0282
16.0354
16.0427
16.05
16.0574
16.0647
16.0719
16.079
16.0858
16.0923
16.0983
16.1039
16.1087
16.1128
16.1159
16.1179
16.1187
16.1179
16.1153
16.1108
16.1041
16.0947
16.0825
16.0671
16.048
16.0247
15.997
15.9641
15.9255
15.8807
15.8289
15.7694
15.7013
15.624
15.5365
15.4377
15.3268
15.2025
15.0639
14.9096
14.7386
14.5495
14.3412
14.1126
13.8623
13.5895
13.2931
12.9724
12.6267
12.2559
11.8599
11.4391
10.9946
10.5276
10.0401
9.5344
15.9456
15.9459
15.9466
15.9478
15.9494
15.9514
15.9538
15.9566
15.9598
15.9633
15.9672
15.9715
15.9761
15.9811
15.9865
15.9921
15.9981
16.0044
16.011
16.0179
16.025
16.0323
16.0398
16.0474
16.0552
16.0629
16.0707
16.0785
16.0861
16.0935
16.1007
16.1074
16.1137
16.1195
16.1244
16.1286
16.1316
16.1335
16.134
16.1328
16.1298
16.1246
16.1169
16.1066
16.093
16.076
16.0551
16.0297
15.9994
15.9635
15.9216
15.8728
15.8164
15.7518
15.6779
15.594
15.4989
15.3918
15.2713
15.1364
14.9858
14.8183
14.6325
14.4271
14.2008
13.9522
13.6803
13.3837
13.0617
12.7134
12.3384
11.9365
11.5082
11.0542
10.576
10.0755
9.55543
15.9472
15.9475
15.9483
15.9495
15.9511
15.9532
15.9557
15.9585
15.9618
15.9654
15.9695
15.9739
15.9787
15.9839
15.9894
15.9953
16.0016
16.0081
16.015
16.0222
16.0296
16.0373
16.0452
16.0533
16.0615
16.0699
16.0782
16.0866
16.0949
16.1031
16.1111
16.1188
16.126
16.1328
16.1389
16.1442
16.1487
16.152
16.154
16.1545
16.1533
16.15
16.1445
16.1364
16.1253
16.1109
16.0928
16.0704
16.0433
16.0108
15.9725
15.9275
15.8752
15.8148
15.7453
15.666
15.5756
15.4732
15.3577
15.2276
15.0818
14.9188
14.7373
14.5357
14.3126
14.0664
13.7959
13.4995
13.1761
12.8247
12.4446
12.0355
11.5976
11.1316
10.6389
10.1217
9.58282
15.9491
15.9494
15.9502
15.9515
15.9532
15.9553
15.9579
15.9608
15.9642
15.968
15.9722
15.9768
15.9818
15.9872
15.9929
15.9991
16.0056
16.0125
16.0197
16.0273
16.0351
16.0433
16.0517
16.0603
16.0691
16.0781
16.0872
16.0963
16.1054
16.1145
16.1235
16.1322
16.1406
16.1486
16.1561
16.1629
16.1689
16.1739
16.1778
16.1803
16.1812
16.1804
16.1774
16.172
16.1638
16.1526
16.1378
16.119
16.0957
16.0673
16.0333
15.993
15.9455
15.8902
15.8262
15.7524
15.6678
15.5713
15.4617
15.3377
15.1978
15.0406
14.8645
14.6679
14.449
14.2061
13.9377
13.6419
13.3173
12.9625
12.5767
12.159
11.7095
11.2288
10.7183
10.1801
9.61744
15.9513
15.9517
15.9525
15.9538
15.9556
15.9578
15.9604
15.9635
15.967
15.9709
15.9753
15.9801
15.9853
15.9909
15.997
16.0034
16.0103
16.0175
16.0252
16.0331
16.0415
16.0501
16.0591
16.0684
16.0778
16.0876
16.0974
16.1075
16.1175
16.1277
16.1377
16.1477
16.1574
16.1668
16.1759
16.1844
16.1922
16.1992
16.2052
16.2101
16.2135
16.2154
16.2153
16.2131
16.2083
16.2007
16.1898
16.1752
16.1564
16.1329
16.104
16.069
16.0273
15.9781
15.9203
15.8531
15.7755
15.6861
15.5837
15.467
15.3344
15.1843
15.0149
14.8245
14.6111
14.3727
14.1073
13.8129
13.4875
13.1294
12.7372
12.3098
11.8468
11.3486
10.8164
10.2525
9.6605
15.9538
15.9542
15.955
15.9564
15.9582
15.9605
15.9633
15.9665
15.9701
15.9743
15.9788
15.9838
15.9893
15.9952
16.0015
16.0083
16.0155
16.0232
16.0313
16.0398
16.0486
16.0579
16.0675
16.0774
16.0877
16.0982
16.109
16.12
16.1312
16.1425
16.1538
16.1651
16.1764
16.1874
16.1982
16.2086
16.2185
16.2278
16.2363
16.2437
16.25
16.255
16.2582
16.2596
16.2587
16.2552
16.2488
16.239
16.2253
16.2073
16.1842
16.1555
16.1204
16.0781
16.0277
15.9683
15.8986
15.8176
15.7237
15.6157
15.4918
15.3503
15.1893
15.0067
14.8003
14.5678
14.3068
14.0148
13.6894
13.3283
12.9295
12.4914
12.013
11.4944
10.9365
10.3417
9.71379
15.9566
15.9569
15.9578
15.9592
15.9612
15.9636
15.9664
15.9698
15.9736
15.9779
15.9827
15.9879
15.9937
15.9999
16.0066
16.0137
16.0214
16.0295
16.038
16.0471
16.0565
16.0664
16.0767
16.0875
16.0986
16.11
16.1218
16.1339
16.1463
16.1588
16.1716
16.1844
16.1973
16.2102
16.223
16.2355
16.2477
16.2595
16.2707
16.2811
16.2905
16.2989
16.3059
16.3112
16.3147
16.3158
16.3144
16.31
16.3021
16.2902
16.2738
16.2521
16.2245
16.1902
16.1483
16.0976
16.0373
15.9658
15.882
15.7841
15.6706
15.5394
15.3885
15.2155
15.018
14.7932
14.5383
14.2503
13.9261
13.5628
13.1576
12.7082
12.2128
11.6709
11.0829
10.4512
9.77995
15.9596
15.9599
15.9609
15.9624
15.9644
15.9669
15.9699
15.9734
15.9774
15.9819
15.9869
15.9924
15.9984
16.005
16.012
16.0196
16.0277
16.0363
16.0454
16.055
16.0651
16.0757
16.0868
16.0984
16.1104
16.1229
16.1358
16.1491
16.1627
16.1767
16.191
16.2055
16.2202
16.2351
16.25
16.2649
16.2796
16.2941
16.3083
16.3219
16.3349
16.347
16.358
16.3678
16.376
16.3823
16.3865
16.388
16.3865
16.3815
16.3724
16.3587
16.3395
16.3141
16.2816
16.2411
16.1912
16.1308
16.0585
15.9725
15.871
15.7521
15.6133
15.4521
15.2656
15.0508
14.8043
14.5224
14.2013
13.8372
13.4265
12.9656
12.452
11.884
11.2614
10.5863
9.8628
15.9628
15.9632
15.9642
15.9657
15.9678
15.9704
15.9736
15.9772
15.9814
15.9862
15.9914
15.9972
16.0036
16.0105
16.0179
16.0259
16.0345
16.0436
16.0533
16.0636
16.0744
16.0858
16.0977
16.1102
16.1232
16.1367
16.1508
16.1654
16.1805
16.196
16.2119
16.2283
16.2449
16.2619
16.2791
16.2965
16.314
16.3315
16.3489
16.366
16.3828
16.399
16.4145
16.4291
16.4425
16.4544
16.4646
16.4727
16.4782
16.4808
16.4798
16.4748
16.4649
16.4495
16.4276
16.3983
16.3603
16.3125
16.2532
16.1809
16.0935
15.9888
15.8645
15.7175
15.5448
15.3428
15.1074
14.8344
14.519
14.1565
13.7418
13.2703
12.7378
12.1413
11.4795
10.7536
9.96788
15.9662
15.9666
15.9676
15.9693
15.9715
15.9742
15.9775
15.9813
15.9857
15.9907
15.9963
16.0024
16.0091
16.0163
16.0242
16.0327
16.0417
16.0514
16.0618
16.0727
16.0842
16.0964
16.1093
16.1227
16.1368
16.1515
16.1668
16.1828
16.1994
16.2165
16.2342
16.2525
16.2713
16.2906
16.3103
16.3304
16.3508
16.3714
16.3923
16.4132
16.434
16.4546
16.4749
16.4947
16.5137
16.5317
16.5485
16.5636
16.5768
16.5876
16.5955
16.6
16.6004
16.5959
16.5857
16.5689
16.5442
16.5105
16.466
16.4092
16.338
16.2501
16.1428
16.013
15.8571
15.6711
15.4505
15.19
14.884
14.5263
14.1105
13.6301
13.0791
12.4525
11.7472
10.9629
10.1032
15.9698
15.9702
15.9713
15.973
15.9753
15.9782
15.9816
15.9857
15.9903
15.9955
16.0013
16.0078
16.0148
16.0225
16.0308
16.0398
16.0494
16.0597
16.0706
16.0823
16.0947
16.1077
16.1215
16.1359
16.1512
16.1671
16.1838
16.2012
16.2193
16.2382
16.2578
16.2781
16.2991
16.3208
16.3432
16.3661
16.3897
16.4137
16.4382
16.4631
16.4883
16.5137
16.5391
16.5643
16.5894
16.6139
16.6377
16.6604
16.6819
16.7016
16.7191
16.7339
16.7454
16.7529
16.7556
16.7525
16.7425
16.7244
16.6966
16.6574
16.6047
16.536
16.4486
16.3392
16.2037
16.0378
15.8362
15.5929
15.301
14.9528
14.5402
14.0545
13.487
12.83
12.0775
11.2268
10.2802
15.9736
15.974
15.9752
15.9769
15.9793
15.9823
15.986
15.9902
15.995
16.0005
16.0067
16.0134
16.0208
16.0289
16.0377
16.0472
16.0574
16.0683
16.08
16.0924
16.1055
16.1195
16.1342
16.1498
16.1662
16.1834
16.2015
16.2204
16.2402
16.2609
16.2825
16.305
16.3283
16.3526
16.3777
16.4037
16.4305
16.4581
16.4865
16.5156
16.5454
16.5757
16.6065
16.6377
16.6691
16.7005
16.7318
16.7627
16.7929
16.8221
16.8499
16.8759
16.8994
16.9199
16.9365
16.9484
16.9546
16.9538
16.9445
16.925
16.8931
16.8465
16.7822
16.6967
16.5858
16.4447
16.2673
16.0468
15.7751
15.4429
15.0398
14.5544
13.9747
13.2891
12.4874
11.5632
10.5155
15.9775
15.978
15.9791
15.981
15.9835
15.9867
15.9904
15.9949
16
16.0057
16.0122
16.0193
16.0271
16.0356
16.0449
16.0549
16.0657
16.0772
16.0896
16.1028
16.1168
16.1317
16.1475
16.1642
16.1818
16.2004
16.2199
16.2404
16.262
16.2846
16.3082
16.3329
16.3587
16.3856
16.4136
16.4428
16.473
16.5044
16.5368
16.5704
16.6049
16.6405
16.677
16.7143
16.7524
16.7912
16.8304
16.8698
16.9094
16.9487
16.9875
17.0253
17.0617
17.0961
17.1278
17.156
17.1797
17.1978
17.2089
17.2112
17.2028
17.1811
17.1433
17.0857
17.004
16.8928
16.7457
16.555
16.3113
16.0035
15.6188
15.1423
14.5579
13.8489
12.999
11.9956
10.8324
15.9815
15.982
15.9832
15.9852
15.9878
15.9911
15.9951
15.9997
16.005
16.0111
16.0178
16.0253
16.0335
16.0425
16.0523
16.0628
16.0742
16.0865
16.0996
16.1135
16.1285
16.1443
16.1612
16.179
16.1979
16.2178
16.2389
16.261
16.2844
16.3089
16.3347
16.3617
16.3901
16.4197
16.4508
16.4832
16.517
16.5522
16.5889
16.627
16.6666
16.7076
16.7501
16.7938
16.839
16.8853
16.9328
16.9813
17.0307
17.0807
17.131
17.1814
17.2315
17.2807
17.3285
17.3742
17.4169
17.4555
17.4888
17.5152
17.5327
17.539
17.5312
17.5057
17.4581
17.3828
17.273
17.1202
16.914
16.6413
16.2867
15.8317
15.2548
14.5324
13.6403
12.5561
11.2653
15.9856
15.9861
15.9874
15.9894
15.9922
15.9956
15.9998
16.0046
16.0102
16.0166
16.0236
16.0315
16.0401
16.0495
16.0598
16.0709
16.083
16.0959
16.1097
16.1246
16.1404
16.1572
16.1752
16.1942
16.2144
16.2357
16.2583
16.2822
16.3074
16.3339
16.3619
16.3913
16.4222
16.4548
16.4889
16.5247
16.5621
16.6014
16.6424
16.6853
16.7301
16.7767
16.8253
16.8758
16.9282
16.9825
17.0386
17.0966
17.1562
17.2173
17.2798
17.3435
17.4079
17.4729
17.5378
17.602
17.665
17.7257
17.783
17.8355
17.8815
17.9187
17.9446
17.9555
17.9472
17.9142
17.8494
17.7439
17.5862
17.3619
17.0528
16.6363
16.0851
15.3669
14.4464
13.2892
11.8664
15.9898
15.9903
15.9916
15.9938
15.9966
16.0002
16.0046
16.0096
16.0155
16.0221
16.0295
16.0377
16.0468
16.0567
16.0675
16.0792
16.0918
16.1054
16.1201
16.1357
16.1525
16.1703
16.1894
16.2096
16.2311
16.2539
16.2781
16.3037
16.3307
16.3594
16.3896
16.4214
16.455
16.4904
16.5277
16.567
16.6082
16.6516
16.6971
16.7449
16.7949
16.8474
16.9023
16.9597
17.0196
17.0821
17.1472
17.2149
17.2851
17.3579
17.433
17.5105
17.59
17.6714
17.7543
17.8382
17.9226
18.0068
18.0897
18.1704
18.2472
18.3183
18.3813
18.4329
18.4693
18.4851
18.4735
18.4255
18.3291
18.1689
17.9244
17.5691
17.0691
16.3825
15.4613
14.2533
12.7032
15.994
15.9945
15.9959
15.9981
16.0011
16.0049
16.0094
16.0147
16.0208
16.0277
16.0354
16.044
16.0535
16.0639
16.0752
16.0875
16.1008
16.1151
16.1305
16.147
16.1647
16.1836
16.2038
16.2252
16.2481
16.2723
16.2981
16.3254
16.3544
16.3851
16.4176
16.4519
16.4882
16.5266
16.5671
16.6098
16.6549
16.7025
16.7526
16.8053
16.8608
16.9192
16.9805
17.045
17.1126
17.1835
17.2578
17.3355
17.4167
17.5015
17.5897
17.6815
17.7766
17.8751
17.9767
18.0812
18.1881
18.297
18.4072
18.5178
18.6276
18.7352
18.8385
18.9349
19.021
19.0921
19.1419
19.162
19.1407
19.0623
18.9049
18.6392
18.225
17.6114
16.7357
15.5172
13.8627
15.9982
15.9988
16.0002
16.0025
16.0056
16.0095
16.0142
16.0198
16.0261
16.0333
16.0414
16.0504
16.0603
16.0711
16.083
16.0958
16.1098
16.1248
16.141
16.1584
16.177
16.1969
16.2182
16.2409
16.2651
16.2908
16.3182
16.3473
16.3782
16.411
16.4457
16.4826
16.5216
16.563
16.6067
16.653
16.702
16.7538
16.8085
16.8663
16.9273
16.9917
17.0596
17.1313
17.2067
17.2862
17.3699
17.4578
17.5502
17.6472
17.7489
17.8553
17.9666
18.0828
18.2038
18.3295
18.4598
18.5945
18.7331
18.8751
19.0198
19.166
19.3125
19.4572
19.5975
19.7297
19.8487
19.9471
20.0147
20.0366
19.9915
19.8489
19.5646
19.0814
18.3176
17.157
15.4583
16.0024
16.003
16.0045
16.0069
16.0101
16.0142
16.019
16.0248
16.0314
16.0389
16.0473
16.0567
16.067
16.0783
16.0907
16.1042
16.1187
16.1345
16.1514
16.1697
16.1892
16.2102
16.2326
16.2565
16.2821
16.3093
16.3383
16.3691
16.402
16.4368
16.4739
16.5133
16.555
16.5994
16.6464
16.6963
16.7491
16.8052
16.8645
16.9274
16.994
17.0644
17.139
17.2179
17.3013
17.3895
17.4826
17.581
17.6848
17.7942
17.9096
18.031
18.1587
18.2929
18.4338
18.5813
18.7357
18.8969
19.0649
19.2395
19.4204
19.6071
19.7988
19.9945
20.1926
20.3907
20.5852
20.7708
20.9396
21.0795
21.1718
21.1879
21.0861
20.8046
20.2435
19.254
17.6356
16.0065
16.0071
16.0087
16.0112
16.0145
16.0187
16.0238
16.0298
16.0367
16.0445
16.0532
16.0629
16.0737
16.0855
16.0984
16.1124
16.1276
16.1441
16.1618
16.1809
16.2014
16.2234
16.2469
16.272
16.2989
16.3276
16.3582
16.3908
16.4255
16.4625
16.5019
16.5437
16.5882
16.6356
16.6858
16.7393
16.796
16.8563
16.9203
16.9883
17.0604
17.137
17.2182
17.3043
17.3957
17.4926
17.5953
17.7042
17.8194
17.9415
18.0706
18.2072
18.3516
18.5041
18.6651
18.8348
19.0137
19.202
19.3999
19.6078
19.8257
20.0539
20.2922
20.5406
20.7987
21.0655
21.3398
21.6188
21.898
22.1698
22.421
22.6297
22.763
22.7617
22.5206
21.8722
16.0106
16.0112
16.0128
16.0154
16.0189
16.0232
16.0285
16.0347
16.0418
16.0499
16.059
16.0691
16.0802
16.0925
16.1059
16.1205
16.1364
16.1535
16.172
16.1919
16.2133
16.2363
16.261
16.2873
16.3155
16.3457
16.3778
16.4122
16.4488
16.4879
16.5295
16.5738
16.621
16.6713
16.7248
16.7818
16.8424
16.9069
16.9755
17.0485
17.1262
17.2088
17.2966
17.3901
17.4894
17.595
17.7073
17.8266
17.9533
18.088
18.231
18.3828
18.5439
18.7148
18.896
19.0881
19.2916
19.5071
19.7352
19.9766
20.2319
20.5018
20.787
21.0885
21.4071
21.7436
22.0988
22.4733
22.8667
23.2774
23.7003
24.125
24.5329
24.8817
25.0862
24.9931
16.0146
16.0152
16.0169
16.0196
16.0231
16.0276
16.0331
16.0395
16.0468
16.0552
16.0646
16.0751
16.0867
16.0994
16.1133
16.1284
16.1449
16.1627
16.182
16.2027
16.225
16.249
16.2747
16.3023
16.3318
16.3633
16.3971
16.4331
16.4716
16.5127
16.5565
16.6033
16.6532
16.7063
16.763
16.8235
16.8879
16.9566
17.0298
17.1078
17.1909
17.2795
17.3739
17.4745
17.5817
17.6959
17.8177
17.9473
18.0855
18.2327
18.3894
18.5564
18.7341
18.9233
19.1247
19.339
19.5671
19.8097
20.0678
20.3424
20.6347
20.9459
21.2774
21.6311
22.0089
22.4132
22.8472
23.3144
23.8189
24.3652
24.9577
25.6005
26.2936
27.0246
27.7544
28.3928
16.0184
16.0191
16.0208
16.0236
16.0273
16.0319
16.0375
16.0441
16.0517
16.0604
16.0701
16.0809
16.0929
16.106
16.1204
16.1361
16.1532
16.1717
16.1917
16.2132
16.2364
16.2613
16.2881
16.3168
16.3476
16.3805
16.4158
16.4535
16.4938
16.5369
16.5829
16.632
16.6845
16.7405
16.8003
16.8641
16.9323
17.005
17.0827
17.1656
17.254
17.3485
17.4493
17.557
17.6719
17.7947
17.9257
18.0656
18.215
18.3745
18.5449
18.7267
18.9209
19.1281
19.3494
19.5857
19.8379
20.1071
20.3947
20.7019
21.0302
21.3815
21.7576
22.1612
22.5951
23.0632
23.5702
24.1221
24.7269
25.3943
26.137
26.9717
27.9171
28.9918
30.211
31.572
16.0221
16.0228
16.0246
16.0274
16.0312
16.036
16.0418
16.0486
16.0564
16.0653
16.0753
16.0865
16.0989
16.1124
16.1273
16.1436
16.1612
16.1803
16.201
16.2233
16.2474
16.2732
16.301
16.3309
16.3628
16.3971
16.4339
16.4732
16.5152
16.5602
16.6083
16.6598
16.7147
16.7735
16.8363
16.9035
16.9752
17.0519
17.1339
17.2216
17.3153
17.4154
17.5225
17.6371
17.7596
17.8906
18.0307
18.1806
18.341
18.5126
18.6961
18.8926
19.1028
19.3277
19.5684
19.826
20.1017
20.3969
20.713
21.0516
21.4146
21.804
22.2223
22.6724
23.158
23.6836
24.2549
24.8795
25.5672
26.3311
27.1887
28.1632
29.2853
30.5916
32.1285
33.9489
16.0256
16.0264
16.0282
16.0311
16.035
16.0399
16.0458
16.0528
16.0609
16.0701
16.0804
16.0919
16.1046
16.1186
16.1339
16.1506
16.1688
16.1886
16.2099
16.233
16.2578
16.2846
16.3134
16.3443
16.3774
16.413
16.4511
16.492
16.5357
16.5826
16.6327
16.6864
16.7438
16.8052
16.8709
16.9412
17.0165
17.097
17.1832
17.2754
17.3741
17.4798
17.5929
17.7141
17.8439
17.9829
18.1318
18.2914
18.4624
18.6457
18.8421
19.0526
19.2784
19.5204
19.7799
20.0581
20.3565
20.6766
21.02
21.3885
21.7843
22.2095
22.6668
23.1594
23.6911
24.2666
24.8918
25.5743
26.3241
27.1545
28.0828
29.1322
30.3327
31.7209
33.3388
35.2333
16.029
16.0297
16.0316
16.0346
16.0386
16.0436
16.0497
16.0569
16.0651
16.0745
16.0851
16.0969
16.11
16.1244
16.1401
16.1573
16.1761
16.1964
16.2184
16.2421
16.2678
16.2954
16.3251
16.357
16.3913
16.4281
16.4676
16.5099
16.5552
16.6038
16.6559
16.7116
16.7713
16.8353
16.9038
16.9771
17.0557
17.1399
17.23
17.3266
17.4301
17.5411
17.66
17.7876
17.9243
18.071
18.2284
18.3972
18.5784
18.7729
18.9816
19.2057
19.4463
19.7047
19.9821
20.2801
20.6001
20.9439
21.3131
21.7098
22.1361
22.5944
23.0874
23.618
24.1899
24.8073
25.4754
26.2008
26.9916
27.8584
28.8145
29.8766
31.0645
32.399
33.8966
35.56
16.0321
16.0329
16.0348
16.0378
16.0419
16.0471
16.0533
16.0606
16.0691
16.0787
16.0896
16.1017
16.1151
16.1298
16.146
16.1636
16.1829
16.2037
16.2263
16.2507
16.2771
16.3055
16.3361
16.369
16.4043
16.4423
16.483
16.5267
16.5736
16.6238
16.6777
16.7354
16.7973
16.8636
16.9347
17.011
17.0927
17.1803
17.2742
17.3749
17.483
17.599
17.7234
17.8569
18.0003
18.1543
18.3196
18.4973
18.6881
18.8932
19.1137
19.3506
19.6053
19.8792
20.1736
20.4902
20.8306
21.1966
21.59
22.0129
22.4675
22.956
23.4809
24.045
24.6513
25.3031
26.0042
26.7589
27.5724
28.4505
29.3999
30.4272
31.5377
32.7318
33.9958
35.2897
16.035
16.0358
16.0377
16.0408
16.045
16.0503
16.0566
16.0641
16.0728
16.0826
16.0937
16.1061
16.1198
16.1348
16.1514
16.1695
16.1891
16.2105
16.2337
16.2587
16.2858
16.3149
16.3463
16.3801
16.4164
16.4554
16.4973
16.5423
16.5906
16.6424
16.698
16.7575
16.8215
16.89
16.9636
17.0425
17.1271
17.2179
17.3154
17.42
17.5323
17.653
17.7825
17.9217
18.0713
18.2321
18.4049
18.5908
18.7907
19.0058
19.2372
19.4862
19.7541
20.0425
20.3528
20.6868
21.0462
21.4328
21.8486
22.2956
22.7759
23.2917
23.8453
24.4387
25.0741
25.7538
26.4795
27.2531
28.0756
28.9474
29.8674
30.8316
31.8309
32.8467
33.8429
34.7533
16.0376
16.0384
16.0404
16.0435
16.0478
16.0532
16.0597
16.0673
16.0761
16.0862
16.0975
16.1101
16.124
16.1394
16.1563
16.1748
16.1949
16.2167
16.2404
16.266
16.2937
16.3235
16.3557
16.3903
16.4275
16.4675
16.5105
16.5567
16.6062
16.6594
16.7166
16.7779
16.8437
16.9143
16.9901
17.0714
17.1588
17.2526
17.3533
17.4615
17.5777
17.7027
17.837
17.9814
18.1367
18.3038
18.4836
18.6771
18.8854
19.1097
19.3512
19.6113
19.8915
20.1933
20.5183
20.8683
21.2451
21.6507
22.0869
22.5559
23.0595
23.5998
24.1787
24.7975
25.4578
26.1601
26.9044
27.6894
28.5124
29.3682
30.2482
31.1386
32.0181
32.8538
33.5949
34.1645
16.04
16.0408
16.0428
16.046
16.0503
16.0558
16.0624
16.0702
16.0791
16.0893
16.1008
16.1137
16.1279
16.1436
16.1608
16.1796
16.2001
16.2223
16.2465
16.2726
16.3008
16.3313
16.3641
16.3995
16.4375
16.4784
16.5224
16.5696
16.6204
16.6749
16.7334
16.7963
16.8638
16.9362
17.0141
17.0977
17.1875
17.2839
17.3876
17.4991
17.6189
17.7478
17.8864
18.0356
18.1961
18.3689
18.555
18.7555
18.9714
19.2041
19.4549
19.7251
20.0164
20.3304
20.6687
21.0333
21.4259
21.8486
22.3033
22.792
23.3165
23.8786
24.4797
25.1208
25.8022
26.5233
27.282
28.0745
28.8941
29.7309
30.5695
31.3884
32.1566
32.8311
33.3523
33.6397
16.042
16.0428
16.0449
16.0481
16.0525
16.0581
16.0648
16.0727
16.0818
16.0921
16.1038
16.1169
16.1313
16.1472
16.1647
16.1838
16.2047
16.2273
16.2518
16.2784
16.3071
16.3382
16.3716
16.4076
16.4464
16.4881
16.5329
16.5811
16.6329
16.6885
16.7483
16.8126
16.8816
16.9557
17.0354
17.121
17.213
17.3118
17.4182
17.5325
17.6555
17.7879
17.9304
18.0838
18.249
18.4269
18.6187
18.8254
19.0481
19.2883
19.5473
19.8267
20.1279
20.4527
20.803
21.1805
21.5872
22.0252
22.4962
23.0024
23.5453
24.1266
24.7472
25.4076
26.1072
26.8443
27.615
28.4132
29.2291
30.0485
30.8511
31.6089
32.2839
32.8258
33.1695
33.2337
16.0438
16.0446
16.0467
16.05
16.0544
16.06
16.0668
16.0748
16.084
16.0945
16.1064
16.1196
16.1342
16.1504
16.1681
16.1875
16.2086
16.2316
16.2565
16.2834
16.3126
16.3441
16.378
16.4146
16.454
16.4964
16.542
16.591
16.6437
16.7004
16.7613
16.8267
16.897
16.9726
17.0538
17.1412
17.2351
17.3361
17.4447
17.5616
17.6874
17.8228
17.9686
18.1257
18.295
18.4774
18.6741
18.8862
19.1149
19.3616
19.6279
19.9151
20.225
20.5593
20.92
21.3088
21.7278
22.1789
22.6642
23.1855
23.7444
24.3423
24.9798
25.6568
26.3723
27.1233
27.9046
28.7084
29.5222
30.3288
31.104
31.815
32.4186
32.8592
33.0678
32.9617
16.0452
16.0461
16.0482
16.0515
16.056
16.0617
16.0685
16.0766
16.0859
16.0965
16.1085
16.1218
16.1366
16.153
16.1709
16.1905
16.2119
16.2351
16.2603
16.2876
16.3171
16.349
16.3834
16.4205
16.4604
16.5034
16.5496
16.5993
16.6528
16.7103
16.7721
16.8386
16.91
16.9868
17.0694
17.1582
17.2537
17.3564
17.467
17.586
17.7142
17.8522
18.0008
18.1611
18.3338
18.52
18.7208
18.9375
19.1712
19.4235
19.6958
19.9897
20.307
20.6493
21.0187
21.4171
21.8464
22.3088
22.8061
23.3402
23.9125
24.5244
25.1761
25.8674
26.5964
27.3595
28.1506
28.9603
29.7746
30.5737
31.3308
32.0098
32.5637
32.9328
33.0445
32.8139
16.0463
16.0472
16.0493
16.0527
16.0572
16.0629
16.0698
16.078
16.0874
16.0981
16.1101
16.1236
16.1385
16.155
16.1731
16.1929
16.2144
16.2379
16.2634
16.2909
16.3208
16.353
16.3877
16.4252
16.4655
16.5089
16.5557
16.606
16.6601
16.7182
16.7808
16.8481
16.9204
16.9981
17.0818
17.1718
17.2686
17.3728
17.4849
17.6056
17.7357
17.8758
18.0267
18.1895
18.365
18.5542
18.7584
18.9788
19.2166
19.4734
19.7506
20.0499
20.3731
20.722
21.0984
21.5045
21.9422
22.4136
22.9206
23.4651
24.0483
24.6715
25.3349
26.0378
26.7781
27.5516
28.3514
29.1673
29.984
30.7804
31.5277
32.1876
32.7104
16.0471
16.048
16.0501
16.0535
16.0581
16.0638
16.0707
16.0789
16.0884
16.0992
16.1113
16.1249
16.1399
16.1565
16.1747
16.1946
16.2163
16.24
16.2656
16.2934
16.3234
16.3558
16.3909
16.4286
16.4693
16.5131
16.5602
16.6109
16.6655
16.7241
16.7872
16.8551
16.9281
17.0066
17.0911
17.1819
17.2797
17.385
17.4983
17.6203
17.7518
17.8935
18.0462
18.2108
18.3884
18.58
18.7867
19.0099
19.2508
19.5109
19.7919
20.0953
20.4229
20.7766
21.1585
21.5704
22.0144
22.4926
23.007
23.5592
24.1507
24.7825
25.4548
26.1666
26.9156
27.6973
28.5044
29.3259
30.1461
30.9429
31.6863
16.0476
16.0484
16.0506
16.054
16.0585
16.0643
16.0713
16.0795
16.089
16.0998
16.112
16.1256
16.1407
16.1574
16.1757
16.1957
16.2175
16.2412
16.267
16.2949
16.3251
16.3577
16.3928
16.4308
16.4717
16.5157
16.5631
16.6141
16.6689
16.7279
16.7914
16.8597
16.9331
17.0121
17.0971
17.1886
17.287
17.393
17.5071
17.63
17.7624
17.9051
18.059
18.2249
18.4038
18.597
18.8054
19.0304
19.2734
19.5358
19.8192
20.1253
20.4559
20.8129
21.1983
21.6141
22.0624
22.5452
23.0644
23.6218
24.2189
24.8565
25.5347
26.2525
27.0075
27.7949
28.6072
29.4331
30.2565
31.0548
31.7974
16.0477
16.0485
16.0507
16.0541
16.0587
16.0644
16.0714
16.0797
16.0892
16.1
16.1122
16.1259
16.141
16.1577
16.176
16.1961
16.2179
16.2417
16.2675
16.2955
16.3257
16.3584
16.3937
16.4317
16.4727
16.5168
16.5643
16.6154
16.6705
16.7296
16.7933
16.8617
16.9354
17.0146
17.0999
17.1916
17.2904
17.3967
17.5112
17.6345
17.7674
17.9106
18.065
18.2315
18.4112
18.6051
18.8143
19.0402
19.2842
19.5477
19.8324
20.1398
20.4719
20.8305
21.2176
21.6353
22.0856
22.5706
23.0922
23.6522
24.2519
24.8923
25.5733
26.2941
27.0519
27.842
28.6568
29.4848
30.3097
31.1088
31.8512
16.0474
16.0483
16.0504
16.0538
16.0584
16.0642
16.0712
16.0794
16.0889
16.0998
16.112
16.1256
16.1407
16.1574
16.1757
16.1958
16.2176
16.2414
16.2672
16.2952
16.3254
16.3581
16.3933
16.4313
16.4723
16.5164
16.5639
16.615
16.67
16.7292
16.7928
16.8613
16.9349
17.0141
17.0994
17.1911
17.2898
17.3961
17.5106
17.6339
17.7667
17.9099
18.0643
18.2308
18.4104
18.6043
18.8135
19.0394
19.2833
19.5468
19.8314
20.1388
20.4708
20.8294
21.2165
21.6341
22.0843
22.5693
23.0908
23.6507
24.2504
24.8907
25.5717
26.2923
27.05
27.84
28.6546
29.4824
30.3072
31.106
31.8482
16.0469
16.0477
16.0498
16.0532
16.0578
16.0636
16.0705
16.0788
16.0882
16.0991
16.1112
16.1248
16.1399
16.1566
16.1748
16.1948
16.2166
16.2403
16.266
16.2939
16.3241
16.3567
16.3918
16.4297
16.4706
16.5145
16.5619
16.6128
16.6677
16.7266
16.7901
16.8583
16.9317
17.0106
17.0956
17.187
17.2853
17.3912
17.5053
17.6281
17.7604
17.9031
18.0568
18.2227
18.4015
18.5946
18.8029
19.0278
19.2707
19.5329
19.8162
20.1222
20.4527
20.8096
21.1948
21.6104
22.0585
22.5411
23.0602
23.6174
24.2143
24.8516
25.5295
26.2471
27.0017
27.7887
28.6005
29.426
16.0459
16.0468
16.0489
16.0523
16.0568
16.0626
16.0695
16.0777
16.0871
16.0979
16.11
16.1235
16.1385
16.1551
16.1733
16.1932
16.2149
16.2384
16.264
16.2918
16.3218
16.3542
16.3891
16.4268
16.4674
16.5112
16.5582
16.6089
16.6634
16.722
16.785
16.8528
16.9257
17.0041
17.0885
17.1792
17.2769
17.3821
17.4953
17.6172
17.7485
17.8901
18.0426
18.2071
18.3846
18.576
18.7825
19.0055
19.2462
19.5062
19.7869
20.0901
20.4175
20.771
21.1526
21.5642
22.008
22.4859
22.9999
23.5518
24.1429
24.7743
25.4461
26.1574
26.9058
27.6869
28.4932
16.0447
16.0455
16.0476
16.051
16.0555
16.0612
16.0681
16.0762
16.0856
16.0963
16.1083
16.1217
16.1366
16.1531
16.1711
16.1909
16.2124
16.2358
16.2612
16.2887
16.3185
16.3506
16.3853
16.4227
16.4629
16.5063
16.5529
16.6031
16.6571
16.7152
16.7776
16.8448
16.917
16.9946
17.0782
17.168
17.2647
17.3687
17.4807
17.6012
17.7311
17.871
18.0218
18.1843
18.3596
18.5486
18.7526
18.9727
19.2103
19.4668
19.7437
20.0427
20.3656
20.7141
21.0902
21.4959
21.9332
22.4042
22.9108
23.4547
24.0375
24.6601
25.3228
26.025
26.7645
27.537
28.3358
16.0431
16.0439
16.046
16.0493
16.0538
16.0594
16.0663
16.0743
16.0836
16.0942
16.1061
16.1194
16.1342
16.1505
16.1684
16.1879
16.2092
16.2324
16.2575
16.2848
16.3142
16.346
16.3803
16.4173
16.4571
16.5
16.5461
16.5957
16.649
16.7064
16.7681
16.8344
16.9057
16.9823
17.0647
17.1533
17.2486
17.3512
17.4616
17.5804
17.7083
17.8461
17.9945
18.1544
18.3269
18.5128
18.7133
18.9297
19.1631
19.415
19.6869
19.9805
20.2973
20.6392
21.0082
21.406
21.8349
22.2967
22.7934
23.3269
23.8986
24.5097
25.1606
25.851
26.579
27.3409
28.1308
16.0411
16.042
16.044
16.0473
16.0518
16.0573
16.0641
16.0721
16.0813
16.0917
16.1035
16.1167
16.1313
16.1473
16.165
16.1843
16.2054
16.2282
16.2531
16.28
16.309
16.3404
16.3742
16.4107
16.45
16.4922
16.5377
16.5866
16.6391
16.6956
16.7564
16.8216
16.8917
16.9671
17.0482
17.1353
17.2289
17.3297
17.4381
17.5547
17.6802
17.8154
17.9609
18.1177
18.2866
18.4687
18.665
18.8767
19.105
19.3513
19.6171
19.9038
20.2132
20.547
20.9071
21.2953
21.7137
22.1642
22.6488
23.1694
23.7274
24.3244
24.9609
25.6369
26.3511
27.1007
27.8806
16.0389
16.0397
16.0418
16.045
16.0494
16.0549
16.0616
16.0694
16.0785
16.0888
16.1004
16.1134
16.1278
16.1437
16.1611
16.1801
16.2008
16.2234
16.2478
16.2743
16.3029
16.3338
16.3671
16.403
16.4416
16.4831
16.5278
16.5759
16.6275
16.6829
16.7425
16.8066
16.8754
16.9493
17.0287
17.114
17.2057
17.3043
17.4104
17.5244
17.6471
17.7792
17.9213
18.0743
18.2391
18.4166
18.608
18.8142
19.0365
19.2761
19.5346
19.8134
20.114
20.4383
20.7879
21.1647
21.5707
22.0079
22.4781
22.9834
23.5254
24.1056
24.725
25.3842
26.0825
26.818
16.0364
16.0372
16.0392
16.0424
16.0467
16.0521
16.0587
16.0664
16.0754
16.0855
16.097
16.1097
16.1239
16.1395
16.1566
16.1753
16.1957
16.2179
16.2419
16.2679
16.296
16.3263
16.359
16.3942
16.432
16.4728
16.5165
16.5636
16.6141
16.6684
16.7267
16.7894
16.8566
16.9288
17.0064
17.0897
17.1792
17.2753
17.3787
17.4898
17.6092
17.7377
17.8759
18.0247
18.1847
18.3571
18.5427
18.7426
18.958
19.1901
19.4403
19.7099
20.0005
20.3138
20.6514
21.0152
21.407
21.8288
22.2825
22.7702
23.2937
23.8546
24.4544
25.0941
25.774
16.0336
16.0344
16.0363
16.0395
16.0437
16.0491
16.0555
16.0631
16.0719
16.0819
16.0931
16.1056
16.1195
16.1348
16.1516
16.17
16.19
16.2117
16.2352
16.2607
16.2882
16.3179
16.3499
16.3843
16.4213
16.4611
16.5039
16.5499
16.5992
16.6522
16.709
16.7701
16.8356
16.9059
16.9814
17.0624
17.1494
17.2428
17.3432
17.451
17.5668
17.6913
17.8252
17.9691
18.1239
18.2905
18.4697
18.6626
18.8703
19.0939
19.3348
19.5942
19.8736
20.1746
20.4987
20.8479
21.2238
21.6283
22.0635
22.5314
23.0338
23.5729
24.1503
24.7676
25.4262
16.0305
16.0313
16.0332
16.0363
16.0404
16.0457
16.052
16.0594
16.068
16.0778
16.0888
16.1011
16.1147
16.1297
16.1461
16.1641
16.1836
16.2049
16.2279
16.2528
16.2797
16.3086
16.3398
16.3734
16.4095
16.4483
16.49
16.5348
16.5828
16.6343
16.6896
16.7489
16.8125
16.8807
16.9539
17.0324
17.1167
17.2071
17.3042
17.4083
17.5202
17.6403
17.7694
17.908
18.0571
18.2172
18.3895
18.5747
18.7739
18.9883
19.2189
19.4671
19.7342
20.0217
20.3311
20.6641
21.0225
21.408
21.8226
22.2684
22.7475
23.2619
23.8139
24.4056
25.0393
16.0272
16.0279
16.0298
16.0328
16.0369
16.042