/*--------------------------------*- C++ -*----------------------------------*\
  =========                 |
  \\      /  F ield         | OpenFOAM: The Open Source CFD Toolbox
   \\    /   O peration     | Website:  https://openfoam.org
    \\  /    A nd           | Version:  13
     \\/     M anipulation  |
\*---------------------------------------------------------------------------*/
FoamFile
{
    format      ascii;
    class       volScalarField;
    location    "900";
    object      omega;
}
// * * * * * * * * * * * * * * * * * * * * * * * * * * * * * * * * * * * * * //

dimensions      [0 0 -1 0 0 0 0];

internalField   nonuniform List<scalar> 
171745
(
16.4023
16.3352
16.2689
16.2033
16.1385
16.0743
16.0108
15.9479
15.8855
15.8237
15.7625
15.7016
15.6412
15.5813
15.5217
15.4624
15.4036
15.3451
15.287
15.2293
15.172
15.1152
15.0589
15.0031
16.4029
16.3358
16.2695
16.2039
16.1391
16.0749
16.0114
15.9485
15.8863
15.8245
15.7633
15.7025
15.6422
15.5822
15.5227
15.4635
15.4047
15.3463
15.2883
15.2306
15.1734
15.1167
15.0604
15.0046
16.4046
16.3375
16.2711
16.2055
16.1407
16.0766
16.0131
15.9503
15.888
15.8264
15.7652
15.7045
15.6443
15.5845
15.5251
15.466
15.4073
15.349
15.2911
15.2336
15.1765
15.1199
15.0637
15.0081
16.4071
16.34
16.2736
16.208
16.1432
16.0791
16.0157
15.9529
15.8908
15.8293
15.7682
15.7077
15.6476
15.588
15.5287
15.4699
15.4114
15.3533
15.2956
15.2383
15.1814
15.1249
15.069
15.0136
16.411
16.3438
16.2774
16.2118
16.147
16.083
16.0197
15.957
15.895
15.8336
15.7728
15.7125
15.6526
15.5932
15.5342
15.4756
15.4174
15.3595
15.3021
15.245
15.1884
15.1323
15.0766
15.0214
16.4166
16.3493
16.2829
16.2174
16.1526
16.0886
16.0254
15.9629
15.9011
15.8399
15.7793
15.7193
15.6597
15.6006
15.5419
15.4837
15.4258
15.3683
15.3112
15.2545
15.1983
15.1425
15.0871
15.0323
16.4247
16.3573
16.2909
16.2254
16.1607
16.0968
16.0337
15.9714
15.9099
15.8489
15.7886
15.7289
15.6697
15.611
15.5528
15.4949
15.4375
15.3804
15.3238
15.2676
15.2118
15.1564
15.1015
15.0471
16.4362
16.3689
16.3024
16.2369
16.1723
16.1086
16.0457
15.9837
15.9224
15.8618
15.8019
15.7426
15.6839
15.6257
15.5679
15.5106
15.4537
15.3972
15.3412
15.2855
15.2302
15.1754
15.1211
15.0672
16.4529
16.3855
16.3191
16.2537
16.1892
16.1256
16.063
16.0012
15.9403
15.8802
15.8208
15.762
15.7039
15.6463
15.5892
15.5326
15.4764
15.4206
15.3651
15.3101
15.2555
15.2014
15.1477
15.0944
16.4769
16.4095
16.3432
16.2779
16.2136
16.1503
16.088
16.0266
15.9662
15.9066
15.8478
15.7897
15.7323
15.6755
15.6192
15.5635
15.5081
15.4531
15.3985
15.3443
15.2905
15.2371
15.1841
15.1315
16.5117
16.4444
16.3782
16.3131
16.2491
16.1861
16.1242
16.0634
16.0036
15.9447
15.8867
15.8295
15.7731
15.7173
15.662
15.6073
15.553
15.499
15.4454
15.3921
15.3392
15.2866
15.2344
15.1826
16.5624
16.4952
16.4292
16.3644
16.3008
16.2383
16.177
16.1169
16.0579
15.9999
15.943
15.887
15.8318
15.7774
15.7235
15.6701
15.6171
15.5644
15.512
15.4598
15.4078
15.3561
15.3047
15.2535
16.6364
16.5694
16.5038
16.4394
16.3763
16.3145
16.254
16.1949
16.1371
16.0805
16.0251
15.9708
15.9174
15.8648
15.8129
15.7614
15.7102
15.6591
15.6081
15.5572
15.5063
15.4555
15.4048
15.3542
16.7449
16.6784
16.6132
16.5495
16.4872
16.4264
16.3672
16.3096
16.2535
16.1991
16.1461
16.0945
16.044
15.9945
15.9455
15.897
15.8485
15.7999
15.751
15.7015
15.6519
15.6021
15.5519
15.5014
16.9056
16.8397
16.7754
16.7127
16.6518
16.5928
16.5357
16.4808
16.428
16.3773
16.3288
16.2822
16.2372
16.1933
16.1501
16.1072
16.0638
16.0197
15.9745
15.9276
15.8799
15.8311
15.7813
15.7305
17.149
17.0842
17.0213
16.9607
16.9025
16.8468
16.7941
16.7446
16.6984
16.6559
16.617
16.5815
16.5488
16.5181
16.4884
16.4584
16.4272
16.3938
16.3572
16.3166
16.2721
16.2251
16.1755
16.1233
17.5322
17.4697
17.4103
17.3542
17.302
17.2543
17.2118
17.1753
17.1456
17.1235
17.1095
17.1033
17.1042
17.1102
17.1191
17.1277
17.1332
17.1327
17.1233
17.1024
17.066
17.0233
16.9741
16.9184
18.1686
18.1133
18.0634
18.02
17.9843
17.9582
17.9438
17.944
17.962
18.001
18.0639
18.151
18.2608
18.389
18.5282
18.6693
18.8029
18.919
19.0078
19.0604
19.0698
19.0314
18.975
18.9016
19.296
19.2667
19.2509
19.2515
19.273
19.3216
19.405
19.5333
19.7178
19.9695
20.2992
20.7109
21.1994
21.746
22.3227
22.8983
23.4444
23.9335
24.3396
24.6392
24.812
24.8348
24.7141
24.5453
24.3346
21.5375
21.6277
21.7621
21.9509
22.2082
22.5527
23.0073
23.5998
24.3624
25.3256
26.5108
27.9139
29.4896
31.155
32.8149
34.3906
35.8296
37.097
38.1624
38.9929
39.5553
39.8252
39.7662
39.3153
38.7458
27.1737
27.854
28.6689
29.6352
30.7767
32.1254
33.7203
35.6063
37.8268
40.4042
43.3109
46.451
49.6559
52.7197
55.4831
57.8837
59.9323
61.6653
63.1103
64.2755
65.1364
65.6395
65.7676
65.5365
64.7461
46.3628
48.919
51.5623
54.2752
57.0547
59.911
62.8643
65.9314
69.1039
72.3329
75.5149
78.4945
81.0856
83.1478
84.6763
85.8233
86.7998
87.8166
89.0249
90.4596
92.2436
93.7881
94.8528
95.3682
95.3284
101.281
103.817
105.724
107.054
107.874
108.26
108.287
108.007
107.463
106.686
105.716
104.609
103.408
102.421
101.659
101.567
102.662
105.465
110.185
116.52
127.611
135.712
141.698
146.048
149.056
164.054
158.203
152.213
146.291
140.524
135.007
129.769
124.706
119.856
115.313
111.308
108.121
106.062
104.807
103.345
103.734
107.571
119.133
139.855
166.956
244.038
253.204
262.188
269.819
277.573
287.874
162.976
153.563
145.198
137.667
130.802
124.47
118.596
113.26
108.649
105.448
104.41
103.451
103.711
108.622
123.677
156.946
249.66
340.631
413.862
437.921
431.818
405.882
393.58
382.751
369.381
136.158
128.896
122.529
116.928
111.988
107.675
104.179
101.978
102.26
101.561
104.666
117.608
150.365
180.753
366.813
648.33
802.905
383.043
160.819
130.961
122.096
129.311
140.32
140.966
117.036
112.633
108.836
105.609
102.917
100.846
99.6522
100.109
104.188
104.534
118.104
137.538
205.16
572.499
1150.41
448.587
326.188
152.774
105.182
100.742
104.398
112.209
116.589
118.808
100.124
98.2925
96.9092
96.0022
95.7689
96.6011
99.4625
106.448
106.834
121.58
146.142
349.842
656.855
288.662
110.909
115.843
128.171
142.097
144.42
146.042
121.64
110.161
118.402
138.35
156.197
178.857
171.017
462.605
408.6
383.111
372.213
357.975
247.686
265.717
281.938
298.646
73.5697
76.5929
79.395
81.7961
83.6624
84.9873
85.9117
86.6206
87.2993
88.0813
89.016
90.2544
91.3167
91.9924
92.2196
91.9737
91.0854
41.5162
44.4229
47.5296
50.6625
53.6112
56.2123
58.4044
60.2065
61.665
62.8195
63.691
64.273
64.5277
64.4481
63.9378
62.9353
61.6922
60.3213
25.848
27.0772
28.5131
30.1028
31.7542
33.3631
34.8456
36.1523
37.2575
38.1405
38.7804
39.1567
39.2561
38.9872
38.4799
37.8756
37.196
36.4614
20.1583
20.5105
20.9434
21.4486
22.0031
22.5743
23.1275
23.6305
24.0578
24.389
24.6059
24.6944
24.6184
24.4736
24.2858
24.0616
23.8084
23.5327
18.0677
18.1382
18.2329
18.3494
18.4821
18.6221
18.759
18.8819
18.9807
19.0471
19.0739
19.0509
19.002
18.9361
18.8544
18.7589
18.6518
18.5354
17.1491
17.1375
17.1339
17.137
17.1447
17.1541
17.1619
17.1647
17.1597
17.1443
17.1161
17.076
17.0294
16.9764
16.9172
16.8525
16.783
16.7095
16.6667
16.6289
16.5944
16.5626
16.5325
16.5031
16.4731
16.4413
16.4066
16.3683
16.325
16.2794
16.2312
16.1804
16.127
16.0712
16.0133
15.9537
16.3828
16.3348
16.2887
16.2441
16.2006
16.1577
16.1148
16.0714
16.027
15.9813
15.9341
15.8859
15.8368
15.7866
15.7352
15.6828
15.6294
15.5754
16.2028
16.1501
16.0988
16.0486
15.9992
15.9505
15.9021
15.8537
15.8051
15.756
15.7066
15.657
15.6071
15.5568
15.5062
15.4552
15.4039
15.3525
16.0837
16.0285
15.9743
15.9211
15.8687
15.8169
15.7655
15.7144
15.6634
15.6125
15.5616
15.5108
15.4601
15.4094
15.3588
15.3081
15.2575
15.207
16.003
15.9462
15.8903
15.8353
15.7809
15.7272
15.6739
15.621
15.5684
15.516
15.4638
15.412
15.3604
15.309
15.2579
15.207
15.1563
15.1059
15.9478
15.8899
15.8328
15.7764
15.7207
15.6655
15.6108
15.5566
15.5027
15.4491
15.3959
15.3431
15.2906
15.2385
15.1867
15.1352
15.0842
15.0335
15.9097
15.8509
15.7929
15.7355
15.6788
15.6226
15.5668
15.5115
15.4566
15.402
15.3479
15.2941
15.2408
15.1879
15.1354
15.0833
15.0317
14.9805
15.8832
15.8238
15.7651
15.707
15.6494
15.5923
15.5357
15.4795
15.4238
15.3684
15.3134
15.2589
15.2048
15.1512
15.098
15.0453
14.9931
14.9413
15.8647
15.8048
15.7455
15.6868
15.6286
15.5709
15.5136
15.4567
15.4002
15.3442
15.2885
15.2333
15.1786
15.1243
15.0705
15.0172
14.9644
14.9121
15.8517
15.7914
15.7317
15.6725
15.6138
15.5555
15.4977
15.4402
15.3832
15.3266
15.2704
15.2146
15.1593
15.1045
15.0502
14.9964
14.9431
14.8903
15.8426
15.782
15.7219
15.6623
15.6032
15.5445
15.4862
15.4283
15.3709
15.3138
15.2571
15.2009
15.1451
15.0899
15.0351
14.9809
14.9272
14.874
15.8362
15.7753
15.715
15.6551
15.5957
15.5366
15.478
15.4198
15.3619
15.3045
15.2475
15.1909
15.1348
15.0791
15.024
14.9694
14.9154
14.8619
15.8317
15.7707
15.7101
15.65
15.5903
15.5311
15.4722
15.4137
15.3555
15.2978
15.2405
15.1837
15.1273
15.0714
15.016
14.9611
14.9068
14.8531
15.8287
15.7676
15.7068
15.6466
15.5867
15.5273
15.4682
15.4095
15.3512
15.2932
15.2357
15.1787
15.1221
15.066
15.0104
14.9553
14.9008
14.8469
15.8268
15.7656
15.7048
15.6444
15.5844
15.5248
15.4656
15.4068
15.3484
15.2903
15.2327
15.1755
15.1188
15.0625
15.0068
14.9516
14.897
14.8429
15.8261
15.7648
15.7039
15.6435
15.5835
15.5238
15.4646
15.4057
15.3472
15.2891
15.2314
15.1741
15.1173
15.061
15.0052
14.95
14.8953
14.8412
16.4022
16.3352
16.2689
16.2033
16.1385
16.0743
16.0108
15.9479
15.8856
15.8238
15.7625
15.7017
15.6413
15.5813
15.5217
15.4625
15.4037
15.3452
15.2871
15.2294
15.1721
15.1152
15.0589
15.003
16.4028
16.3358
16.2695
16.2039
16.1391
16.0749
16.0114
15.9486
15.8863
15.8246
15.7633
15.7026
15.6422
15.5823
15.5228
15.4636
15.4048
15.3464
15.2883
15.2307
15.1735
15.1167
15.0604
15.0046
16.4045
16.3374
16.271
16.2055
16.1406
16.0765
16.0131
15.9503
15.888
15.8264
15.7652
15.7046
15.6443
15.5845
15.5251
15.466
15.4074
15.3491
15.2911
15.2336
15.1765
15.1199
15.0637
15.008
16.4069
16.3398
16.2735
16.2079
16.1431
16.079
16.0156
15.9529
15.8908
15.8292
15.7682
15.7077
15.6476
15.588
15.5287
15.4698
15.4114
15.3532
15.2955
15.2382
15.1813
15.1248
15.0688
15.0134
16.4107
16.3435
16.2771
16.2116
16.1468
16.0828
16.0195
15.9568
15.8949
15.8335
15.7726
15.7123
15.6525
15.5931
15.534
15.4754
15.4172
15.3594
15.3019
15.2448
15.1882
15.132
15.0763
15.0211
16.4161
16.3489
16.2825
16.217
16.1522
16.0883
16.0251
15.9626
15.9008
15.8396
15.779
15.719
15.6594
15.6003
15.5416
15.4833
15.4255
15.368
15.3108
15.2541
15.1979
15.142
15.0867
15.0319
16.4241
16.3568
16.2904
16.2248
16.1602
16.0963
16.0333
15.971
15.9094
15.8485
15.7882
15.7285
15.6693
15.6106
15.5523
15.4945
15.437
15.38
15.3233
15.2671
15.2112
15.1559
15.101
15.0465
16.4355
16.3682
16.3017
16.2363
16.1717
16.108
16.0451
15.9831
15.9218
15.8612
15.8013
15.742
15.6833
15.6251
15.5673
15.51
15.4531
15.3966
15.3405
15.2849
15.2296
15.1748
15.1204
15.0665
16.452
16.3846
16.3182
16.2528
16.1884
16.1248
16.0622
16.0005
15.9396
15.8794
15.82
15.7613
15.7032
15.6456
15.5885
15.5319
15.4757
15.4199
15.3644
15.3094
15.2548
15.2007
15.147
15.0937
16.4757
16.4084
16.3421
16.2768
16.2126
16.1493
16.087
16.0257
15.9652
15.9057
15.8469
15.7888
15.7315
15.6747
15.6184
15.5626
15.5073
15.4523
15.3977
15.3435
15.2898
15.2364
15.1834
15.1309
16.5103
16.443
16.3768
16.3118
16.2478
16.1849
16.1231
16.0622
16.0024
15.9436
15.8856
15.8284
15.772
15.7162
15.661
15.6063
15.552
15.4981
15.4445
15.3913
15.3385
15.286
15.2339
15.1821
16.5606
16.4935
16.4276
16.3628
16.2993
16.2369
16.1756
16.1156
16.0566
15.9987
15.9418
15.8858
15.8307
15.7762
15.7224
15.6691
15.6161
15.5635
15.5112
15.4591
15.4073
15.3558
15.3046
15.2537
16.6343
16.5675
16.502
16.4378
16.3748
16.3131
16.2527
16.1937
16.1359
16.0794
16.024
15.9697
15.9164
15.8638
15.8119
15.7604
15.7093
15.6584
15.6076
15.5569
15.5063
15.4559
15.4056
15.3553
16.743
16.6767
16.6118
16.5483
16.4862
16.4256
16.3666
16.309
16.2531
16.1986
16.1456
16.094
16.0435
15.9938
15.9449
15.8963
15.8478
15.7993
15.7506
15.7016
15.6525
15.6032
15.5538
15.504
16.9049
16.8394
16.7755
16.7132
16.6526
16.5938
16.5369
16.482
16.4292
16.3785
16.3297
16.2827
16.2373
16.1929
16.1492
16.1057
16.0619
16.0175
15.9721
15.9256
15.8785
15.8307
15.782
15.7324
17.1513
17.0872
17.025
16.9649
16.907
16.8517
16.799
16.7492
16.7026
16.6592
16.619
16.5817
16.5469
16.5137
16.4813
16.4486
16.4148
16.3791
16.3407
16.2989
16.2553
16.2097
16.162
16.1119
17.5409
17.4793
17.4205
17.3649
17.3128
17.2646
17.221
17.1825
17.1498
17.1233
17.1032
17.0894
17.0806
17.0754
17.0716
17.0668
17.0589
17.046
17.0261
16.9976
16.9616
16.9206
16.8744
16.8228
18.1888
18.1333
18.0828
18.0377
17.9991
17.9682
17.9465
17.9358
17.9383
17.9559
17.99
18.0406
18.1053
18.1803
18.26
18.3381
18.4085
18.4653
18.5026
18.5149
18.4978
18.4678
18.4245
18.3677
19.3413
19.3031
19.275
19.2587
19.257
19.2734
19.3129
19.3815
19.4864
19.6339
19.8302
20.0776
20.3711
20.6983
21.0405
21.378
21.6925
21.9667
22.1832
22.3254
22.3767
22.3643
22.314
22.2274
22.1076
21.5574
21.5774
21.623
21.7002
21.817
21.9849
22.2185
22.5358
22.9598
23.513
24.2157
25.0732
26.0628
27.13
28.2078
29.2386
30.1795
30.9954
31.6536
32.1227
32.3775
32.3617
32.2475
32.0357
31.737
26.398
26.6642
27.0045
27.433
27.97
28.643
29.4879
30.5498
31.8838
33.5438
35.5571
37.8902
40.4182
42.9606
45.3521
47.4975
49.3637
50.9361
52.193
53.1037
53.639
53.7726
53.4261
52.8754
52.1418
39.8387
41.0156
42.3225
43.7712
45.3886
47.2162
49.3103
51.7378
54.5611
57.8133
61.4653
65.3279
69.1255
72.5695
75.5002
77.9189
79.9198
81.5708
82.8747
83.8157
84.3736
84.4749
83.9988
82.895
81.5619
82.6976
84.5446
86.2861
87.9247
89.4842
91.0078
92.5151
94.0472
95.7669
97.7075
99.8544
102.054
104.201
105.981
107.741
109.653
111.697
113.802
115.813
117.608
119.306
121.304
121.992
121.507
119.915
151.779
148.722
145.461
142.092
138.705
135.391
132.238
129.324
126.774
124.809
123.648
123.642
122.639
123.306
127.313
135.366
144.739
154.295
163.795
173.023
183.33
212.419
214.49
215.689
216.172
216.641
179.373
170.087
161.857
154.548
148.083
142.43
137.537
133.614
131.251
130.483
129.952
135.668
154.673
191.569
256.137
263.864
295.226
352.691
358.026
377.322
391.589
414.578
396.002
379.847
366.931
174.792
166.662
159.402
152.971
147.382
142.775
139.711
139.202
136.885
142.357
174.95
228.477
479.813
708.002
1339.65
960.314
868.926
843.852
509.993
344.027
315.707
215.929
263.109
257.908
175.887
168.75
162.703
157.668
153.646
150.756
149.694
153.253
152.261
174.103
216.216
674.244
502.126
149.155
150.411
148.603
152.381
148.939
151.974
147.618
144.111
141.568
140.27
141.046
146.45
148.466
174.203
232.282
1147.81
1585.01
157.124
165.464
176.537
184.476
176.872
1038.25
271.489
144.148
156.244
204.041
234.331
216.944
538.973
419.469
383.173
362.396
336.939
229.112
236.422
243.505
250.016
59.8578
63.4419
67.197
70.8553
74.0924
76.7482
78.822
80.4106
81.5931
82.3993
82.8543
82.9982
82.7533
81.8552
80.6607
79.2688
77.7125
34.6573
36.7458
39.1324
41.6791
44.188
46.4829
48.4643
50.1066
51.4149
52.3843
53.0059
53.2713
53.0667
52.6136
51.9781
51.1792
50.2481
49.2166
23.9375
24.6909
25.5969
26.6251
27.7118
28.7806
29.7673
30.6263
31.3285
31.8519
32.1758
32.2728
32.1914
32.0179
31.7568
31.4187
31.0171
30.5659
19.7796
19.9947
20.2612
20.572
20.9114
21.2573
21.5872
21.8808
22.1193
22.2886
22.3775
22.3752
22.3378
22.2651
22.1591
22.0237
21.8635
21.6831
18.0086
18.0486
18.1052
18.1755
18.2547
18.3362
18.4127
18.4776
18.5244
18.5477
18.5427
18.5172
18.4788
18.4274
18.3634
18.2877
18.202
18.108
17.1439
17.1259
17.114
17.1072
17.1034
17.1002
17.095
17.0855
17.0696
17.0455
17.0115
16.973
16.9293
16.8804
16.8263
16.7672
16.7039
16.6368
16.6679
16.6286
16.5922
16.5581
16.5256
16.4935
16.4608
16.4266
16.3901
16.3505
16.3079
16.2634
16.2169
16.1681
16.117
16.0638
16.0087
15.952
16.383
16.3346
16.2881
16.243
16.199
16.1556
16.1122
16.0684
16.0238
15.9782
15.9316
15.8843
15.8362
15.7872
15.7373
15.6865
15.6348
15.5824
16.2018
16.149
16.0976
16.0474
15.998
15.9492
15.9007
15.8524
15.8039
15.7551
15.7062
15.6572
15.608
15.5585
15.5087
15.4586
15.4082
15.3577
16.0822
16.027
15.9729
15.9197
15.8673
15.8155
15.7642
15.7132
15.6623
15.6116
15.561
15.5106
15.4602
15.41
15.3598
15.3096
15.2595
15.2095
16.0016
15.9448
15.8889
15.8339
15.7795
15.7258
15.6726
15.6197
15.5672
15.5149
15.4629
15.4113
15.3599
15.3088
15.2579
15.2073
15.1569
15.1067
15.9465
15.8886
15.8315
15.7752
15.7194
15.6643
15.6096
15.5554
15.5016
15.4481
15.3949
15.3422
15.2898
15.2378
15.1861
15.1348
15.0839
15.0333
15.9086
15.8499
15.7919
15.7345
15.6778
15.6215
15.5658
15.5105
15.4556
15.401
15.3469
15.2932
15.2399
15.1871
15.1346
15.0826
15.031
14.9799
15.8824
15.823
15.7642
15.7061
15.6486
15.5915
15.5349
15.4787
15.4229
15.3675
15.3126
15.2581
15.204
15.1503
15.0972
15.0445
14.9923
14.9405
15.864
15.8041
15.7449
15.6861
15.6279
15.5702
15.5129
15.456
15.3995
15.3434
15.2878
15.2326
15.1778
15.1235
15.0697
15.0164
14.9636
14.9114
15.8512
15.7909
15.7312
15.672
15.6132
15.555
15.4971
15.4397
15.3826
15.326
15.2698
15.214
15.1587
15.1038
15.0495
14.9957
14.9424
14.8896
15.8422
15.7816
15.7215
15.6619
15.6028
15.5441
15.4858
15.4279
15.3704
15.3133
15.2566
15.2004
15.1446
15.0894
15.0346
14.9803
14.9266
14.8734
15.836
15.7751
15.7147
15.6549
15.5954
15.5364
15.4777
15.4195
15.3616
15.3042
15.2472
15.1906
15.1344
15.0788
15.0237
14.9691
14.915
14.8615
15.8316
15.7705
15.71
15.6499
15.5902
15.5309
15.472
15.4135
15.3554
15.2977
15.2403
15.1835
15.1271
15.0712
15.0157
14.9609
14.9065
14.8528
15.8287
15.7675
15.7068
15.6465
15.5867
15.5272
15.4681
15.4094
15.3511
15.2932
15.2357
15.1786
15.122
15.0658
15.0102
14.9552
14.9006
14.8467
15.8268
15.7656
15.7048
15.6444
15.5844
15.5248
15.4656
15.4068
15.3483
15.2903
15.2326
15.1754
15.1187
15.0624
15.0067
14.9515
14.8968
14.8427
15.8261
15.7648
15.7039
15.6435
15.5835
15.5238
15.4646
15.4057
15.3472
15.289
15.2313
15.1741
15.1172
15.0609
15.0051
14.9498
14.8951
14.841
16.4023
16.3352
16.2689
16.2034
16.1386
16.0744
16.0109
15.9481
15.8858
15.824
15.7627
15.7019
15.6415
15.5815
15.5219
15.4627
15.4038
15.3453
15.2872
15.2295
15.1722
15.1153
15.0589
15.003
16.4028
16.3358
16.2695
16.204
16.1391
16.075
16.0115
15.9487
15.8864
15.8247
15.7635
15.7027
15.6424
15.5825
15.5229
15.4638
15.405
15.3465
15.2884
15.2308
15.1735
15.1167
15.0604
15.0045
16.4043
16.3373
16.271
16.2054
16.1406
16.0765
16.0131
15.9503
15.8881
15.8264
15.7653
15.7046
15.6444
15.5846
15.5251
15.4661
15.4074
15.3491
15.2911
15.2336
15.1764
15.1197
15.0635
15.0078
16.4066
16.3395
16.2732
16.2076
16.1428
16.0788
16.0154
15.9527
15.8906
15.829
15.768
15.7075
15.6474
15.5878
15.5285
15.4696
15.4111
15.353
15.2952
15.2379
15.1809
15.1244
15.0684
15.0129
16.4099
16.3428
16.2764
16.2109
16.1461
16.0821
16.0188
15.9562
15.8942
15.8329
15.772
15.7117
15.6518
15.5924
15.5334
15.4748
15.4165
15.3586
15.3011
15.244
15.1874
15.1312
15.0754
15.0202
16.4149
16.3477
16.2813
16.2158
16.1511
16.0871
16.024
15.9615
15.8997
15.8385
15.7779
15.7178
15.6583
15.5991
15.5404
15.4821
15.4242
15.3667
15.3095
15.2528
15.1965
15.1406
15.0852
15.0303
16.4223
16.3551
16.2887
16.2232
16.1585
16.0947
16.0317
15.9694
15.9078
15.8469
15.7866
15.7269
15.6677
15.6089
15.5507
15.4928
15.4353
15.3782
15.3215
15.2652
15.2093
15.1539
15.099
15.0445
16.4334
16.3661
16.2997
16.2342
16.1697
16.106
16.0431
15.9811
15.9198
15.8593
15.7994
15.7401
15.6813
15.6231
15.5653
15.508
15.4511
15.3945
15.3384
15.2827
15.2274
15.1725
15.1181
15.0642
16.4495
16.3822
16.3158
16.2504
16.186
16.1225
16.06
15.9982
15.9373
15.8772
15.8178
15.7591
15.7009
15.6433
15.5862
15.5295
15.4733
15.4175
15.362
15.307
15.2524
15.1982
15.1445
15.0912
16.4728
16.4055
16.3393
16.2741
16.2099
16.1466
16.0844
16.0231
15.9627
15.9031
15.8444
15.7863
15.7289
15.6721
15.6158
15.5601
15.5047
15.4497
15.3952
15.341
15.2872
15.2338
15.1809
15.1284
16.5068
16.4396
16.3735
16.3086
16.2447
16.1818
16.1201
16.0593
15.9995
15.9407
15.8828
15.8256
15.7692
15.7134
15.6582
15.6035
15.5492
15.4954
15.4418
15.3887
15.3359
15.2835
15.2315
15.1799
16.5564
16.4895
16.4237
16.3591
16.2957
16.2334
16.1723
16.1123
16.0534
15.9955
15.9387
15.8827
15.8276
15.7732
15.7194
15.6661
15.6132
15.5606
15.5084
15.4565
15.4049
15.3537
15.3027
15.252
16.6295
16.563
16.4977
16.4337
16.3709
16.3094
16.2492
16.1903
16.1326
16.0761
16.0208
15.9666
15.9132
15.8607
15.8088
15.7574
15.7064
15.6556
15.605
15.5546
15.5044
15.4545
15.4047
15.355
16.7378
16.672
16.6075
16.5444
16.4827
16.4224
16.3636
16.3062
16.2504
16.196
16.1431
16.0914
16.0408
15.9911
15.9421
15.8935
15.8451
15.7967
15.7482
15.6998
15.6514
15.603
15.5545
15.5058
16.9005
16.8358
16.7726
16.7109
16.6509
16.5925
16.536
16.4814
16.4287
16.3778
16.3289
16.2816
16.2357
16.1908
16.1466
16.1026
16.0584
16.0139
15.9686
15.9229
15.877
15.8305
15.7834
15.7356
17.1502
17.0872
17.0261
16.967
16.9099
16.8551
16.8028
16.7531
16.7061
16.662
16.6206
16.5817
16.5449
16.5093
16.4743
16.439
16.4028
16.3651
16.3254
16.2842
16.242
16.1983
16.153
16.1059
17.5465
17.4867
17.4295
17.3751
17.3237
17.2759
17.2318
17.192
17.1569
17.1267
17.1014
17.0806
17.0633
17.0479
17.0328
17.0163
16.9969
16.9736
16.9452
16.9125
16.8769
16.838
16.7952
16.7481
18.2108
18.1569
18.1071
18.062
18.022
17.988
17.961
17.9421
17.9324
17.9327
17.9436
17.9644
17.9928
18.0253
18.0576
18.0858
18.1066
18.1173
18.1151
18.1003
18.0786
18.0491
18.0107
17.963
19.4016
19.3565
19.3192
19.2906
19.2722
19.2661
19.2746
19.3011
19.3489
19.4215
19.5205
19.645
19.7899
19.9462
20.1027
20.2494
20.3779
20.4809
20.5505
20.5827
20.5978
20.5925
20.5652
20.5153
20.4434
21.6293
21.6005
21.5877
21.5934
21.6215
21.6776
21.7689
21.9043
22.0955
22.3543
22.6896
23.1018
23.576
24.0816
24.5835
25.0538
25.4736
25.8259
26.0899
26.2483
26.3623
26.4203
26.4177
26.3529
26.2288
26.227
26.225
26.2536
26.3301
26.4636
26.6692
26.9677
27.3863
27.9599
28.7266
29.7162
30.9191
32.2681
33.6494
34.9581
36.138
37.1672
38.0267
38.6834
39.0924
39.3873
39.5476
39.5488
39.3897
39.0809
37.1739
37.3194
37.5046
37.7252
38.0459
38.5575
39.3046
40.3488
41.7657
43.6271
45.9631
48.6754
51.5226
54.193
56.494
58.4117
60.0071
61.2993
62.2512
62.8131
63.0761
63.0973
62.8335
62.2776
61.471
68.0589
68.0415
68.1664
68.4369
68.8158
69.2565
69.8405
70.8773
72.4629
74.6751
77.5771
80.897
84.0657
86.8127
88.9621
90.6592
92.1023
93.295
94.1189
94.4857
94.3995
94.116
93.5437
92.5867
91.2814
125.034
122.674
120.482
118.466
116.654
115.087
113.806
112.691
112.122
112.401
113.968
113.372
114.558
118.828
124.33
129.526
134.302
138.607
141.935
143.765
144.542
147.415
152.696
151.615
150.315
148.955
172.722
165.059
158.217
152.141
146.819
142.286
138.651
135.908
134.958
133.307
134.853
150.734
193.881
217.526
257.138
273.458
280.006
280.251
275.52
281.155
277.087
283.411
309.571
300.082
290.726
178.621
170.369
163.007
156.463
150.742
145.934
142.348
139.119
139.774
156.97
216.863
722.854
2363.85
633
695.041
590.693
445.94
339.989
308.317
145.165
138.76
133.024
127.817
123.123
119.058
115.094
115.96
124.13
152.228
804.521
681.898
212.954
206.504
193.733
201.989
153.329
147.682
142.628
138.184
134.445
131.664
130.835
143.483
181.981
1098.8
240.869
230.886
221.758
201.806
269.341
179.793
266.575
274.459
245.268
510.52
440.514
347.875
322.927
241.171
211.358
211.284
210.837
116.22
119.653
121.817
123.192
45.0317
47.4532
50.2293
53.095
55.7121
57.8742
59.5711
60.8747
61.8251
62.4087
62.6245
62.6538
62.4829
62.0628
61.3965
60.5141
59.458
29.3568
30.4149
31.6835
33.0842
34.487
35.7736
36.8803
37.7883
38.486
38.9568
39.2425
39.4201
39.4698
39.3793
39.147
38.7828
38.3014
37.735
22.5896
22.9538
23.3957
23.8964
24.4198
24.9245
25.3788
25.7622
26.0571
26.2496
26.3659
26.4359
26.4518
26.4107
26.3122
26.1608
25.9626
25.7244
19.5073
19.6163
19.7509
19.9053
20.0683
20.2271
20.3701
20.4884
20.5741
20.6209
20.6405
20.6414
20.6219
20.5809
20.5184
20.4353
20.3335
20.2153
17.9649
17.9792
18.0033
18.0349
18.0696
18.1027
18.1298
18.1473
18.1524
18.1428
18.124
18.098
18.064
18.0211
17.9691
17.9082
17.839
17.7627
17.1398
17.1157
17.0962
17.08
17.0655
17.0508
17.034
17.0136
16.9884
16.9575
16.9235
16.8865
16.8461
16.8016
16.7529
16.7001
16.6435
16.5836
16.6675
16.6267
16.5885
16.5522
16.5172
16.4825
16.4472
16.4108
16.3726
16.3321
16.2907
16.2481
16.204
16.1582
16.1105
16.0609
16.0096
15.9567
16.3808
16.3322
16.2852
16.2397
16.1951
16.1512
16.1073
16.0633
16.0186
15.9732
15.9277
15.8817
15.8352
15.788
15.7401
15.6913
15.6418
15.5916
16.1983
16.1456
16.0941
16.0438
15.9943
15.9455
15.897
15.8488
15.8005
15.7521
15.7038
15.6556
15.6073
15.5588
15.5101
15.4612
15.4121
15.3627
16.0785
16.0233
15.9692
15.916
15.8637
15.8119
15.7606
15.7097
15.6591
15.6085
15.5583
15.5083
15.4585
15.4088
15.3592
15.3097
15.2602
15.2108
15.9981
15.9413
15.8855
15.8305
15.7761
15.7224
15.6692
15.6164
15.564
15.5118
15.4601
15.4086
15.3575
15.3066
15.2561
15.2057
15.1557
15.1058
15.9434
15.8856
15.8285
15.7721
15.7164
15.6613
15.6066
15.5524
15.4986
15.4451
15.3921
15.3394
15.2872
15.2352
15.1837
15.1325
15.0817
15.0313
15.9059
15.8472
15.7892
15.7318
15.6751
15.6188
15.5631
15.5078
15.4528
15.3983
15.3442
15.2905
15.2373
15.1844
15.132
15.08
15.0285
14.9773
15.88
15.8206
15.7619
15.7038
15.6462
15.5891
15.5324
15.4762
15.4204
15.365
15.31
15.2555
15.2014
15.1477
15.0946
15.0418
14.9896
14.9378
15.862
15.8021
15.7428
15.6841
15.6258
15.568
15.5107
15.4538
15.3973
15.3412
15.2855
15.2302
15.1754
15.1211
15.0673
15.0139
14.9611
14.9087
15.8495
15.7892
15.7295
15.6703
15.6115
15.5532
15.4953
15.4379
15.3808
15.3241
15.2678
15.212
15.1567
15.1018
15.0474
14.9935
14.9402
14.8873
15.841
15.7804
15.7203
15.6607
15.6016
15.5429
15.4845
15.4266
15.3691
15.3119
15.2552
15.199
15.1432
15.0878
15.033
14.9787
14.9249
14.8717
15.8353
15.7744
15.7141
15.6542
15.5947
15.5357
15.477
15.4187
15.3609
15.3034
15.2463
15.1897
15.1335
15.0778
15.0226
14.968
14.9139
14.8603
15.8313
15.7703
15.7097
15.6496
15.5899
15.5306
15.4717
15.4132
15.355
15.2973
15.24
15.1831
15.1266
15.0707
15.0152
14.9603
14.9059
14.8521
15.8287
15.7675
15.7068
15.6465
15.5867
15.5272
15.4681
15.4094
15.351
15.2931
15.2355
15.1784
15.1218
15.0656
15.01
14.9549
14.9003
14.8463
15.8269
15.7657
15.7049
15.6445
15.5845
15.5249
15.4657
15.4069
15.3484
15.2903
15.2327
15.1754
15.1187
15.0624
15.0066
14.9513
14.8966
14.8425
15.8262
15.7649
15.7041
15.6436
15.5836
15.524
15.4647
15.4058
15.3473
15.2891
15.2314
15.1741
15.1173
15.0609
15.0051
14.9497
14.895
14.8408
16.4023
16.3354
16.2691
16.2036
16.1388
16.0747
16.0112
15.9484
15.8861
15.8244
15.7631
15.7023
15.6419
15.5819
15.5223
15.4631
15.4042
15.3457
15.2875
15.2298
15.1724
15.1155
15.0591
15.0031
16.4028
16.3358
16.2696
16.2041
16.1393
16.0752
16.0118
15.9489
15.8867
15.825
15.7638
15.703
15.6427
15.5828
15.5232
15.464
15.4052
15.3467
15.2886
15.2309
15.1736
15.1168
15.0604
15.0045
16.4041
16.337
16.2708
16.2053
16.1405
16.0764
16.013
15.9502
15.888
15.8264
15.7653
15.7046
15.6444
15.5845
15.5251
15.466
15.4073
15.3489
15.291
15.2334
15.1762
15.1195
15.0632
15.0074
16.4056
16.3385
16.2723
16.2068
16.142
16.078
16.0146
15.9519
15.8898
15.8283
15.7672
15.7067
15.6466
15.587
15.5277
15.4688
15.4102
15.3521
15.2943
15.2369
15.1799
15.1234
15.0673
15.0117
16.4077
16.3406
16.2743
16.2088
16.1441
16.0801
16.0168
15.9542
15.8922
15.8308
15.77
15.7097
15.6498
15.5903
15.5313
15.4726
15.4143
15.3564
15.2989
15.2417
15.185
15.1287
15.0729
15.0176
16.4111
16.3439
16.2776
16.2121
16.1474
16.0835
16.0203
15.9578
15.896
15.8348
15.7742
15.7141
15.6545
15.5954
15.5366
15.4783
15.4203
15.3627
15.3055
15.2487
15.1923
15.1364
15.081
15.026
16.4171
16.3499
16.2835
16.2181
16.1534
16.0896
16.0266
15.9643
15.9027
15.8417
15.7814
15.7217
15.6624
15.6036
15.5453
15.4873
15.4298
15.3726
15.3159
15.2595
15.2035
15.148
15.093
15.0385
16.4271
16.3598
16.2935
16.228
16.1635
16.0998
16.037
15.9749
15.9136
15.8531
15.7931
15.7338
15.675
15.6167
15.5589
15.5014
15.4444
15.3878
15.3316
15.2758
15.2204
15.1654
15.1109
15.0569
16.4424
16.3752
16.3089
16.2435
16.1791
16.1157
16.0531
15.9914
15.9305
15.8703
15.8109
15.7521
15.6939
15.6362
15.5791
15.5223
15.466
15.4101
15.3546
15.2995
15.2448
15.1905
15.1367
15.0833
16.4651
16.3979
16.3317
16.2665
16.2024
16.1392
16.077
16.0157
15.9553
15.8958
15.837
15.7789
15.7214
15.6646
15.6083
15.5524
15.497
15.442
15.3873
15.3331
15.2793
15.2259
15.1729
15.1203
16.4983
16.4312
16.3653
16.3004
16.2366
16.1738
16.1121
16.0514
15.9917
15.9329
15.8749
15.8178
15.7613
15.7055
15.6503
15.5956
15.5413
15.4874
15.4338
15.3807
15.3279
15.2756
15.2236
15.172
16.547
16.4803
16.4147
16.3503
16.287
16.2248
16.1638
16.1039
16.0451
15.9874
15.9305
15.8746
15.8195
15.7651
15.7113
15.658
15.6052
15.5527
15.5005
15.4487
15.3973
15.3462
15.2955
15.245
16.6192
16.553
16.4881
16.4243
16.3619
16.3006
16.2406
16.1819
16.1244
16.0681
16.0129
15.9587
15.9054
15.8529
15.8011
15.7497
15.6988
15.6481
15.5977
15.5476
15.4979
15.4484
15.399
15.3499
16.7271
16.6619
16.598
16.5354
16.4741
16.4143
16.3559
16.2989
16.2433
16.1892
16.1364
16.0848
16.0343
15.9847
15.9357
15.8871
15.8388
15.7907
15.7426
15.6947
15.6471
15.5995
15.552
15.5043
16.8907
16.827
16.7647
16.704
16.6448
16.5873
16.5314
16.4773
16.425
16.3744
16.3256
16.2783
16.2323
16.1872
16.1428
16.0986
16.0544
16.0099
15.9649
15.9202
15.8755
15.8305
15.7851
15.7391
17.1439
17.0828
17.0234
16.9658
16.9102
16.8565
16.8051
16.7561
16.7095
16.6653
16.6236
16.5841
16.5462
16.5093
16.4729
16.4361
16.3986
16.3599
16.32
16.28
16.2395
16.1981
16.1555
16.1114
17.5485
17.4916
17.437
17.385
17.3357
17.2894
17.2463
17.2069
17.1712
17.1396
17.1118
17.0874
17.0654
17.0445
17.0231
17.0001
16.9745
16.9456
16.914
16.8814
16.8473
16.8108
16.7713
16.7285
18.2359
18.1852
18.1382
18.0952
18.0566
18.0229
17.9948
17.973
17.9582
17.9508
17.9507
17.9569
17.967
17.978
17.9864
17.9896
17.9856
17.9734
17.9553
17.9339
17.9085
17.878
17.841
17.7967
19.4675
19.4224
19.3841
19.3532
19.3307
19.3178
19.316
19.327
19.3524
19.3938
19.4512
19.5219
19.5999
19.6772
19.746
19.8009
19.8388
19.8577
19.8654
19.865
19.8555
19.8349
19.8005
19.7503
19.6842
21.8029
21.7733
21.7441
21.72
21.7137
21.7274
21.765
21.8314
21.932
22.0716
22.2523
22.4678
22.7009
22.9278
23.1291
23.2952
23.4233
23.5103
23.5819
23.6354
23.6689
23.6776
23.6543
23.594