/*--------------------------------*- C++ -*----------------------------------*\
  =========                 |
  \\      /  F ield         | OpenFOAM: The Open Source CFD Toolbox
   \\    /   O peration     | Website:  https://openfoam.org
    \\  /    A nd           | Version:  13
     \\/     M anipulation  |
\*---------------------------------------------------------------------------*/
FoamFile
{
    format      ascii;
    class       volScalarField;
    location    "900";
    object      k;
}
// * * * * * * * * * * * * * * * * * * * * * * * * * * * * * * * * * * * * * //

dimensions      [0 2 -2 0 0 0 0];

internalField   nonuniform List<scalar> 
173327
(
0.275234
0.274037
0.272854
0.271688
0.270537
0.269403
0.268284
0.267181
0.266093
0.265021
0.263963
0.262919
0.261888
0.26087
0.259863
0.258869
0.257885
0.256911
0.255946
0.25499
0.254043
0.253103
0.252171
0.251246
0.250326
0.249413
0.248505
0.247602
0.246703
0.245808
0.244917
0.24403
0.243146
0.242265
0.241387
0.240511
0.239638
0.238766
0.237896
0.237027
0.23616
0.235295
0.234431
0.233568
0.232706
0.231846
0.230987
0.23013
0.229274
0.22842
0.227568
0.226718
0.225869
0.225024
0.22418
0.22334
0.222503
0.221669
0.220839
0.220014
0.219193
0.218377
0.217566
0.21676
0.215959
0.215164
0.214375
0.213592
0.212815
0.212045
0.211281
0.210524
0.209774
0.20903
0.208293
0.207564
0.206853
0.275294
0.274099
0.272918
0.271754
0.270605
0.269472
0.268354
0.267253
0.266167
0.265096
0.264039
0.262996
0.261966
0.260949
0.259944
0.25895
0.257967
0.256994
0.25603
0.255075
0.254128
0.253189
0.252257
0.251333
0.250414
0.249501
0.248594
0.247691
0.246793
0.2459
0.24501
0.244124
0.243241
0.242361
0.241484
0.240609
0.239737
0.238866
0.237998
0.237131
0.236266
0.235402
0.23454
0.233679
0.232819
0.231961
0.231104
0.230249
0.229396
0.228544
0.227694
0.226846
0.226
0.225157
0.224316
0.223478
0.222643
0.221812
0.220984
0.220161
0.219342
0.218527
0.217718
0.216913
0.216113
0.215319
0.21453
0.213748
0.212971
0.212201
0.211437
0.210679
0.209928
0.209183
0.208444
0.207714
0.207002
0.275426
0.274234
0.273058
0.271897
0.270752
0.269623
0.26851
0.267412
0.266329
0.265261
0.264208
0.263168
0.262141
0.261126
0.260123
0.259132
0.25815
0.257179
0.256217
0.255264
0.254319
0.253382
0.252452
0.251528
0.250611
0.2497
0.248793
0.247892
0.246995
0.246103
0.245214
0.244329
0.243447
0.242568
0.241692
0.240819
0.239947
0.239078
0.23821
0.237344
0.23648
0.235617
0.234756
0.233896
0.233037
0.232179
0.231323
0.230468
0.229615
0.228764
0.227915
0.227067
0.226222
0.225379
0.224538
0.223701
0.222866
0.222035
0.221208
0.220384
0.219565
0.218751
0.217941
0.217135
0.216335
0.21554
0.214751
0.213968
0.21319
0.212419
0.211654
0.210895
0.210143
0.209396
0.208657
0.207924
0.20721
0.275633
0.274448
0.273278
0.272124
0.270985
0.269861
0.268754
0.267661
0.266584
0.265521
0.264472
0.263437
0.262414
0.261403
0.260404
0.259416
0.258438
0.25747
0.256511
0.25556
0.254617
0.253682
0.252754
0.251832
0.250917
0.250007
0.249102
0.248202
0.247306
0.246415
0.245527
0.244643
0.243762
0.242884
0.242009
0.241136
0.240265
0.239396
0.238529
0.237663
0.236799
0.235936
0.235075
0.234215
0.233356
0.232499
0.231642
0.230788
0.229934
0.229083
0.228233
0.227385
0.226539
0.225695
0.224855
0.224017
0.223182
0.22235
0.221522
0.220698
0.219878
0.219062
0.218251
0.217445
0.216644
0.215848
0.215058
0.214273
0.213495
0.212723
0.211956
0.211196
0.210443
0.209696
0.208955
0.208221
0.207505
0.275931
0.274755
0.273594
0.272448
0.271317
0.270202
0.269102
0.268017
0.266946
0.26589
0.264848
0.263818
0.262801
0.261796
0.260801
0.259818
0.258844
0.25788
0.256925
0.255977
0.255038
0.254105
0.25318
0.252261
0.251347
0.250439
0.249536
0.248638
0.247743
0.246853
0.245967
0.245083
0.244203
0.243326
0.242451
0.241578
0.240707
0.239838
0.238971
0.238105
0.237241
0.236378
0.235516
0.234655
0.233795
0.232937
0.23208
0.231224
0.23037
0.229517
0.228666
0.227816
0.226969
0.226125
0.225282
0.224443
0.223607
0.222774
0.221944
0.221119
0.220297
0.21948
0.218668
0.21786
0.217058
0.216261
0.215469
0.214683
0.213903
0.21313
0.212362
0.211601
0.210846
0.210098
0.209356
0.208621
0.207904
0.276341
0.275177
0.274026
0.272891
0.271771
0.270665
0.269575
0.268499
0.267438
0.26639
0.265355
0.264333
0.263323
0.262324
0.261336
0.260358
0.259389
0.25843
0.257478
0.256535
0.255599
0.25467
0.253747
0.25283
0.251919
0.251013
0.250112
0.249215
0.248322
0.247433
0.246547
0.245665
0.244785
0.243908
0.243033
0.24216
0.241289
0.240419
0.239551
0.238685
0.23782
0.236955
0.236092
0.23523
0.234369
0.233509
0.232651
0.231793
0.230937
0.230082
0.229229
0.228378
0.227529
0.226682
0.225838
0.224996
0.224158
0.223323
0.222491
0.221664
0.22084
0.220021
0.219207
0.218397
0.217593
0.216794
0.216001
0.215213
0.214432
0.213656
0.212887
0.212125
0.211368
0.210618
0.209875
0.209139
0.208421
0.276897
0.275746
0.274609
0.273487
0.272379
0.271286
0.270207
0.269142
0.268091
0.267053
0.266027
0.265013
0.264011
0.263019
0.262038
0.261066
0.260103
0.259148
0.258201
0.257262
0.25633
0.255404
0.254484
0.25357
0.252661
0.251756
0.250857
0.249961
0.249069
0.248181
0.247295
0.246413
0.245533
0.244655
0.24378
0.242906
0.242034
0.241164
0.240294
0.239426
0.238559
0.237693
0.236828
0.235964
0.235101
0.234238
0.233377
0.232517
0.231658
0.2308
0.229945
0.229091
0.228239
0.227389
0.226542
0.225697
0.224856
0.224018
0.223184
0.222353
0.221527
0.220705
0.219888
0.219076
0.218269
0.217468
0.216672
0.215883
0.215099
0.214321
0.21355
0.212785
0.212027
0.211275
0.21053
0.209792
0.209073
0.277647
0.276513
0.275392
0.274284
0.273191
0.272111
0.271045
0.269992
0.268952
0.267925
0.266909
0.265904
0.26491
0.263925
0.26295
0.261984
0.261026
0.260077
0.259134
0.258198
0.257269
0.256346
0.255428
0.254516
0.253608
0.252705
0.251805
0.25091
0.250018
0.24913
0.248244
0.247361
0.24648
0.245601
0.244724
0.243848
0.242974
0.242101
0.241229
0.240359
0.239489
0.23862
0.237751
0.236884
0.236017
0.235151
0.234286
0.233422
0.232559
0.231698
0.230838
0.22998
0.229124
0.228271
0.22742
0.226571
0.225726
0.224884
0.224046
0.223212
0.222382
0.221557
0.220736
0.219921
0.21911
0.218306
0.217507
0.216714
0.215927
0.215147
0.214373
0.213606
0.212845
0.21209
0.211343
0.210602
0.209881
0.278662
0.277546
0.276443
0.275353
0.274275
0.27321
0.272157
0.271117
0.270088
0.269071
0.268064
0.267067
0.26608
0.265102
0.264133
0.263172
0.262218
0.261272
0.260332
0.259398
0.25847
0.257548
0.256631
0.255719
0.254811
0.253907
0.253007
0.25211
0.251216
0.250326
0.249438
0.248552
0.247668
0.246786
0.245906
0.245027
0.244149
0.243272
0.242396
0.241521
0.240646
0.239773
0.238899
0.238027
0.237155
0.236284
0.235414
0.234544
0.233676
0.232809
0.231944
0.231081
0.230219
0.22936
0.228504
0.22765
0.2268
0.225953
0.225109
0.22427
0.223436
0.222605
0.22178
0.22096
0.220145
0.219337
0.218534
0.217737
0.216946
0.216162
0.215384
0.214613
0.213849
0.213091
0.21234
0.211596
0.210873
0.280046
0.27895
0.277865
0.276792
0.275729
0.274678
0.273638
0.272609
0.27159
0.270581
0.269581
0.26859
0.267608
0.266634
0.265668
0.264708
0.263756
0.262809
0.261869
0.260935
0.260005
0.259081
0.258162
0.257246
0.256335
0.255427
0.254523
0.253622
0.252724
0.251829
0.250936
0.250044
0.249155
0.248267
0.247381
0.246495
0.245611
0.244727
0.243845
0.242963
0.242081
0.2412
0.240319
0.239439
0.23856
0.237681
0.236803
0.235926
0.235051
0.234176
0.233304
0.232433
0.231564
0.230697
0.229834
0.228973
0.228116
0.227262
0.226412
0.225566
0.224725
0.223888
0.223057
0.222231
0.221411
0.220596
0.219788
0.218985
0.21819
0.2174
0.216618
0.215842
0.215073
0.214311
0.213556
0.212808
0.21208
0.281943
0.280867
0.279799
0.278741
0.277691
0.276651
0.275619
0.274597
0.273583
0.272577
0.27158
0.27059
0.269607
0.268631
0.267662
0.266699
0.265741
0.26479
0.263844
0.262903
0.261967
0.261035
0.260108
0.259184
0.258265
0.257349
0.256436
0.255526
0.254618
0.253713
0.25281
0.251909
0.25101
0.250112
0.249215
0.24832
0.247425
0.246531
0.245637
0.244745
0.243852
0.24296
0.242069
0.241178
0.240288
0.239398
0.23851
0.237622
0.236736
0.235851
0.234968
0.234087
0.233208
0.232332
0.231458
0.230588
0.229721
0.228858
0.228
0.227145
0.226295
0.225451
0.224611
0.223778
0.22295
0.222128
0.221312
0.220503
0.219701
0.218905
0.218116
0.217334
0.216559
0.215791
0.21503
0.214276
0.213544
0.284562
0.283501
0.282445
0.281394
0.28035
0.279311
0.27828
0.277254
0.276236
0.275223
0.274218
0.273218
0.272224
0.271237
0.270255
0.269278
0.268307
0.267341
0.26638
0.265423
0.264471
0.263523
0.26258
0.26164
0.260704
0.259772
0.258842
0.257916
0.256992
0.25607
0.255151
0.254233
0.253318
0.252403
0.25149
0.250578
0.249667
0.248757
0.247847
0.246938
0.24603
0.245122
0.244215
0.243309
0.242403
0.241499
0.240595
0.239693
0.238792
0.237893
0.236996
0.236101
0.235209
0.234319
0.233433
0.23255
0.231671
0.230796
0.229926
0.22906
0.228199
0.227344
0.226494
0.22565
0.224812
0.223981
0.223156
0.222338
0.221527
0.220722
0.219925
0.219135
0.218352
0.217577
0.216808
0.216047
0.215307
0.288179
0.287123
0.286067
0.285011
0.283956
0.282904
0.281855
0.280809
0.279768
0.278731
0.277699
0.276672
0.27565
0.274633
0.273621
0.272615
0.271613
0.270616
0.269625
0.268638
0.267657
0.266679
0.265707
0.264738
0.263773
0.262813
0.261855
0.260901
0.25995
0.259002
0.258057
0.257113
0.256172
0.255233
0.254295
0.253358
0.252423
0.251489
0.250556
0.249624
0.248693
0.247763
0.246834
0.245906
0.244979
0.244054
0.24313
0.242207
0.241287
0.240369
0.239453
0.23854
0.237629
0.236722
0.235819
0.23492
0.234024
0.233134
0.232248
0.231368
0.230493
0.229623
0.22876
0.227903
0.227053
0.226209
0.225372
0.224542
0.22372
0.222904
0.222096
0.221296
0.220503
0.219717
0.218938
0.218168
0.217418
0.293161
0.292093
0.291016
0.28993
0.28884
0.287746
0.286651
0.285556
0.284463
0.283373
0.282285
0.281202
0.280124
0.27905
0.277982
0.27692
0.275863
0.274812
0.273767
0.272728
0.271695
0.270668
0.269646
0.268629
0.267618
0.266612
0.26561
0.264613
0.263619
0.26263
0.261644
0.260661
0.259682
0.258705
0.25773
0.256758
0.255788
0.25482
0.253854
0.252889
0.251926
0.250965
0.250006
0.249048
0.248092
0.247138
0.246187
0.245237
0.244291
0.243347
0.242406
0.241469
0.240535
0.239605
0.23868
0.237759
0.236843
0.235932
0.235026
0.234127
0.233233
0.232346
0.231465
0.230592
0.229725
0.228865
0.228013
0.227168
0.226331
0.225501
0.224679
0.223865
0.223058
0.222259
0.221467
0.220684
0.219922
0.300038
0.298928
0.297792
0.296637
0.295466
0.294284
0.293096
0.291904
0.29071
0.289518
0.288329
0.287144
0.285965
0.284792
0.283626
0.282468
0.281317
0.280175
0.279041
0.277916
0.276799
0.275691
0.27459
0.273498
0.272413
0.271336
0.270265
0.269202
0.268144
0.267093
0.266047
0.265006
0.26397
0.262938
0.26191
0.260887
0.259867
0.258851
0.257838
0.256828
0.255821
0.254817
0.253816
0.252818
0.251823
0.250831
0.249843
0.248858
0.247876
0.246899
0.245926
0.244957
0.243992
0.243033
0.242078
0.24113
0.240186
0.239249
0.238319
0.237394
0.236477
0.235567
0.234664
0.233768
0.23288
0.231999
0.231127
0.230262
0.229406
0.228557
0.227717
0.226884
0.22606
0.225243
0.224434
0.223633
0.222855
0.309619
0.308426
0.307182
0.305895
0.304578
0.303237
0.301875
0.300505
0.299132
0.297759
0.296391
0.295029
0.293676
0.292334
0.291002
0.289683
0.288377
0.287084
0.285805
0.284539
0.283287
0.282048
0.280822
0.279609
0.278408
0.277219
0.276041
0.274875
0.273718
0.272572
0.271435
0.270306
0.269186
0.268074
0.266969
0.265871
0.26478
0.263694
0.262615
0.261541
0.260473
0.25941
0.258353
0.2573
0.256253
0.25521
0.254173
0.25314
0.252114
0.251092
0.250076
0.249066
0.248062
0.247064
0.246073
0.245088
0.24411
0.24314
0.242176
0.24122
0.240272
0.239331
0.238399
0.237475
0.236559
0.235651
0.234752
0.233862
0.23298
0.232106
0.231241
0.230384
0.229535
0.228695
0.227863
0.227039
0.226238
0.323432
0.322046
0.320565
0.319008
0.317396
0.315746
0.314073
0.312387
0.310698
0.309013
0.307337
0.305675
0.304027
0.302394
0.30078
0.29919
0.297623
0.296079
0.29456
0.293064
0.291592
0.290143
0.288716
0.287311
0.285926
0.284562
0.283217
0.281891
0.280582
0.27929
0.278015
0.276754
0.275509
0.274277
0.273057
0.271851
0.270656
0.269472
0.268299
0.267135
0.265982
0.264837
0.263701
0.262574
0.261456
0.260345
0.259242
0.258148
0.257061
0.255982
0.254911
0.253848
0.252793
0.251746
0.250707
0.249677
0.248654
0.247641
0.246635
0.245639
0.244651
0.243672
0.242702
0.241741
0.240789
0.239846
0.238912
0.237988
0.237072
0.236165
0.235267
0.234377
0.233497
0.232625
0.23176
0.230905
0.230073
0.343635
0.341814
0.339836
0.337744
0.335571
0.33335
0.331103
0.32885
0.326606
0.32438
0.32218
0.320012
0.31788
0.315786
0.31373
0.311715
0.30974
0.307806
0.305913
0.304059
0.302244
0.300468
0.298729
0.297024
0.29535
0.293708
0.292101
0.290526
0.288983
0.287469
0.285984
0.284525
0.283093
0.281684
0.280299
0.278935
0.277592
0.276269
0.274964
0.273676
0.272406
0.271151
0.269911
0.268685
0.267473
0.266275
0.265088
0.263915
0.262753
0.261602
0.260463
0.259335
0.258217
0.25711
0.256014
0.254928
0.253852
0.252787
0.251731
0.250686
0.249651
0.248625
0.24761
0.246605
0.245609
0.244623
0.243646
0.24268
0.241722
0.240774
0.239835
0.238905
0.237984
0.237072
0.236167
0.235272
0.2344
0.368371
0.365559
0.362605
0.359565
0.356483
0.353394
0.350323
0.347288
0.344289
0.341352
0.338482
0.335676
0.332934
0.330257
0.327644
0.325095
0.32261
0.320188
0.317828
0.315528
0.313289
0.311108
0.308984
0.306915
0.3049
0.302936
0.301023
0.299159
0.297341
0.295569
0.293839
0.292151
0.290502
0.28889
0.287315
0.285771
0.284258
0.282773
0.281318
0.279891
0.278491
0.277116
0.275765
0.274437
0.27313
0.271843
0.270575
0.269325
0.268093
0.266877
0.265677
0.264491
0.263321
0.262164
0.261021
0.259891
0.258774
0.257668
0.256575
0.255493
0.254423
0.253364
0.252315
0.251277
0.250249
0.249232
0.248224
0.247226
0.246237
0.245257
0.244286
0.243323
0.242369
0.241422
0.240483
0.239567
0.394444
0.390947
0.387352
0.383712
0.380056
0.376419
0.372824
0.369282
0.365799
0.362379
0.359023
0.355729
0.352498
0.34933
0.346224
0.343181
0.340203
0.337289
0.33444
0.331657
0.328941
0.326292
0.323709
0.321194
0.318746
0.316365
0.31405
0.3118
0.309614
0.30749
0.305427
0.303424
0.301478
0.299589
0.297754
0.29597
0.294237
0.29255
0.290908
0.289309
0.28775
0.286229
0.284745
0.283295
0.281877
0.280489
0.279131
0.2778
0.276494
0.275214
0.273956
0.27272
0.271505
0.270309
0.269132
0.267971
0.266827
0.265698
0.264584
0.263484
0.262397
0.261323
0.260262
0.259212
0.258173
0.257145
0.256126
0.255117
0.254116
0.253122
0.252136
0.251157
0.250183
0.249214
0.24825
0.247301
0.395886
0.392798
0.389815
0.386978
0.384303
0.38178
0.37939
0.377104
0.374892
0.372724
0.370572
0.368414
0.366234
0.364023
0.361775
0.35949
0.357168
0.354814
0.352432
0.350027
0.347605
0.345173
0.342737
0.340306
0.337886
0.335484
0.333107
0.330759
0.328448
0.326176
0.323947
0.321767
0.319636
0.317557
0.315532
0.313562
0.311648
0.309787
0.307979
0.306218
0.304502
0.302832
0.301211
0.299637
0.298109
0.296624
0.295182
0.293781
0.292421
0.291099
0.289814
0.288564
0.287348
0.286164
0.285011
0.283885
0.282786
0.281712
0.28066
0.279629
0.278617
0.277622
0.276642
0.275676
0.27472
0.273774
0.272836
0.271903
0.270974
0.270047
0.269121
0.268194
0.267263
0.266327
0.265384
0.264434
0.394142
0.392016
0.389859
0.388449
0.387717
0.387591
0.387992
0.388833
0.390019
0.391284
0.392491
0.3936
0.394578
0.395397
0.396034
0.396473
0.396701
0.396713
0.396507
0.396083
0.395446
0.394604
0.393565
0.392344
0.390955
0.389415
0.387739
0.385946
0.384053
0.382078
0.380037
0.377946
0.375819
0.373669
0.371509
0.369348
0.36719
0.365035
0.362881
0.360705
0.358519
0.356347
0.354208
0.352118
0.350087
0.348124
0.346235
0.344425
0.342695
0.341047
0.33948
0.337993
0.336584
0.335249
0.333986
0.332791
0.331658
0.330582
0.329559
0.328583
0.327648
0.326746
0.325865
0.324993
0.324127
0.323262
0.322396
0.321524
0.320643
0.319749
0.318837
0.317903
0.316943
0.315955
0.314932
0.313858
0.55299
0.572826
0.588716
0.599515
0.610163
0.621434
0.632973
0.64415
0.654833
0.664929
0.674298
0.682422
0.689341
0.694941
0.699121
0.701861
0.703186
0.703155
0.701858
0.699406
0.695919
0.691523
0.686342
0.680502
0.67414
0.667365
0.660268
0.652928
0.64541
0.637776
0.630076
0.622358
0.614662
0.60703
0.599502
0.592109
0.584881
0.577845
0.571023
0.564441
0.558111
0.552044
0.546243
0.540715
0.535461
0.530482
0.525775
0.521338
0.517164
0.513248
0.50958
0.506151
0.502949
0.499963
0.497178
0.49458
0.492153
0.489883
0.487753
0.485749
0.48385
0.482031
0.480229
0.478433
0.476642
0.474854
0.473062
0.471259
0.469436
0.467581
0.465685
0.463738
0.46173
0.459652
0.457496
0.455203
1.33993
1.46371
1.57739
1.67676
1.75789
1.82184
1.86967
1.90349
1.92607
1.93932
1.94492
1.94409
1.93775
1.92669
1.9113
1.89227
1.87023
1.84576
1.81938
1.79152
1.76254
1.73272
1.70227
1.67099
1.63865
1.60527
1.57103
1.53616
1.50093
1.46567
1.43076
1.39642
1.36284
1.33015
1.29848
1.26795
1.23863
1.21055
1.18375
1.15823
1.13398
1.11098
1.0892
1.06862
1.04919
1.03088
1.01364
0.997436
0.98221
0.96792
0.954513
0.941939
0.930144
0.919075
0.908677
0.898899
0.889685
0.880985
0.872746
0.864918
0.857452
0.850313
0.843452
0.836816
0.830359
0.824036
0.817806
0.811633
0.805483
0.799324
0.79313
0.786879
0.780554
0.77415
0.767611
3.19603
2.38464
1.9264
1.75604
1.6553
1.62369
1.62687
1.61231
1.61308
1.62047
1.63327
1.64953
1.66356
1.67547
1.6904
1.71066
1.73745
1.7713
1.8124
1.8609
1.91703
1.98113
2.05383
2.11402
2.14855
2.16555
2.17067
2.16777
2.15921
2.14599
2.12795
2.10624
2.08229
2.05662
2.02945
2.00089
1.9711
1.94034
1.9089
1.8772
1.84556
1.81424
1.78345
1.75339
1.72419
1.69596
1.66876
1.64261
1.61756
1.59357
1.57063
1.54871
1.52776
1.50773
1.48858
1.47025
1.45268
1.43582
1.4196
1.40397
1.38885
1.3742
1.35994
1.34602
1.33238
1.31897
1.30573
1.29263
1.27962
1.26666
1.25372
1.24079
1.22786
1.21496
1.20202
1.53277
1.41991
1.38554
1.37691
1.37494
1.36437
1.35733
1.34596
1.32348
1.31061
1.29965
1.29157
1.28557
1.28138
1.27905
1.27863
1.28013
1.28326
1.28741
1.29206
1.29737
1.3041
1.31295
1.32335
1.33426
1.34613
1.36134
1.38623
1.42153
1.46786
1.52501
1.58784
1.65081
1.71542
1.78265
1.841
1.88484
1.91734
1.94072
1.95617
1.96402
1.96616
1.96425
1.95947
1.95269
1.94453
1.93541
1.92547
1.91466
1.90303
1.89065
1.87764
1.8641
1.85014
1.83585
1.8213
1.80655
1.79165
1.77664
1.76154
1.74635
1.7311
1.71577
1.70037
1.68489
1.66932
1.65367
1.63792
1.62208
1.60615
1.59012
1.57401
1.55784
1.5417
1.52569
1.13585
1.16845
1.1987
1.22247
1.23322
1.22528
1.21355
1.20298
1.19456
1.18713
1.18046
1.1747
1.17023
1.16754
1.16761
1.16956
1.17279
1.17641
1.17828
1.17653
1.17252
1.16972
1.16955
1.17191
1.17633
1.18213
1.1891
1.19751
1.20734
1.21859
1.23127
1.24484
1.25866
1.27268
1.28685
1.30053
1.31314
1.32473
1.33576
1.34713
1.36051
1.37669
1.39975
1.42891
1.46338
1.50228
1.54434
1.58634
1.61962
1.64554
1.66515
1.67971
1.6902
1.69733
1.70167
1.70367
1.70368
1.702
1.69877
1.69419
1.68845
1.68171
1.67412
1.66577
1.65674
1.64711
1.63693
1.62625
1.61513
1.60359
1.59163
1.57931
1.56672
1.554
1.54137
1.18184
1.24093
1.27108
1.29026
1.30118
1.30002
1.29435
1.28796
1.28191
1.27595
1.26979
1.2635
1.25725
1.25121
1.2455
1.2402
1.23522
1.2293
1.22278
1.21624
1.21
1.20442
1.19986
1.19646
1.19416
1.19285
1.1925
1.1933
1.19536
1.19853
1.20252
1.20695
1.21128
1.21453
1.21472
1.21209
1.20824
1.20481
1.20376
1.20442
1.20588
1.20801
1.211
1.21491
1.21975
1.22546
1.23191
1.23881
1.24562
1.25234
1.259
1.26517
1.27067
1.27539
1.2793
1.28244
1.28486
1.2866
1.28748
1.28753
1.28688
1.28652
1.28664
1.28703
1.2876
1.28822
1.28882
1.28933
1.28969
1.28986
1.28978
1.28943
1.28876
1.28707
1.28494
1.22995
1.27243
1.32326
1.37329
1.40002
1.40294
1.39695
1.39052
1.38581
1.38129
1.37579
1.36959
1.36313
1.35673
1.35062
1.34491
1.33929
1.3328
1.32634
1.32035
1.31501
1.31038
1.30646
1.30326
1.30064
1.29843
1.2965
1.29477
1.29312
1.2915
1.28983
1.28802
1.28586
1.28301
1.27914
1.27439
1.26923
1.26417
1.25946
1.25517
1.25117
1.24739
1.24377
1.24029
1.23692
1.23365
1.23047
1.22736
1.22415
1.22011
1.21365
1.20575
1.19711
1.18829
1.17967
1.17161
1.16506
1.15962
1.15499
1.15093
1.14726
1.14368
1.14011
1.13661
1.13317
1.12979
1.12646
1.12317
1.1199
1.11667
1.11347
1.11029
1.10713
1.10403
1.10142
1.26017
1.23084
1.53569
1.62291
1.61794
1.61602
1.61531
1.61548
1.62006
1.62784
1.62213
1.60723
1.58989
1.57295
1.55767
1.54429
1.53269
1.52256
1.51359
1.50571
1.49883
1.49283
1.48759
1.48292
1.47866
1.47466
1.47083
1.4671
1.4634
1.45932
1.45486
1.4502
1.4454
1.44047
1.43538
1.4301
1.42469
1.41916
1.41346
1.40758
1.40155
1.39536
1.38907
1.38266
1.37614
1.36951
1.36282
1.35608
1.3493
1.34248
1.33556
1.32843
1.32107
1.31348
1.30568
1.29769
1.28954
1.28128
1.27291
1.26444
1.25589
1.24721
1.23835
1.22938
1.22034
1.2113
1.20229
1.19336
1.18453
1.17581
1.16723
1.1588
1.15051
1.14239
1.1345
1.12647
1.55874
1.6688
1.77162
1.85648
1.92346
1.97344
2.00867
2.03069
2.04204
2.04525
2.04194
2.03364
2.02092
2.0053
1.98851
1.97073
1.95264
1.93482
1.91651
1.89772
1.87874
1.85977
1.84092
1.8223
1.80394
1.78585
1.76807
1.75061
1.73355
1.71689
1.70066
1.68488
1.66955
1.6547
1.64037
1.62658
1.61333
1.60056
1.58805
1.57592
1.56423
1.55299
1.54219
1.53182
1.5218
1.5121
1.50267
1.49346
1.4844
1.47544
1.46654
1.45768
1.44882
1.43992
1.43097
1.42196
1.41288
1.40369
1.39441
1.38503
1.37554
1.36593
1.35622
1.34639
1.33646
1.32645
1.31637
1.30625
1.2961
1.28595
1.27583
1.26576
1.25578
1.24593
1.23628
1.22655
0.863716
0.912753
0.9625
1.01267
1.06357
1.11468
1.16537
1.21484
1.26244
1.30743
1.34922
1.38735
1.42156
1.45153
1.47703
1.49837
1.51597
1.53026
1.54228
1.55251
1.56113
1.56838
1.57448
1.57964
1.58402
1.58778
1.59102
1.59379
1.59538
1.59593
1.59552
1.59424
1.59216
1.58934
1.58584
1.58172
1.57704
1.57185
1.5662
1.56014
1.55372
1.547
1.54003
1.53286
1.52553
1.51808
1.51055
1.50297
1.49529
1.48757
1.47984
1.47211
1.46441
1.45673
1.44906
1.44139
1.43371
1.42599
1.41821
1.41035
1.4024
1.39436
1.38619
1.37791
1.3695
1.36098
1.35234
1.34359
1.33475
1.32581
1.31681
1.30772
1.29864
1.28963
1.28078
1.27211
0.558291
0.569291
0.580842
0.59335
0.606672
0.621099
0.636785
0.653807
0.672109
0.691663
0.71241
0.733819
0.755545
0.77733
0.798893
0.819989
0.840406
0.859974
0.878563
0.896145
0.912709
0.928273
0.942881
0.956595
0.969468
0.981599
0.993049
1.00392
1.01486
1.02585
1.03688
1.04793
1.05899
1.07004
1.08109
1.09212
1.10317
1.11389
1.1241
1.13377
1.14288
1.15143
1.1594
1.16681
1.17363
1.17987
1.18554
1.19065
1.19522
1.19927
1.20282
1.20591
1.20854
1.21076
1.21257
1.21401
1.21508
1.21582
1.21623
1.21633
1.21613
1.21563
1.21484
1.21379
1.2125
1.21096
1.20921
1.20726
1.20513
1.20284
1.20041
1.19788
1.19528
1.19265
1.19003
1.18746
0.454394
0.456595
0.45835
0.460427
0.462953
0.466037
0.469663
0.473901
0.478797
0.484359
0.490559
0.497325
0.504633
0.512399
0.520552
0.529014
0.537705
0.54654
0.555432
0.564319
0.573137
0.581827
0.590342
0.598649
0.606719
0.614535
0.622091
0.629418
0.636553
0.643529
0.650382
0.657146
0.663849
0.670501
0.677056
0.683372
0.689738
0.696332
0.703169
0.71026
0.717612
0.725226
0.733088
0.741065
0.749076
0.757129
0.765229
0.773376
0.781564
0.78978
0.798008
0.806235
0.814446
0.822635
0.830796
0.838904
0.846935
0.854865
0.862673
0.870337
0.87784
0.885163
0.892293
0.899216
0.905924
0.912412
0.918677
0.924722
0.93055
0.936171
0.941596
0.946844
0.951935
0.956893
0.961569
0.409032
0.409263
0.409307
0.409264
0.409214
0.409218
0.40932
0.409557
0.409959
0.410548
0.41134
0.412346
0.413572
0.41502
0.416686
0.418566
0.42065
0.422925
0.425375
0.427983
0.430729
0.433592
0.436551
0.439584
0.442671
0.445792
0.44893
0.452069
0.455187
0.458272
0.461314
0.464312
0.467263
0.470162
0.472997
0.475753
0.478445
0.481098
0.483737
0.486389
0.489079
0.491835
0.494692
0.497793
0.501229
0.505002
0.509112
0.513553
0.518278
0.523254
0.528494
0.533999
0.539756
0.545719
0.551822
0.558072
0.564473
0.571025
0.577727
0.584571
0.59155
0.598654
0.605872
0.61319
0.620594
0.62807
0.635604
0.643183
0.650794
0.658428
0.666077
0.673734
0.681393
0.689045
0.696514
0.390452
0.390171
0.389724
0.389157
0.388513
0.387827
0.387126
0.386433
0.385765
0.385134
0.38455
0.384021
0.383553
0.383149
0.382813
0.382547
0.382352
0.382229
0.382179
0.382198
0.382286
0.38244
0.382657
0.382934
0.383266
0.383649
0.384078
0.384548
0.385053
0.385589
0.38615
0.386733
0.387333
0.387946
0.388569
0.389201
0.389841
0.39049
0.391152
0.391831
0.392534
0.393261
0.394015
0.394813
0.395671
0.396604
0.397624
0.398753
0.400047
0.401556
0.403284
0.405229
0.407379
0.409718
0.412248
0.414977
0.41791
0.42105
0.424399
0.427957
0.431725
0.435701
0.439881
0.444263
0.448842
0.453612
0.458568
0.463704
0.469013
0.474486
0.480117
0.485898
0.491816
0.497845
0.503822
0.382424
0.382108
0.381631
0.381026
0.380325
0.379553
0.378731
0.377878
0.377007
0.376126
0.375244
0.374366
0.373495
0.372634
0.371784
0.370946
0.370121
0.369311
0.368515
0.367733
0.366965
0.36621
0.36547
0.364742
0.364028
0.363327
0.362637
0.361959
0.361291
0.360632
0.359983
0.359341
0.358708
0.358083
0.357465
0.356857
0.356259
0.355672
0.355098
0.354541
0.354003
0.353487
0.353
0.352543
0.35212
0.351736
0.351396
0.351108
0.350878
0.350717
0.350633
0.350642
0.350776
0.351055
0.351483
0.352061
0.352786
0.353665
0.354704
0.355906
0.357275
0.358811
0.360511
0.362372
0.364382
0.366532
0.368823
0.371253
0.373821
0.376526
0.379366
0.382337
0.385434
0.388645
0.391879
0.378102
0.377946
0.377627
0.377171
0.376607
0.375957
0.37524
0.374473
0.373667
0.372833
0.371976
0.371102
0.370215
0.369315
0.368405
0.367485
0.366556
0.365616
0.364667
0.363708
0.362738
0.361757
0.360765
0.359761
0.358744
0.357713
0.356667
0.355605
0.354528
0.353433
0.352322
0.351194
0.35005
0.34889
0.347716
0.346528
0.345329
0.344121
0.342906
0.341687
0.340467
0.339249
0.338036
0.336833
0.335645
0.334475
0.333327
0.332207
0.33112
0.330071
0.329065
0.328111
0.327209
0.326367
0.325591
0.324891
0.324282
0.323774
0.32337
0.323072
0.322881
0.322803
0.32284
0.322992
0.323261
0.323646
0.324147
0.324763
0.325494
0.326338
0.327294
0.328358
0.329526
0.330788
0.332101
0.375229
0.375221
0.375049
0.374737
0.37431
0.373788
0.37319
0.372531
0.371823
0.371076
0.370296
0.369489
0.368659
0.367808
0.366938
0.36605
0.365145
0.364222
0.363281
0.362321
0.361343
0.360345
0.359325
0.358283
0.357218
0.356128
0.355011
0.353866
0.352692
0.351488
0.350252
0.348983
0.347681
0.346345
0.344974
0.34357
0.342134
0.340667
0.339172
0.337651
0.336107
0.334544
0.332966
0.331377
0.329782
0.328185
0.326591
0.325005
0.323432
0.321877
0.320346
0.318843
0.317372
0.31594
0.31455
0.313208
0.31192
0.310686
0.309512
0.308406
0.307376
0.306423
0.305551
0.304761
0.304057
0.303438
0.302907
0.302462
0.302105
0.301835
0.301651
0.301551
0.30153
0.301582
0.301692
0.373534
0.373546
0.373399
0.373115
0.372716
0.372222
0.371651
0.371016
0.370329
0.3696
0.368836
0.368043
0.367224
0.366382
0.36552
0.364638
0.363738
0.36282
0.361883
0.360927
0.359951
0.358954
0.357935
0.356891
0.355822
0.354725
0.353599
0.352442
0.351252
0.350027
0.348765
0.347466
0.346128
0.34475
0.343331
0.341872
0.340373
0.338833
0.337255
0.33564
0.333992
0.332314
0.33061
0.328883
0.327138
0.32538
0.323614
0.321845
0.320078
0.318319
0.316573
0.314844
0.313139
0.311462
0.309818
0.308213
0.306649
0.305131
0.303664
0.30225
0.300892
0.299594
0.298359
0.29719
0.296087
0.29505
0.294082
0.293184
0.292357
0.291602
0.290918
0.290303
0.289754
0.289269
0.288832
0.372906
0.372872
0.372682
0.372358
0.37192
0.371389
0.37078
0.370108
0.369384
0.368617
0.367816
0.366984
0.366127
0.365247
0.364347
0.363427
0.36249
0.361534
0.360561
0.359569
0.358557
0.357526
0.356473
0.355397
0.354296
0.35317
0.352015
0.35083
0.349614
0.348365
0.347081
0.345762
0.344407
0.343014
0.341583
0.340114
0.338608
0.337064
0.335487
0.333877
0.332237
0.330571
0.328882
0.327175
0.325454
0.323723
0.321988
0.320253
0.318524
0.316807
0.315106
0.313428
0.311778
0.31016
0.308581
0.307044
0.305556
0.304119
0.302736
0.301412
0.30015
0.298954
0.297828
0.296772
0.295788
0.294877
0.294036
0.293269
0.292574
0.291953
0.291404
0.290926
0.290514
0.290164
0.289857
0.37313
0.372981
0.372682
0.372254
0.371719
0.371094
0.370396
0.369638
0.368831
0.367985
0.367106
0.3662
0.36527
0.364319
0.36335
0.362363
0.36136
0.360341
0.359306
0.358255
0.357187
0.356102
0.354998
0.353875
0.352731
0.351566
0.350379
0.349167
0.347931
0.346669
0.345381
0.344065
0.342721
0.341349
0.339951
0.338527
0.337078
0.335608
0.334117
0.332611
0.33109
0.329561
0.328025
0.32649
0.324958
0.323435
0.321926
0.320436
0.318971
0.317538
0.316141
0.314787
0.313483
0.312232
0.311037
0.309904
0.308836
0.307842
0.306926
0.306094
0.305348
0.304692
0.304128
0.303658
0.303282
0.303003
0.302818
0.302728
0.302732
0.302825
0.303007
0.303271
0.303612
0.304019
0.304464
0.374277
0.373899
0.373386
0.37276
0.372041
0.371245
0.37039
0.369488
0.368549
0.367581
0.36659
0.365582
0.364559
0.363524
0.362478
0.361424
0.36036
0.359289
0.35821
0.357122
0.356026
0.354921
0.353807
0.352683
0.351548
0.350403
0.349246
0.348077
0.346897
0.345706
0.344503
0.34329
0.342068
0.340838
0.339602
0.338362
0.337121
0.335881
0.334647
0.333422
0.332211
0.331018
0.329847
0.328704
0.327594
0.326525
0.325502
0.324528
0.323614
0.322765
0.321986
0.321281
0.320658
0.320125
0.319691
0.319361
0.31914
0.319034
0.319044
0.319176
0.319429
0.319806
0.320308
0.320934
0.321684
0.322555
0.323545
0.324651
0.325868
0.327191
0.328617
0.330137
0.331745
0.333427
0.335123
0.376461
0.375888
0.375198
0.374411
0.373548
0.372627
0.371664
0.370672
0.369659
0.368634
0.367602
0.366568
0.365534
0.364504
0.363478
0.362458
0.361445
0.360438
0.359436
0.358441
0.357452
0.356469
0.355491
0.35452
0.353555
0.352595
0.351642
0.350695
0.349755
0.348824
0.347901
0.346992
0.346095
0.345213
0.34435
0.343508
0.342692
0.341905
0.341153
0.340439
0.33977
0.339151
0.338589
0.33809
0.337662
0.33732
0.337085
0.336968
0.33697
0.337098
0.337361
0.337765
0.338319
0.339026
0.339893
0.340923
0.342119
0.343483
0.345016
0.346718
0.348587
0.350622
0.352816
0.355166
0.357664
0.360302
0.363071
0.365951
0.368927
0.371994
0.375146
0.378377
0.38168
0.385042
0.388365
0.381833
0.381243
0.380542
0.379759
0.378917
0.378039
0.377142
0.376239
0.37534
0.374454
0.373586
0.37274
0.371919
0.371125
0.37036
0.369623
0.368915
0.368234
0.367582
0.366957
0.366362
0.365794
0.365251
0.364733
0.364239
0.363769
0.363322
0.3629
0.362504
0.362136
0.3618
0.361497