/*--------------------------------*- C++ -*----------------------------------*\
  =========                 |
  \\      /  F ield         | OpenFOAM: The Open Source CFD Toolbox
   \\    /   O peration     | Website:  https://openfoam.org
    \\  /    A nd           | Version:  13
     \\/     M anipulation  |
\*---------------------------------------------------------------------------*/
FoamFile
{
    format      ascii;
    class       volScalarField;
    location    "900";
    object      nut;
}
// * * * * * * * * * * * * * * * * * * * * * * * * * * * * * * * * * * * * * //

dimensions      [0 2 -1 0 0 0 0];

internalField   nonuniform List<scalar> 
173327
(
0.0184131
0.0184004
0.0183879
0.0183756
0.0183636
0.0183519
0.0183405
0.0183293
0.0183185
0.0183079
0.0182975
0.0182874
0.0182776
0.0182679
0.0182585
0.0182493
0.0182402
0.0182313
0.0182226
0.0182139
0.0182054
0.018197
0.0181886
0.0181804
0.0181721
0.018164
0.0181558
0.0181476
0.0181395
0.0181313
0.0181231
0.0181149
0.0181066
0.0180983
0.01809
0.0180815
0.018073
0.0180644
0.0180557
0.0180469
0.018038
0.018029
0.0180199
0.0180107
0.0180014
0.017992
0.0179825
0.0179729
0.0179633
0.0179535
0.0179436
0.0179337
0.0179237
0.0179136
0.0179035
0.0178933
0.0178831
0.0178729
0.0178627
0.0178525
0.0178423
0.0178321
0.017822
0.0178119
0.0178018
0.0177918
0.0177819
0.0177721
0.0177623
0.0177526
0.0177431
0.0177336
0.0177242
0.0177149
0.0177057
0.0176966
0.0176882
0.0184151
0.0184025
0.01839
0.0183778
0.0183659
0.0183543
0.0183429
0.0183318
0.018321
0.0183104
0.0183001
0.0182901
0.0182803
0.0182707
0.0182613
0.0182521
0.0182431
0.0182343
0.0182255
0.0182169
0.0182085
0.0182001
0.0181918
0.0181835
0.0181753
0.0181672
0.018159
0.0181509
0.0181428
0.0181347
0.0181265
0.0181183
0.0181101
0.0181018
0.0180935
0.0180851
0.0180766
0.018068
0.0180594
0.0180506
0.0180418
0.0180329
0.0180238
0.0180147
0.0180054
0.0179961
0.0179867
0.0179771
0.0179675
0.0179578
0.017948
0.0179382
0.0179283
0.0179183
0.0179083
0.0178982
0.0178881
0.0178779
0.0178678
0.0178577
0.0178476
0.0178375
0.0178275
0.0178174
0.0178075
0.0177975
0.0177877
0.0177779
0.0177682
0.0177586
0.017749
0.0177396
0.0177302
0.0177209
0.0177117
0.0177027
0.0176943
0.0184194
0.0184069
0.0183946
0.0183826
0.0183708
0.0183593
0.0183481
0.0183371
0.0183264
0.018316
0.0183058
0.0182959
0.0182862
0.0182767
0.0182674
0.0182583
0.0182494
0.0182407
0.018232
0.0182235
0.0182151
0.0182068
0.0181986
0.0181904
0.0181823
0.0181742
0.0181662
0.0181581
0.0181501
0.018142
0.0181339
0.0181258
0.0181177
0.0181094
0.0181012
0.0180928
0.0180844
0.0180759
0.0180673
0.0180586
0.0180499
0.018041
0.018032
0.0180229
0.0180138
0.0180045
0.0179951
0.0179856
0.0179761
0.0179664
0.0179567
0.0179469
0.017937
0.0179271
0.0179171
0.0179071
0.017897
0.0178869
0.0178769
0.0178668
0.0178567
0.0178467
0.0178367
0.0178267
0.0178167
0.0178068
0.017797
0.0177872
0.0177775
0.0177679
0.0177584
0.017749
0.0177396
0.0177303
0.0177211
0.0177121
0.0177036
0.0184263
0.018414
0.018402
0.0183901
0.0183786
0.0183673
0.0183562
0.0183455
0.018335
0.0183247
0.0183148
0.018305
0.0182955
0.0182862
0.0182771
0.0182681
0.0182593
0.0182507
0.0182422
0.0182339
0.0182256
0.0182174
0.0182093
0.0182012
0.0181932
0.0181852
0.0181773
0.0181693
0.0181614
0.0181534
0.0181454
0.0181374
0.0181293
0.0181212
0.018113
0.0181047
0.0180964
0.018088
0.0180794
0.0180708
0.0180621
0.0180533
0.0180444
0.0180354
0.0180263
0.018017
0.0180077
0.0179983
0.0179887
0.0179791
0.0179695
0.0179597
0.0179499
0.01794
0.01793
0.0179201
0.01791
0.0179
0.01789
0.0178799
0.0178699
0.0178599
0.0178499
0.0178399
0.01783
0.0178201
0.0178103
0.0178006
0.0177909
0.0177813
0.0177718
0.0177624
0.017753
0.0177438
0.0177346
0.0177255
0.0177171
0.0184362
0.0184242
0.0184124
0.0184009
0.0183896
0.0183786
0.0183679
0.0183574
0.0183472
0.0183372
0.0183275
0.018318
0.0183087
0.0182996
0.0182907
0.0182819
0.0182734
0.0182649
0.0182566
0.0182484
0.0182403
0.0182323
0.0182243
0.0182164
0.0182086
0.0182007
0.0181929
0.0181851
0.0181772
0.0181694
0.0181615
0.0181536
0.0181456
0.0181376
0.0181295
0.0181213
0.018113
0.0181047
0.0180962
0.0180877
0.0180791
0.0180703
0.0180615
0.0180525
0.0180434
0.0180342
0.018025
0.0180156
0.0180061
0.0179965
0.0179869
0.0179772
0.0179674
0.0179575
0.0179476
0.0179377
0.0179277
0.0179177
0.0179077
0.0178977
0.0178877
0.0178777
0.0178677
0.0178578
0.0178479
0.017838
0.0178283
0.0178185
0.0178089
0.0177993
0.0177899
0.0177805
0.0177712
0.0177619
0.0177528
0.0177438
0.0177354
0.0184498
0.0184382
0.0184268
0.0184156
0.0184047
0.0183941
0.0183837
0.0183736
0.0183637
0.018354
0.0183446
0.0183354
0.0183264
0.0183176
0.018309
0.0183005
0.0182922
0.018284
0.0182759
0.0182679
0.01826
0.0182522
0.0182444
0.0182367
0.018229
0.0182213
0.0182136
0.018206
0.0181983
0.0181905
0.0181828
0.018175
0.0181671
0.0181592
0.0181512
0.0181431
0.0181349
0.0181267
0.0181183
0.0181098
0.0181013
0.0180926
0.0180838
0.0180749
0.0180659
0.0180567
0.0180475
0.0180382
0.0180287
0.0180192
0.0180096
0.0179999
0.0179901
0.0179803
0.0179705
0.0179605
0.0179506
0.0179406
0.0179307
0.0179207
0.0179107
0.0179007
0.0178908
0.0178809
0.0178711
0.0178613
0.0178515
0.0178418
0.0178323
0.0178227
0.0178133
0.0178039
0.0177947
0.0177855
0.0177764
0.0177674
0.0177591
0.0184681
0.018457
0.0184461
0.0184354
0.0184249
0.0184147
0.0184048
0.0183951
0.0183856
0.0183763
0.0183673
0.0183585
0.0183498
0.0183413
0.018333
0.0183249
0.0183168
0.0183089
0.0183011
0.0182933
0.0182856
0.018278
0.0182705
0.0182629
0.0182554
0.0182479
0.0182404
0.0182329
0.0182254
0.0182178
0.0182102
0.0182025
0.0181947
0.0181869
0.018179
0.0181711
0.018163
0.0181548
0.0181465
0.0181381
0.0181296
0.018121
0.0181123
0.0181034
0.0180944
0.0180854
0.0180762
0.0180669
0.0180575
0.018048
0.0180384
0.0180287
0.018019
0.0180092
0.0179994
0.0179895
0.0179796
0.0179697
0.0179597
0.0179498
0.0179398
0.0179299
0.01792
0.0179101
0.0179003
0.0178906
0.0178809
0.0178713
0.0178617
0.0178522
0.0178429
0.0178336
0.0178244
0.0178152
0.0178062
0.0177973
0.017789
0.0184927
0.0184822
0.0184719
0.0184617
0.0184518
0.0184422
0.0184327
0.0184235
0.0184145
0.0184057
0.018397
0.0183886
0.0183804
0.0183722
0.0183643
0.0183564
0.0183487
0.018341
0.0183335
0.018326
0.0183186
0.0183112
0.0183039
0.0182965
0.0182892
0.0182819
0.0182746
0.0182672
0.0182598
0.0182524
0.0182449
0.0182373
0.0182297
0.018222
0.0182142
0.0182063
0.0181983
0.0181902
0.018182
0.0181737
0.0181652
0.0181567
0.018148
0.0181392
0.0181302
0.0181212
0.018112
0.0181028
0.0180934
0.0180839
0.0180744
0.0180647
0.018055
0.0180453
0.0180354
0.0180256
0.0180157
0.0180058
0.0179959
0.0179859
0.017976
0.0179661
0.0179563
0.0179465
0.0179367
0.017927
0.0179173
0.0179078
0.0178983
0.0178888
0.0178795
0.0178703
0.0178611
0.0178521
0.0178431
0.0178342
0.017826
0.018526
0.0185162
0.0185065
0.018497
0.0184878
0.0184787
0.0184698
0.0184611
0.0184526
0.0184442
0.0184361
0.0184281
0.0184202
0.0184125
0.0184048
0.0183973
0.0183899
0.0183825
0.0183752
0.018368
0.0183608
0.0183536
0.0183465
0.0183393
0.0183322
0.018325
0.0183179
0.0183106
0.0183034
0.0182961
0.0182887
0.0182812
0.0182737
0.0182661
0.0182583
0.0182505
0.0182426
0.0182345
0.0182264
0.0182181
0.0182097
0.0182011
0.0181924
0.0181836
0.0181747
0.0181657
0.0181565
0.0181473
0.0181379
0.0181284
0.0181189
0.0181092
0.0180995
0.0180898
0.01808
0.0180701
0.0180602
0.0180503
0.0180404
0.0180305
0.0180206
0.0180108
0.018001
0.0179912
0.0179814
0.0179718
0.0179622
0.0179526
0.0179432
0.0179338
0.0179245
0.0179153
0.0179062
0.0178972
0.0178883
0.0178795
0.0178714
0.0185714
0.0185623
0.0185534
0.0185446
0.018536
0.0185275
0.0185192
0.0185111
0.018503
0.0184952
0.0184874
0.0184798
0.0184723
0.0184649
0.0184576
0.0184503
0.0184431
0.018436
0.0184289
0.0184219
0.0184149
0.0184079
0.0184009
0.0183938
0.0183868
0.0183798
0.0183727
0.0183655
0.0183583
0.0183511
0.0183438
0.0183364
0.0183289
0.0183213
0.0183136
0.0183057
0.0182978
0.0182898
0.0182816
0.0182733
0.0182648
0.0182563
0.0182476
0.0182387
0.0182298
0.0182207
0.0182115
0.0182022
0.0181928
0.0181833
0.0181737
0.0181641
0.0181543
0.0181445
0.0181347
0.0181248
0.0181149
0.018105
0.0180951
0.0180852
0.0180753
0.0180655
0.0180556
0.0180459
0.0180362
0.0180265
0.0180169
0.0180074
0.017998
0.0179887
0.0179795
0.0179703
0.0179613
0.0179523
0.0179435
0.0179347
0.0179266
0.0186334
0.0186252
0.018617
0.018609
0.018601
0.0185931
0.0185853
0.0185776
0.01857
0.0185625
0.0185551
0.0185478
0.0185405
0.0185333
0.0185262
0.0185191
0.018512
0.018505
0.018498
0.018491
0.0184841
0.0184771
0.0184701
0.0184631
0.0184561
0.018449
0.0184419
0.0184348
0.0184275
0.0184202
0.0184129
0.0184054
0.0183978
0.0183902
0.0183824
0.0183745
0.0183665
0.0183583
0.01835
0.0183416
0.0183331
0.0183244
0.0183156
0.0183067
0.0182976
0.0182885
0.0182792
0.0182698
0.0182603
0.0182507
0.018241
0.0182313
0.0182214
0.0182116
0.0182017
0.0181917
0.0181818
0.0181718
0.0181619
0.0181519
0.018142
0.0181321
0.0181223
0.0181125
0.0181028
0.0180932
0.0180836
0.0180741
0.0180647
0.0180554
0.0180462
0.0180371
0.0180281
0.0180192
0.0180104
0.0180017
0.0179936
0.018718
0.0187105
0.0187031
0.0186956
0.0186881
0.0186806
0.0186732
0.0186657
0.0186584
0.018651
0.0186437
0.0186364
0.0186292
0.018622
0.0186148
0.0186077
0.0186005
0.0185934
0.0185863
0.0185791
0.018572
0.0185649
0.0185577
0.0185505
0.0185433
0.0185361
0.0185288
0.0185214
0.018514
0.0185065
0.0184989
0.0184912
0.0184834
0.0184755
0.0184675
0.0184594
0.0184512
0.0184428
0.0184343
0.0184257
0.0184169
0.0184081
0.018399
0.0183899
0.0183806
0.0183713
0.0183618
0.0183522
0.0183425
0.0183328
0.0183229
0.018313
0.0183031
0.0182931
0.018283
0.018273
0.0182629
0.0182529
0.0182428
0.0182328
0.0182228
0.0182129
0.018203
0.0181932
0.0181834
0.0181738
0.0181642
0.0181547
0.0181453
0.018136
0.0181268
0.0181176
0.0181086
0.0180997
0.0180909
0.0180822
0.0180742
0.0188308
0.0188241
0.0188171
0.0188099
0.0188026
0.0187952
0.0187878
0.0187802
0.0187727
0.0187651
0.0187575
0.0187499
0.0187423
0.0187347
0.0187271
0.0187195
0.0187119
0.0187044
0.0186968
0.0186892
0.0186816
0.018674
0.0186664
0.0186587
0.0186511
0.0186434
0.0186356
0.0186278
0.01862
0.018612
0.018604
0.0185959
0.0185877
0.0185794
0.018571
0.0185625
0.0185539
0.0185452
0.0185363
0.0185273
0.0185182
0.018509
0.0184996
0.0184901
0.0184806
0.0184709
0.0184611
0.0184512
0.0184413
0.0184312
0.0184212
0.018411
0.0184008
0.0183906
0.0183804
0.0183702
0.0183599
0.0183497
0.0183395
0.0183294
0.0183193
0.0183092
0.0182992
0.0182893
0.0182795
0.0182698
0.0182601
0.0182506
0.0182411
0.0182318
0.0182225
0.0182134
0.0182044
0.0181954
0.0181866
0.0181779
0.0181699
0.018974
0.0189677
0.0189608
0.0189536
0.0189461
0.0189383
0.0189303
0.0189222
0.0189139
0.0189056
0.0188972
0.0188888
0.0188803
0.0188718
0.0188634
0.0188549
0.0188464
0.018838
0.0188295
0.0188211
0.0188127
0.0188043
0.0187958
0.0187874
0.018779
0.0187706
0.0187621
0.0187536
0.018745
0.0187364
0.0187278
0.0187191
0.0187103
0.0187014
0.0186924
0.0186833
0.0186741
0.0186649
0.0186555
0.018646
0.0186364
0.0186267
0.0186169
0.018607
0.018597
0.0185869
0.0185767
0.0185665
0.0185561
0.0185458
0.0185354
0.0185249
0.0185144
0.0185039
0.0184934
0.018483
0.0184725
0.0184621
0.0184517
0.0184414
0.0184311
0.0184209
0.0184108
0.0184007
0.0183908
0.0183809
0.0183712
0.0183616
0.018352
0.0183426
0.0183333
0.0183241
0.018315
0.018306
0.0182971
0.0182883
0.0182802
0.0191368
0.0191305
0.0191234
0.0191157
0.0191074
0.0190987
0.0190897
0.0190805
0.019071
0.0190615
0.0190518
0.0190421
0.0190324
0.0190227
0.0190129
0.0190032
0.0189936
0.0189839
0.0189744
0.0189648
0.0189553
0.0189459
0.0189365
0.0189271
0.0189178
0.0189085
0.0188991
0.0188898
0.0188805
0.0188711
0.0188618
0.0188523
0.0188429
0.0188333
0.0188237
0.0188141
0.0188043
0.0187945
0.0187846
0.0187746
0.0187645
0.0187543
0.018744
0.0187337
0.0187233
0.0187128
0.0187022
0.0186916
0.0186809
0.0186702
0.0186595
0.0186488
0.018638
0.0186272
0.0186165
0.0186058
0.0185951
0.0185845
0.0185739
0.0185634
0.0185529
0.0185426
0.0185323
0.0185221
0.0185121
0.0185021
0.0184923
0.0184825
0.0184729
0.0184634
0.018454
0.0184447
0.0184355
0.0184264
0.0184174
0.0184086
0.0184004
0.0192685
0.0192624
0.0192551
0.0192468
0.0192379
0.0192284
0.0192183
0.0192079
0.0191973
0.0191867
0.019176
0.0191653
0.0191546
0.0191439
0.0191333
0.0191228
0.0191124
0.0191021
0.0190918
0.0190817
0.0190717
0.0190617
0.0190518
0.0190421
0.0190323
0.0190227
0.019013
0.0190034
0.0189939
0.0189843
0.0189748
0.0189652
0.0189556
0.018946
0.0189363
0.0189265
0.0189168
0.0189069
0.018897
0.018887
0.0188769
0.0188667
0.0188565
0.0188462
0.0188358
0.0188254
0.0188149
0.0188043
0.0187937
0.018783
0.0187724
0.0187617
0.018751
0.0187403
0.0187296
0.0187189
0.0187083
0.0186977
0.0186871
0.0186767
0.0186663
0.018656
0.0186457
0.0186356
0.0186256
0.0186156
0.0186058
0.0185961
0.0185865
0.018577
0.0185677
0.0185584
0.0185493
0.0185402
0.0185313
0.0185225
0.0185143
0.0191873
0.0191811
0.019174
0.0191662
0.019158
0.0191497
0.0191413
0.019133
0.0191248
0.0191167
0.0191089
0.0191012
0.0190936
0.019086
0.0190785
0.0190713
0.0190641
0.0190572
0.0190503
0.0190435
0.0190368
0.0190303
0.0190237
0.0190172
0.0190108
0.0190043
0.0189978
0.0189914
0.0189849
0.0189783
0.0189717
0.0189651
0.0189583
0.0189515
0.0189445
0.0189375
0.0189303
0.018923
0.0189155
0.0189079
0.0189002
0.0188923
0.0188843
0.0188761
0.0188677
0.0188593
0.0188507
0.0188419
0.0188331
0.0188241
0.018815
0.0188058
0.0187966
0.0187873
0.018778
0.0187686
0.0187591
0.0187497
0.0187403
0.0187309
0.0187215
0.0187121
0.0187028
0.0186936
0.0186844
0.0186753
0.0186663
0.0186574
0.0186485
0.0186398
0.0186311
0.0186226
0.0186142
0.0186059
0.0185976
0.0185895
0.0185821
0.0182664
0.0182682
0.0182722
0.0182781
0.0182858
0.0182953
0.0183062
0.0183183
0.0183315
0.0183454
0.0183599
0.0183747
0.0183898
0.018405
0.01842
0.0184349
0.0184495
0.0184638
0.0184777
0.0184912
0.0185042
0.0185168
0.0185288
0.0185403
0.0185512
0.0185615
0.0185713
0.0185806
0.0185894
0.0185977
0.0186055
0.0186127
0.0186194
0.0186256
0.0186312
0.0186363
0.0186408
0.0186447
0.0186481
0.018651
0.0186533
0.018655
0.0186562
0.0186569
0.0186571
0.0186568
0.018656
0.0186548
0.018653
0.0186509
0.0186484
0.0186454
0.0186421
0.0186385
0.0186346
0.0186304
0.0186259
0.0186212
0.0186163
0.0186112
0.018606
0.0186006
0.0185952
0.0185896
0.0185841
0.0185784
0.0185728
0.0185672
0.0185616
0.018556
0.0185505
0.018545
0.0185396
0.0185343
0.0185291
0.018524
0.0185196
0.0152922
0.0153483
0.0154125
0.0154834
0.0155599
0.0156406
0.0157245
0.0158106
0.0158978
0.0159855
0.0160733
0.0161603
0.0162462
0.0163307
0.0164134
0.0164943
0.0165731
0.0166497
0.0167241
0.0167963
0.0168662
0.016934
0.0169995
0.0170628
0.0171238
0.0171827
0.0172393
0.0172938
0.0173461
0.0173963
0.0174444
0.0174904
0.0175344
0.0175765
0.0176165
0.0176546
0.0176908
0.017725
0.0177575
0.0177882
0.0178172
0.0178445
0.0178702
0.0178943
0.0179169
0.017938
0.0179577
0.017976
0.017993
0.0180087
0.0180232
0.0180366
0.0180489
0.0180602
0.0180706
0.0180801
0.0180889
0.0180968
0.0181041
0.0181108
0.0181169
0.0181226
0.0181278
0.0181327
0.0181372
0.0181414
0.0181455
0.0181493
0.0181531
0.0181567
0.0181603
0.0181638
0.0181673
0.0181709
0.0181745
0.0181785
0.0103575
0.0104664
0.0105907
0.0107283
0.0108769
0.0110344
0.0111991
0.0113691
0.0115431
0.0117196
0.0118976
0.012076
0.0122541
0.0124313
0.0126069
0.0127804
0.0129516
0.0131201
0.0132856
0.0134479
0.0136068
0.0137622
0.0139139
0.0140619
0.0142061
0.0143463
0.0144826
0.014615
0.0147433
0.0148676
0.0149879
0.0151041
0.0152164
0.0153248
0.0154292
0.0155298
0.0156266
0.0157195
0.0158086
0.0158939
0.0159756
0.0160537
0.0161282
0.0161992
0.0162669
0.0163314
0.0163926
0.0164509
0.0165062
0.0165587
0.0166085
0.0166558
0.0167007
0.0167433
0.0167838
0.0168223
0.0168589
0.0168937
0.016927
0.0169588
0.0169893
0.0170186
0.0170469
0.0170742
0.0171007
0.0171265
0.0171516
0.0171763
0.0172004
0.0172243
0.0172478
0.0172711
0.0172942
0.0173171
0.01734
0.0173629
0.00623004
0.00631604
0.00641941
0.00653854
0.0066717
0.0068172
0.00697341
0.00713883
0.00731205
0.00749189
0.00767723
0.00786709
0.00806059
0.008257
0.00845567
0.00865603
0.00885757
0.00905983
0.00926235
0.00946473
0.00966659
0.00986755
0.0100673
0.0102655
0.0104619
0.0106561
0.010848
0.0110372
0.0112235
0.0114067
0.0115866
0.0117629
0.0119355
0.0121043
0.0122691
0.0124297
0.0125861
0.0127382
0.0128859
0.0130291
0.0131678
0.013302
0.0134317
0.0135568
0.0136775
0.0137937
0.0139055
0.014013
0.0141164
0.0142157
0.0143112
0.0144029
0.0144911
0.0145759
0.0146575
0.0147361
0.0148119
0.014885
0.0149557
0.0150242
0.0150907
0.0151553
0.0152182
0.0152797
0.0153398
0.0153988
0.0154568
0.015514
0.0155705
0.0156263
0.0156817
0.0157367
0.0157914
0.0158459
0.0159002
0.0159538
0.00416209
0.00420118
0.00426004
0.00433372
0.00442086
0.00452025
0.00463078
0.00475141
0.0048811
0.00495421
0.00498962
0.00504021
0.00510477
0.00518197
0.00527014
0.00536813
0.00547533
0.00559111
0.00571509
0.00584713
0.00598713
0.00613493
0.00629023
0.00645277
0.0066225
0.0067994
0.00698388
0.00717656
0.0073769
0.00758503
0.00780135
0.00802641
0.00826023
0.00850243
0.00875271
0.00901101
0.00927708
0.00955043
0.00982648
0.010105
0.0103638
0.010525
0.0106818
0.0108346
0.0109832
0.0111279
0.0112686
0.0114055
0.0115386
0.011668
0.0117938
0.0119161
0.0120351
0.0121508
0.0122635
0.0123732
0.0124802
0.0125845
0.0126865
0.0127863
0.012884
0.0129799
0.0130741
0.0131665
0.0132575
0.0133473
0.013436
0.0135238
0.013611
0.0136977
0.013784
0.0138701
0.013956
0.014042
0.0141282
0.0142135
0.00365872
0.00365216
0.00349836
0.00334476
0.00323263
0.00317141
0.00314924
0.00316981
0.00319883
0.00323355
0.00327487
0.00333998
0.00341404
0.0034961
0.0035863
0.00368044
0.00377792
0.00387824
0.00398114
0.00408649
0.00419432
0.00430465
0.00441747
0.00453215
0.00464747
0.00476404
0.00488246
0.00500334
0.00512701
0.00525358
0.0053835
0.0055175
0.00565577
0.00579807
0.00594441
0.00609512
0.00625044
0.00641041
0.00657501
0.00674427
0.00691831
0.00709732
0.00728142
0.00747065
0.00766497
0.00786429
0.00806853
0.0082775
0.00849088
0.00870833
0.00892959
0.00915442
0.00938253
0.00961353
0.00984704
0.0100826
0.0103197
0.0105578
0.0107964
0.011035
0.0112732
0.0115103
0.0117436
0.0118934
0.011999
0.012102
0.0122029
0.012302
0.0123998
0.0124964
0.0125922
0.0126874
0.0127823
0.012877
0.0129718
0.0130655
0.0031624
0.00335459
0.0036301
0.00392071
0.00421477
0.00449921
0.00477026
0.00501368
0.00523085
0.00542722
0.00560216
0.00575774
0.00589423
0.00601283
0.00612093
0.0062185
0.00630781
0.00639091
0.00646986
0.00654688
0.0066241
0.00670358
0.00678761
0.00687671
0.00696769
0.0070597
0.00715275
0.00724688
0.00734211
0.00743553
0.00752543
0.0076142
0.00770445
0.00779681
0.00789046
0.00798511
0.00808156
0.00818035
0.00828202
0.00838722
0.00849657
0.00861056
0.00872948
0.00885337
0.00898227
0.00911628
0.00925538
0.00939929
0.00954769
0.00970052
0.00985776
0.0100192
0.0101845
0.0103534
0.0105254
0.0107001
0.0108771
0.0110558
0.0112357
0.0114162
0.0115968
0.0117769
0.011956
0.0121335
0.0123088
0.0124812
0.0126501
0.0128149
0.0129751
0.0131299
0.0132783
0.013419
0.0135494
0.0136625
0.0137768
0.0089888
0.0106313
0.0117805
0.0129353
0.0128158
0.0129721
0.0131945
0.0133244
0.0134925
0.0136781
0.0138781
0.0140821
0.0140405
0.0139078
0.0135683
0.0131236
0.0126336
0.012138
0.0116618
0.0112197
0.0108195
0.0104634
0.0101495
0.0102176
0.0104761
0.0106576
0.0107888
0.0108903
0.010975
0.0110505
0.0111159
0.0111727
0.0112249
0.0112777
0.0113357
0.0114
0.0114693
0.0115428
0.0116194
0.0116935
0.0117663
0.0118394
0.0119139
0.0119903
0.0120696
0.0121527
0.0122404
0.0123321
0.0124276
0.0125275
0.0126322
0.0127414
0.012855
0.0129727
0.013094
0.0132186
0.013346
0.0134756
0.0136071
0.0137399
0.0138735
0.0140075
0.0141416
0.0142751
0.0144076
0.0145383
0.0146669
0.0147927
0.0149151
0.0150334
0.0151469
0.015254
0.0153516
0.0154296
0.0155893
0.0121049
0.0123544
0.012264
0.0123355
0.0125022
0.0126954
0.0129211
0.0131774
0.0133505
0.0135553
0.0137656
0.0139851
0.0142084
0.014433
0.0146574
0.0148803
0.0150996
0.0153117
0.0155117
0.0156964
0.0158664
0.0160261
0.0161797
0.0163259
0.0164628
0.0165968
0.0167436
0.0169327
0.0171587
0.0174024
0.0176112
0.0177403
0.0175052
0.0163918
0.0154486
0.0152617
0.0154394
0.0155591
0.0156386
0.0156905
0.0157101
0.015712
0.015711
0.015714
0.015725
0.0157472
0.0157834
0.0158328
0.0158906
0.0159513
0.0160147
0.0160805
0.0161487
0.0162196
0.0162934
0.01637
0.0164492
0.0165308
0.0166147
0.0167005
0.0167879
0.0168767
0.0169674
0.0170595
0.0171524
0.0172458
0.0173393
0.0174327
0.0175254
0.0176172
0.017707
0.0177936
0.0178736
0.0179332
0.0180843
0.0094616
0.00969138
0.0099506
0.0102508
0.0105489
0.0108118
0.0110632
0.0113117
0.0115671
0.0118275
0.0120916
0.0123606
0.0126371
0.0129249
0.0132294
0.0135445
0.0138655
0.0141851
0.0144899
0.0147693
0.0150288
0.0152881
0.0155543
0.0158273
0.0161037
0.0163786
0.0166518
0.016926
0.0172013
0.0174763
0.017747
0.018006
0.0182466
0.0184676
0.0186689
0.0188475
0.0190022
0.0191354
0.0192496
0.0193439
0.0194093
0.0194606
0.0195286
0.0196139
0.0197167
0.0198355
0.0199647
0.0200872
0.0201647
0.0202145
0.0202492
0.0202763
0.0203007
0.020325
0.0203509
0.0203793
0.0204107
0.0204452
0.0204819
0.0205206
0.0205612
0.0206037
0.0206477
0.0206662
0.0206929
0.0207273
0.0207687
0.0208166
0.0208701
0.0209284
0.0209889
0.0210289
0.0210598
0.021088
0.0211137
0.00802551
0.00845732
0.0088243
0.00919971
0.00956086
0.00987194
0.0101598
0.0104401
0.0107177
0.0109923
0.011263
0.0115307
0.0117968
0.0120623
0.0123281
0.0125949
0.0128619
0.0131208
0.0133736
0.013624
0.0138739
0.014126
0.0143828
0.0146458
0.0149145
0.0151884
0.015467
0.0157516
0.0160421
0.0163361
0.0166308
0.0169222
0.0172053
0.017472
0.017711
0.0179245
0.0181235
0.0183183
0.0185194
0.0187208
0.0189158
0.0191044
0.019289
0.0194712
0.0196519
0.0198315
0.0200096
0.0201837
0.0203493
0.0205027
0.0206398
0.0207607
0.0208666
0.0209598
0.0210423
0.0211165
0.0211846
0.0212481
0.0213069
0.0213618
0.0214144
0.0214716
0.0215346
0.0216018
0.0216722
0.021745
0.0218191
0.0218939
0.0219687
0.0220427
0.0221153
0.0221859
0.0222536
0.0223135
0.0223681
0.00720656
0.00754473
0.00799252
0.00819247
0.00873192
0.00921582
0.00950073
0.00977478
0.0100491
0.0103202
0.0105846
0.010844
0.0111005
0.0113554
0.01161
0.0118644
0.0121175
0.0123652
0.0126109
0.012856
0.0131014
0.0133472
0.0135934
0.0138399
0.0140862
0.0143312
0.0145746
0.0148158
0.0150546
0.0152908
0.0155239
0.0157531
0.0159768
0.0161915
0.0163946
0.0165874
0.0167741
0.0169597
0.0171461
0.0173332
0.0175195
0.0177043
0.0178869
0.0180671
0.0182447
0.0184198
0.0185924
0.0187621
0.0189277
0.0190835
0.0192202
0.0193444
0.0194609
0.0195732
0.0196837
0.0197947
0.0199125
0.0200342
0.0201572
0.0202801
0.0204016
0.0205199
0.020635
0.0207474
0.0208574
0.0209652
0.021071
0.0211748
0.0212768
0.0213771
0.0214758
0.021573
0.0216686
0.0217629
0.0218577
0.00730961
0.00813272
0.00875188
0.00904802
0.00912537
0.00925059
0.00940881
0.00958172
0.00976628
0.00994039
0.0101483
0.0103167
0.0104902
0.0106751
0.0108736
0.0110846
0.011306
0.0115355
0.0117704
0.0120087
0.0122488
0.0124893
0.012729
0.0129665
0.0132005
0.0134303
0.0136552
0.0138751
0.01409
0.0142984
0.0145006
0.0146975
0.0148897
0.0150772
0.0152599
0.0154379
0.0156116
0.0157814
0.0159474
0.01611
0.0162695
0.0164264
0.016581
0.0167336
0.0168841
0.0170329
0.0171812
0.017329
0.0174761
0.0176221
0.0177663
0.0179078
0.0180462
0.0181815
0.0183137
0.0184431
0.0185699
0.0186944
0.0188165
0.0189361
0.0190533
0.0191677
0.0192788
0.0193871
0.019493
0.0195967
0.0196988
0.0197995
0.019899
0.0199976
0.0200955
0.0201928
0.0202897
0.0203865
0.0204838
0.0205772
0.00329132
0.00365508
0.00420021
0.00475581
0.00529083
0.00584251
0.00639003
0.00691893
0.00742216
0.00791043
0.00838599
0.00884744
0.00925505
0.00961494
0.00995841
0.0102861
0.0106004
0.0109041
0.0111923
0.011464
0.0117204
0.0119629
0.0121926
0.0124108
0.0126186
0.0128168
0.0130066
0.0131889
0.0133649
0.0135353
0.0137008
0.013862
0.0140195
0.0141738
0.0143257
0.0144758
0.0146244
0.0147717
0.0149171
0.0150616
0.0152056
0.0153495
0.0154934
0.0156376
0.0157818
0.0159261
0.0160703
0.0162143
0.0163581
0.0165014
0.0166443
0.0167866
0.0169283
0.0170692
0.0172092
0.0173486
0.0174874
0.017625
0.0177614
0.0178962
0.0180291
0.01816
0.0182885
0.0184144
0.0185377
0.0186583
0.0187762
0.0188913
0.019004
0.0191142
0.0192221
0.0193281
0.0194325
0.0195356
0.0196381
0.0197365
0.00489776
0.00460009
0.00443769
0.0044346
0.00450357
0.00463103
0.00480148
0.00501204
0.00525304
0.00552116
0.00580949
0.00611116
0.00641973
0.0067285
0.00703155
0.00732487
0.00760668
0.00787578
0.0081406
0.00840566
0.00867286
0.00893855
0.00920219
0.00946312
0.00972078
0.00997476
0.0102252
0.0104711
0.0107106
0.0109446
0.0111736
0.0113984
0.0116194
0.0118359
0.0120483
0.0122571
0.0124628
0.0126642
0.0128609
0.0130529
0.0132402
0.013423
0.0136016
0.0137765
0.0139485
0.0141179
0.0142849
0.01445
0.0146249
0.0147951
0.0149616
0.0151258
0.0152885
0.0154507
0.0156127
0.0157745
0.0159362
0.0160993
0.0162633
0.016428
0.0165932
0.016759
0.0169261
0.0170944
0.017264
0.017435
0.0176073
0.017781
0.0179557
0.0181311
0.018307
0.0184815
0.0186541
0.018803
0.0189211
0.0190357
0.00947345
0.00924098
0.00907835
0.00872975
0.00815132
0.00774116
0.00744654
0.00723084
0.00708901
0.00697744
0.00689055
0.00694502
0.00704442
0.00716842
0.00731624
0.00748229
0.00766223
0.00785368
0.00804213
0.00822079
0.00838974
0.0085481
0.00869506
0.00883046
0.00895776
0.00907198
0.0091773
0.00927507
0.0093785
0.00948839
0.00960409
0.00972579
0.00985308
0.00998562
0.010123
0.0102654
0.0104126
0.0105633
0.010716
0.0108707
0.0110272
0.0111852
0.0113447
0.0115057
0.011667
0.0118281
0.0119888
0.0121495
0.0123104
0.0124717
0.0126335
0.012796
0.0129592
0.0131235
0.0132891
0.0134564
0.0136253
0.013796
0.0139688
0.0141438
0.0143208
0.0145049
0.0146898
0.0148755
0.0150625
0.015251
0.0154413
0.0156337
0.0158282
0.0160245
0.0162226
0.0164203
0.0166161
0.0168083
0.016993
0.0172432
0.0135488
0.0133189
0.0131122
0.012928
0.0127589
0.0126005
0.0124492
0.0123039
0.0121646
0.0120315
0.0119055
0.0117873
0.0116787
0.0115806
0.0114941
0.0114196
0.0113575
0.0113077
0.01127
0.0112441
0.0112294
0.0112253
0.0112313
0.0112466
0.0112707
0.0113031
0.0113435
0.0113916
0.0114474
0.0115108
0.0115819
0.0116607
0.0117468
0.01184
0.0119388
0.0119712
0.0119218
0.0118817
0.0118518
0.0118329
0.0118254
0.0118296
0.0118448
0.0118689
0.0119008
0.0119412
0.0119904
0.0120487
0.0121151
0.0121902
0.0122735
0.0123648
0.012464
0.012571
0.0126857
0.0128075
0.0129358
0.0130704
0.013211
0.0133575
0.0135093
0.0136656
0.0138259
0.0139896
0.0141562
0.0143252
0.014496
0.0146678
0.0148397
0.0150106
0.0151794
0.0153453
0.015507
0.0156646
0.015898
0.0168296
0.0166755
0.0165269
0.016382
0.016239
0.0160965
0.0159534
0.0158094
0.0156643
0.0155182
0.0153716
0.0152252
0.01508
0.0149369
0.0147971
0.0146617
0.0145317
0.014408
0.0142916
0.014183
0.0140829
0.0139918
0.0139098
0.0138372
0.0137742
0.0137207
0.0136767
0.0136421
0.0136167
0.0136003
0.0135929
0.013594
0.0136035
0.0136211
0.0136465
0.0136794
0.0137195
0.0137666
0.0138206
0.0138816
0.0139494
0.0140241
0.0141054
0.0141919
0.0142826
0.0143771
0.0144752
0.0145766
0.0146816
0.0147904
0.0149028
0.0150184
0.0151366
0.0152562
0.015325
0.01531
0.015303
0.0153045
0.0153145
0.0153331
0.0153599
0.0153947
0.0154371
0.0154866
0.0155424
0.0156034
0.0156688
0.0157378
0.0158094
0.0158825
0.0159563
0.0160305
0.0161069
0.0161947
0.0163244
0.0186396
0.0185605
0.0184799
0.0183975
0.0183132
0.0182268
0.0181382
0.0180474
0.0179543
0.017859
0.0177616
0.0176622
0.0175611
0.0174587
0.0173553
0.0172514
0.0171475
0.0170441
0.0169418
0.016841
0.0167425
0.0166466
0.0165541
0.0164652
0.0163807
0.0163007
0.0162258
0.0161563
0.0160923
0.0160343
0.0159822
0.0159364
0.0158968
0.0158635
0.0158366
0.0158159
0.0158015
0.0157933
0.0157913
0.0157953
0.0158053
0.0158212
0.0158428
0.0158698
0.0159021
0.0159396
0.0159821
0.0160293
0.0160802
0.0161339
0.0161902
0.0162492
0.0163111
0.016376
0.0164437
0.0165139
0.0165865
0.0166614
0.0167384
0.0168172
0.0168979
0.0169803
0.0170642
0.0171495
0.0172361
0.017324
0.0174131
0.0175032
0.0175943
0.0176864
0.0177794
0.0178732
0.0179677
0.0180627
0.018155
0.0194224
0.0193918
0.0193575
0.01932
0.0192796
0.0192368
0.0191919
0.0191449
0.0190962
0.0190457
0.0189937
0.0189401
0.0188852
0.0188289
0.0187714
0.0187127
0.0186531
0.0185926
0.0185315
0.0184698
0.0184079
0.0183458
0.0182839
0.0182224
0.0181615
0.0181015
0.0180426
0.017985
0.0179291
0.0178751
0.0178231
0.0177734
0.0177261
0.0176815
0.0176396
0.0176007
0.0175648
0.017532
0.0175025
0.0174762
0.0174531
0.0174335
0.0174173
0.0174044
0.0173949
0.0173887
0.0173859
0.0173864
0.0173903
0.0173976
0.0174081
0.0174219
0.017438
0.0174562
0.0174766
0.0174992
0.0175244
0.0175523
0.0175828
0.017616
0.0176519
0.0176903
0.0177314
0.0177749
0.0178206
0.0178685
0.0179184
0.0179703
0.0180243
0.0180802
0.0181379
0.0181975
0.018259
0.0183219
0.0183842
0.0195595
0.0195582
0.0195525
0.0195431
0.0195306
0.0195155
0.0194983
0.0194794
0.0194589
0.0194371
0.0194142
0.0193902
0.0193653
0.0193395
0.0193128
0.0192853
0.019257
0.019228
0.0191981
0.0191676
0.0191363
0.0191044
0.0190719
0.0190388
0.0190052
0.0189711
0.0189366
0.0189017
0.0188665
0.0188311
0.0187956
0.01876
0.0187245
0.0186892
0.0186541
0.0186194
0.0185851
0.0185515
0.0185187
0.0184866
0.0184555
0.0184254
0.0183965
0.0183689
0.0183426
0.0183179
0.0182947
0.0182732
0.0182534
0.0182356
0.0182197
0.018206
0.0181943
0.0181847
0.0181774
0.0181721
0.0181686
0.0181669
0.018167
0.018169
0.0181731
0.0181792
0.0181875
0.0181978
0.0182102
0.0182247
0.0182413
0.01826
0.0182807
0.0183036
0.0183285
0.0183556
0.0183848
0.018416
0.018448
0.0193618
0.019374
0.0193818
0.019386
0.0193872
0.0193858
0.0193825
0.0193775
0.0193711
0.0193637
0.0193555
0.0193465
0.0193369
0.0193267
0.019316
0.0193049
0.0192933
0.0192812
0.0192687
0.0192557
0.0192422
0.0192282
0.0192136
0.0191983
0.0191824
0.0191659
0.0191486
0.0191305
0.0191116
0.0190918
0.0190712
0.0190497
0.0190272
0.0190039
0.0189796
0.0189544
0.0189284
0.0189017
0.0188742
0.0188461
0.0188175
0.0187884
0.0187591
0.0187296
0.0187001