/*--------------------------------*- C++ -*----------------------------------*\
  =========                 |
  \\      /  F ield         | OpenFOAM: The Open Source CFD Toolbox
   \\    /   O peration     | Website:  https://openfoam.org
    \\  /    A nd           | Version:  13
     \\/     M anipulation  |
\*---------------------------------------------------------------------------*/
FoamFile
{
    format      ascii;
    class       volScalarField;
    location    "900";
    object      p;
}
// * * * * * * * * * * * * * * * * * * * * * * * * * * * * * * * * * * * * * //

dimensions      [0 2 -2 0 0 0 0];

internalField   nonuniform List<scalar> 
173327
(
-11.4063
-11.4708
-11.502
-11.5016
-11.4712
-11.4127
-11.3278
-11.2187
-11.0876
-10.9369
-10.7691
-10.5864
-10.3907
-10.1838
-9.96724
-9.74283
-9.51217
-9.27674
-9.0377
-8.79602
-8.55263
-8.30845
-8.06439
-7.82123
-7.57964
-7.34035
-7.10395
-6.87097
-6.64167
-6.41615
-6.19454
-5.97701
-5.76377
-5.55495
-5.35058
-5.15086
-4.95587
-4.76576
-4.58038
-4.39951
-4.22297
-4.05067
-3.88273
-3.71918
-3.56
-3.40498
-3.25386
-3.10641
-2.9624
-2.82184
-2.68468
-2.55099
-2.42066
-2.29367
-2.16979
-2.04897
-1.93107
-1.81607
-1.70385
-1.59421
-1.48692
-1.3818
-1.27883
-1.17806
-1.07963
-0.98355
-0.889847
-0.798391
-0.709069
-0.62169
-0.536133
-0.452264
-0.370051
-0.289443
-0.210408
-0.132748
-0.057066
-11.4471
-11.5102
-11.5397
-11.5373
-11.5048
-11.444
-11.3568
-11.2453
-11.1118
-10.9588
-10.7886
-10.6036
-10.4057
-10.1967
-9.9783
-9.75216
-9.51992
-9.28299
-9.04257
-8.79966
-8.55517
-8.31004
-8.06513
-7.8212
-7.57894
-7.339
-7.10202
-6.86848
-6.63868
-6.41277
-6.19086
-5.97313
-5.75974
-5.55079
-5.34635
-5.14653
-4.95146
-4.76121
-4.57572
-4.3948
-4.21824
-4.04599
-3.87808
-3.71454
-3.55533
-3.40029
-3.24918
-3.10176
-2.95788
-2.81742
-2.68037
-2.54673
-2.41645
-2.28946
-2.16563
-2.04483
-1.92696
-1.81197
-1.69974
-1.59011
-1.48289
-1.3779
-1.27509
-1.1745
-1.0762
-0.980251
-0.886642
-0.795301
-0.706098
-0.618884
-0.533518
-0.449886
-0.367917
-0.28758
-0.208825
-0.131596
-0.0563981
-11.5293
-11.5897
-11.6158
-11.6095
-11.5727
-11.5074
-11.4156
-11.2994
-11.1612
-11.0034
-10.8286
-10.6391
-10.4369
-10.2239
-10.0019
-9.77237
-9.53699
-9.29714
-9.05402
-8.80865
-8.56197
-8.31489
-8.06825
-7.82278
-7.57915
-7.33799
-7.09988
-6.86529
-6.63455
-6.40784
-6.18529
-5.96706
-5.75329
-5.54404
-5.33939
-5.1394
-4.94415
-4.75371
-4.56803
-4.38697
-4.21036
-4.03814
-3.87028
-3.70677
-3.54755
-3.39249
-3.2414
-3.09407
-2.95031
-2.81002
-2.67313
-2.53963
-2.40946
-2.28255
-2.1588
-2.03807
-1.92027
-1.80532
-1.69312
-1.58354
-1.47641
-1.3716
-1.26904
-1.16874
-1.07075
-0.975094
-0.88177
-0.790706
-0.701792
-0.614894
-0.529885
-0.446662
-0.365155
-0.285309
-0.207086
-0.130438
-0.0560364
-11.6537
-11.7099
-11.7309
-11.7187
-11.6754
-11.6031
-11.5041
-11.3806
-11.2351
-11.0702
-10.8883
-10.6921
-10.4835
-10.2645
-10.0369
-9.80221
-9.56208
-9.31783
-9.07066
-8.8216
-8.57161
-8.32157
-8.07229
-7.82448
-7.57878
-7.33578
-7.09601
-6.85992
-6.62783
-6.39996
-6.17645
-5.95746
-5.74309
-5.53339
-5.32839
-5.12814
-4.93266
-4.74201
-4.55613
-4.37493
-4.19828
-4.02609
-3.8583
-3.69487
-3.53572
-3.38072
-3.2297
-3.08249
-2.93892
-2.79885
-2.6622
-2.52891
-2.39894
-2.27219
-2.14859
-2.02801
-1.91035
-1.79552
-1.68344
-1.57398
-1.46704
-1.36249
-1.26029
-1.16041
-1.06287
-0.967682
-0.874808
-0.784188
-0.695727
-0.609309
-0.524827
-0.442193
-0.361336
-0.282196
-0.204718
-0.128865
-0.055371
-11.8216
-11.8721
-11.886
-11.8656
-11.8133
-11.7315
-11.6226
-11.4891
-11.3337
-11.1591
-10.9679
-10.7625
-10.5454
-10.3183
-10.0832
-9.84173
-9.59525
-9.34515
-9.09262
-8.83869
-8.5843
-8.33033
-8.07753
-7.82661
-7.57815
-7.33271
-7.09077
-6.85275
-6.61894
-6.38959
-6.16485
-5.94484
-5.72965
-5.51931
-5.31383
-5.11321
-4.91744
-4.72654
-4.54047
-4.35914
-4.18245
-4.0103
-3.84261
-3.67929
-3.52024
-3.36535
-3.21447
-3.06743
-2.92406
-2.78424
-2.64786
-2.51484
-2.38511
-2.2586
-2.13521
-2.01484
-1.89739
-1.78277
-1.6709
-1.56168
-1.45503
-1.35085
-1.24909
-1.14973
-1.05275
-0.958138
-0.865847
-0.775818
-0.687968
-0.602198
-0.518417
-0.436549
-0.356524
-0.278278
-0.201748
-0.126895
-0.0544362
-12.0352
-12.078
-12.0826
-12.0515
-11.9875
-11.8933
-11.7716
-11.6253
-11.4572
-11.2701
-11.0669
-10.8501
-10.6221
-10.3849
-10.1405
-9.89027
-9.63583
-9.37842
-9.11921
-8.85922
-8.59937
-8.34049
-8.08332
-7.82851
-7.57662
-7.32815
-7.08355
-6.84317
-6.60732
-6.37619
-6.14995
-5.9287
-5.7125
-5.50136
-5.29526
-5.09417
-4.89807
-4.70691
-4.52065
-4.33922
-4.16251
-3.99042
-3.82285
-3.65968
-3.50081
-3.34609
-3.1954
-3.04857
-2.90547
-2.76593
-2.62985
-2.49714
-2.36771
-2.24149
-2.11839
-1.99831
-1.88116
-1.76685
-1.6553
-1.54644
-1.44019
-1.33648
-1.23527
-1.13651
-1.04018
-0.946252
-0.85467
-0.765379
-0.678302
-0.593357
-0.510463
-0.429548
-0.350547
-0.273396
-0.198029
-0.124404
-0.0532032
-12.2967
-12.3297
-12.3224
-12.2777
-12.1989
-12.0892
-11.9516
-11.7893
-11.6054
-11.4031
-11.1852
-10.9544
-10.7132
-10.4638
-10.2079
-9.94729
-9.68324
-9.41707
-9.14989
-8.88268
-8.61632
-8.35162
-8.08925
-7.82983
-7.57387
-7.32184
-7.0741
-6.831
-6.59277
-6.35961
-6.13165
-5.90896
-5.69158
-5.4795
-5.27268
-5.07105
-4.87455
-4.68313
-4.49671
-4.3152
-4.13851
-3.96651
-3.79909
-3.63612
-3.47746
-3.32299
-3.17255
-3.026
-2.88319
-2.74398
-2.60824
-2.47588
-2.34681
-2.22095
-2.09821
-1.9785
-1.86173
-1.74782
-1.6367
-1.5283
-1.42255
-1.31941
-1.21883
-1.12076
-1.02518
-0.932032
-0.841283
-0.752873
-0.666731
-0.582787
-0.500967
-0.421201
-0.343427
-0.267583
-0.193602
-0.121437
-0.0517284
-12.6095
-12.6301
-12.6077
-12.5462
-12.4491
-12.3202
-12.1631
-11.9814
-11.7785
-11.5578
-11.3223
-11.0749
-10.8181
-10.5542
-10.285
-10.012
-9.73674
-9.46035
-9.18391
-8.90834
-8.63448
-8.36306
-8.09471
-7.83
-7.56938
-7.31326
-7.06197
-6.81578
-6.57489
-6.33946
-6.10957
-5.88528
-5.66659
-5.45346
-5.24583
-5.0436
-4.84669
-4.655
-4.46844
-4.2869
-4.11026
-3.93839
-3.77117
-3.60844
-3.45006
-3.29589
-3.14577
-2.99956
-2.8571
-2.71827
-2.58292
-2.45097
-2.32231
-2.19687
-2.07455
-1.95528
-1.83898
-1.72556
-1.61496
-1.50711
-1.40197
-1.29949
-1.19963
-1.10234
-1.0076
-0.915353
-0.825564
-0.738179
-0.653135
-0.57037
-0.489813
-0.411398
-0.335065
-0.260751
-0.18839
-0.117935
-0.0499786
-12.9775
-12.9826
-12.9416
-12.8591
-12.7397
-12.5876
-12.407
-12.202
-11.9765
-11.7339
-11.4778
-11.2109
-10.936
-10.6553
-10.3706
-10.0836
-9.79543
-9.50739
-9.22043
-8.93541
-8.65308
-8.3741
-8.09905
-7.82841
-7.56259
-7.30194
-7.0467
-6.79711
-6.5533
-6.31539
-6.08341
-5.8574
-5.6373
-5.42305
-5.21456
-5.01171
-4.81438
-4.62243
-4.43576
-4.25422
-4.07768
-3.906
-3.73902
-3.5766
-3.41856
-3.26476
-3.11503
-2.96922
-2.82718
-2.68878
-2.55388
-2.42239
-2.2942
-2.16923
-2.04741
-1.92865
-1.81288
-1.70003
-1.59003
-1.48284
-1.37839
-1.27666
-1.17761
-1.0812
-0.9874
-0.896169
-0.807469
-0.721254
-0.637472
-0.556062
-0.47696
-0.400104
-0.325432
-0.252878
-0.182385
-0.113898
-0.0479585
-13.4057
-13.3914
-13.3274
-13.2194
-13.0727
-12.8926
-12.684
-12.4514
-12.1992
-11.9312
-11.651
-11.3617
-11.066
-10.7661
-10.4639
-10.1609
-9.85831
-9.55722
-9.25853
-8.96299
-8.67128
-8.38396
-8.10154
-7.8244
-7.5529
-7.2873
-7.02779
-6.77452
-6.52758
-6.28701
-6.05283
-5.82499
-5.60342
-5.38801
-5.17864
-4.97517
-4.77742
-4.58526
-4.39851
-4.21703
-4.04065
-3.86922
-3.70255
-3.54049
-3.38287
-3.2295
-3.08023
-2.9349
-2.79334
-2.65543
-2.52104
-2.39007
-2.2624
-2.13798
-2.01671
-1.89853
-1.78337
-1.67115
-1.56184
-1.45537
-1.3517
-1.25081
-1.15266
-1.05722
-0.96447
-0.87437
-0.786892
-0.701995
-0.619635
-0.53976
-0.462311
-0.387227
-0.314445
-0.243899
-0.175534
-0.109286
-0.0456435
-13.9001
-13.8617
-13.7693
-13.6301
-13.4506
-13.237
-12.995
-12.73
-12.4466
-12.1491
-11.8413
-11.5264
-11.207
-10.8855
-10.5637
-10.2428
-9.9242
-9.6087
-9.2971
-8.99006
-8.68812
-8.39175
-8.10135
-7.81722
-7.53962
-7.26872
-7.00466
-6.74749
-6.49725
-6.25392
-6.01744
-5.78772
-5.56466
-5.34809
-5.13786
-4.93379
-4.73568
-4.54334
-4.35658
-4.17522
-3.99907
-3.82795
-3.66167
-3.50006
-3.34291
-3.19006
-3.04132
-2.89653
-2.75553
-2.61818
-2.48436
-2.35395
-2.22688
-2.10305
-1.9824
-1.86486
-1.75037
-1.63886
-1.53029
-1.42462
-1.32182
-1.22185
-1.12469
-1.03032
-0.938723
-0.849873
-0.763746
-0.680313
-0.599538
-0.521376
-0.445775
-0.372678
-0.302025
-0.23375
-0.167792
-0.104074
-0.043024
-14.4683
-14.3998
-14.2725
-14.0953
-13.8762
-13.6226
-13.3412
-13.0381
-12.7186
-12.3871
-12.0477
-11.7037
-11.3579
-11.0123
-10.6686
-10.3281
-9.99188
-9.66066
-9.33506
-9.01559
-8.70265
-8.3966
-8.09769
-7.80613
-7.52208
-7.24562
-6.97679
-6.71557
-6.46191
-6.21573
-5.97691
-5.74531
-5.52075
-5.30306
-5.09201
-4.88739
-4.68897
-4.49653
-4.30983
-4.12867
-3.95283
-3.78211
-3.6163
-3.45521
-3.29862
-3.14635
-2.99822
-2.85404
-2.71366
-2.57694
-2.44375
-2.31398
-2.18755
-2.06438
-1.9444
-1.82756
-1.7138
-1.60306
-1.49531
-1.39051
-1.28864
-1.18967
-1.09359
-1.00038
-0.910049
-0.822567
-0.737924
-0.656102
-0.577073
-0.500804
-0.427252
-0.356363
-0.288081
-0.222341
-0.15908
-0.0982073
-0.0400746
-15.1192
-15.0132
-14.8429
-14.6194
-14.3525
-14.0513
-13.7236
-13.3761
-13.0147
-12.6444
-12.2692
-11.8926
-11.5171
-11.1447
-10.7771
-10.4152
-10.0599
-9.71169
-9.37108
-9.03835
-8.71375
-8.39746
-8.08962
-7.7903
-7.49954
-7.21732
-6.94358
-6.67821
-6.42108
-6.17203
-5.93088
-5.69742
-5.47143
-5.25267
-5.04088
-4.83581
-4.63717
-4.44471
-4.25817
-4.0773
-3.90187
-3.73164
-3.56638
-3.40589
-3.24995
-3.09834
-2.95089
-2.8074
-2.66771
-2.53167
-2.39917
-2.2701
-2.14436
-2.0219
-1.90265
-1.78656
-1.67358
-1.56368
-1.45681
-1.35294
-1.25207
-1.15418
-1.05926
-0.967312
-0.878341
-0.792344
-0.709317
-0.629251
-0.552132
-0.47794
-0.40664
-0.338186
-0.272525
-0.209597
-0.149333
-0.0916393
-0.0367725
-15.8643
-15.7115
-15.4882
-15.2083
-14.884
-14.5261
-14.1438
-13.7446
-13.335
-12.9204
-12.5048
-12.0916
-11.6832
-11.2815
-10.8877
-10.5027
-10.1269
-9.76059
-9.40405
-9.05733
-8.72049
-8.39352
-8.0764
-7.76906
-7.47141
-7.18329
-6.90455
-6.63499
-6.37438
-6.12248
-5.87904
-5.6438
-5.41645
-5.19672
-4.98429
-4.77886
-4.58011
-4.38775
-4.20147
-4.021
-3.84607
-3.67643
-3.51183
-3.35203
-3.19681
-3.04596
-2.89926
-2.75652
-2.61759
-2.48231
-2.35055
-2.22223
-2.09725
-1.97555
-1.85708
-1.74179
-1.62965
-1.52062
-1.41468
-1.31182
-1.21202
-1.11527
-1.0216
-0.931001
-0.843494
-0.759094
-0.677808
-0.599643
-0.524597
-0.452662
-0.383819
-0.318031
-0.255251
-0.195423
-0.138478
-0.0843175
-0.0330879
-16.717
-16.5054
-16.2164
-15.8676
-15.4742
-15.0491
-14.6027
-14.1436
-13.6787
-13.2137
-12.7526
-12.2988
-11.8542
-11.4205
-10.9984
-10.5885
-10.1909
-9.80549
-9.43226
-9.07099
-8.72149
-8.38355
-8.05695
-7.74146
-7.43685
-7.14283
-6.85913
-6.58543
-6.32142
-6.06677
-5.82116
-5.58424
-5.35567
-5.13509
-4.92215
-4.7165
-4.51777
-4.32563
-4.13974
-3.95979
-3.78547
-3.61652
-3.45266
-3.29364
-3.13923
-2.98919
-2.84331
-2.7014
-2.56328
-2.4288
-2.29785
-2.17032
-2.04614
-1.92525
-1.8076
-1.69316
-1.5819
-1.4738
-1.36885
-1.26703
-1.16836
-1.07284
-0.980496
-0.891339
-0.805401
-0.72271
-0.643294
-0.567172
-0.494361
-0.424864
-0.35868
-0.295788
-0.236152
-0.179723
-0.126433
-0.0761848
-0.0289887
-17.696
-17.4102
-17.0395
-16.6066
-16.13
-15.6247
-15.1031
-14.5744
-14.0462
-13.524
-13.012
-12.513
-12.0289
-11.5605
-11.1081
-10.6717
-10.251
-9.84566
-9.45506
-9.07875
-8.71623
-8.36707
-8.03082
-7.70707
-7.39543
-7.09549
-6.80685
-6.52907
-6.26175
-6.00448
-5.75682
-5.51838
-5.28873
-5.06747
-4.85419
-4.64847
-4.44992
-4.25814
-4.07277
-3.89347
-3.7199
-3.55176
-3.38875
-3.23062
-3.0771
-2.92796
-2.78298
-2.64195
-2.5047
-2.37109
-2.24099
-2.1143
-1.99096
-1.87092
-1.75413
-1.64058
-1.53024
-1.42311
-1.31919
-1.21848
-1.121
-1.02677
-0.935819
-0.848187
-0.763915
-0.683047
-0.605625
-0.531689
-0.461271
-0.394396
-0.331079
-0.271318
-0.215094
-0.16237
-0.113085
-0.0671409
-0.0244156
-18.8216
-18.4414
-17.9692
-17.4333
-16.8563
-16.2557
-15.6453
-15.0358
-14.4348
-13.848
-13.279
-12.7303
-12.203
-11.6973
-11.2127
-10.7486
-10.3041
-9.87814
-9.4699
-9.07842
-8.7029
-8.34262
-7.99693
-7.66519
-7.3468
-7.04116
-6.74775
-6.46607
-6.19562
-5.93587
-5.68635
-5.44655
-5.216
-4.99422
-4.78074
-4.57511
-4.37687
-4.18559
-4.00086
-3.8223
-3.64955
-3.48229
-3.32021
-3.16303
-3.01046
-2.86228
-2.71824
-2.57815
-2.44182
-2.30911
-2.17989
-2.05408
-1.93162
-1.81245
-1.69656
-1.58393
-1.47455
-1.36844
-1.26559
-1.16604
-1.06981
-0.976932
-0.887456
-0.801436
-0.718928
-0.639992
-0.564689
-0.493076
-0.425207
-0.361129
-0.300881
-0.244484
-0.191942
-0.143239
-0.0983264
-0.0570859
-0.0193063
-20.1289
-19.6285
-19.0291
-18.3665
-17.6676
-16.953
-16.2381
-15.5344
-14.85
-14.19
-13.5574
-12.9536
-12.379
-11.8327
-11.3136
-10.82
-10.3504
-9.90305
-9.47656
-9.06955
-8.68081
-8.30934
-7.95425
-7.61466
-7.2897
-6.97859
-6.68066
-6.39531
-6.12195
-5.85996
-5.60878
-5.36784
-5.13658
-4.91448
-4.70101
-4.49566
-4.29796
-4.10742
-3.92358
-3.746
-3.57427
-3.40803
-3.24697
-3.09082
-2.93928
-2.79212
-2.64908
-2.50997
-2.3746
-2.24283
-2.11453
-1.98962
-1.86805
-1.74979
-1.63481
-1.52312
-1.41472
-1.30964
-1.2079
-1.10954
-1.0146
-0.923126
-0.835189
-0.750856
-0.6702
-0.5933
-0.520232
-0.451075
-0.385906
-0.324795
-0.267807
-0.214993
-0.166392
-0.122024
-0.0818773
-0.0458237
-0.0135409
-20.9862
-20.2294
-19.4122
-18.5662
-17.7152
-16.8768
-16.0635
-15.2831
-14.5402
-13.8369
-13.1734
-12.5486
-11.9602
-11.4059
-10.8827
-10.3882
-9.91984
-9.47552
-9.05338
-8.65183
-8.26948
-7.90513
-7.5577
-7.2262
-6.90972
-6.60746
-6.31865
-6.04257
-5.77852
-5.52583
-5.28388
-5.05204
-4.82973
-4.61636
-4.41137
-4.21426
-4.02451
-3.84161
-3.66505
-3.49437
-3.32919
-3.16918
-3.01407
-2.86358
-2.71743
-2.57539
-2.43726
-2.30284
-2.172
-2.04461
-1.9206
-1.79993
-1.68256
-1.5685
-1.45777
-1.35038
-1.24639
-1.14582
-1.04873
-0.95517
-0.865201
-0.778899
-0.69635
-0.617647
-0.542887
-0.472169
-0.405594
-0.343262
-0.285271
-0.231715
-0.18268
-0.138248
-0.09849
-0.0634565
-0.0330777
-0.00689153
-22.5643
-21.61
-20.603
-19.579
-18.5648
-17.5811
-16.6409
-15.7506
-14.9135
-14.1302
-13.3997
-12.719
-12.0844
-11.4918
-10.9372
-10.4165
-9.92638
-9.46395
-9.02668
-8.61246
-8.21951
-7.84627
-7.49143
-7.15379
-6.83232
-6.52602
-6.23402
-5.95548
-5.68963
-5.43571
-5.19303
-4.96089
-4.73865
-4.52566
-4.3213
-4.12497
-3.93609
-3.75411
-3.57852
-3.40886
-3.24477
-3.08589
-2.93191
-2.78253
-2.63746
-2.49647
-2.35935
-2.22592
-2.09603
-1.96956
-1.84646
-1.72668
-1.6102
-1.49706
-1.38727
-1.2809
-1.17799
-1.07863
-0.982851
-0.890727
-0.802335
-0.717755
-0.637092
-0.560458
-0.487966
-0.419735
-0.355886
-0.296543
-0.241834
-0.191887
-0.146827
-0.106783
-0.0718953
-0.0423162
-0.0181079
0.00126
-24.392
-23.1844
-21.9373
-20.6897
-19.4727
-18.3126
-17.2232
-16.2093
-15.2712
-14.4065
-13.6105
-12.8772
-12.2002
-11.573
-10.9898
-10.4453
-9.93519
-9.45584
-9.00424
-8.57788
-8.17464
-7.7927
-7.43048
-7.08661
-6.75985
-6.44912
-6.15344
-5.8719
-5.60366
-5.3479
-5.10387
-4.87086
-4.64815
-4.43504
-4.23085
-4.0349
-3.84658
-3.66527
-3.49045
-3.32162
-3.15834
-3.00025
-2.84704
-2.69842
-2.55413
-2.41391
-2.27757
-2.14491
-2.0158
-1.89011
-1.76778
-1.64878
-1.53311
-1.42079
-1.31188
-1.20645
-1.10455
-1.00627
-0.9117
-0.820922
-0.734044
-0.651184
-0.572454
-0.497964
-0.427834
-0.362196
-0.301189
-0.244953
-0.193636
-0.147401
-0.106409
-0.070841
-0.0409237
-0.0169525
0.000765024
0.0125877
-26.5628
-25.0573
-23.5202
-22.0017
-20.5463
-19.1797
-17.9079
-16.7349
-15.663
-14.6899
-13.8087
-13.0102
-12.2837
-11.6191
-11.0072
-10.4403
-9.91242
-9.41876
-8.95548
-8.51953
-8.10839
-7.71993
-7.35232
-7.00398
-6.6735
-6.3597
-6.06155
-5.7781
-5.50843
-5.25165
-5.007
-4.77375
-4.55116
-4.3385
-4.13498
-3.93988
-3.75249
-3.57215
-3.39827
-3.23034
-3.06787
-2.9105
-2.75795
-2.60996
-2.46628
-2.32668
-2.19096
-2.05893
-1.93046
-1.80541
-1.68373
-1.56538
-1.45039
-1.33882
-1.23073
-1.12621
-1.02533
-0.928185
-0.834878
-0.745524
-0.660262
-0.579246
-0.502591
-0.4304
-0.362806
-0.299959
-0.242012
-0.18912
-0.141437
-0.0991202
-0.0623433
-0.0313159
-0.00633006
0.0121835
0.0236858
0.028458
-29.0117
-27.095
-25.1734
-23.2831
-21.5487
-19.9977
-18.5884
-17.3026
-16.1336
-15.0753
-14.1214
-13.2615
-12.4838
-11.7763
-11.1282
-10.5309
-9.97746
-9.4624
-8.98121
-8.53024
-8.10647
-7.70729
-7.33044
-6.97398
-6.63625
-6.3159
-6.01185
-5.72304
-5.44843
-5.18713
-4.93844
-4.70175
-4.47638
-4.26151
-4.05627
-3.85983
-3.67137
-3.49015
-3.3155
-3.14689
-2.98384
-2.82602
-2.67313
-2.5249
-2.38105
-2.24134
-2.10557
-1.97357
-1.84517
-1.72023
-1.59867
-1.48048
-1.36573
-1.25451
-1.14689
-1.04298
-0.942863
-0.846634
-0.754423
-0.666371
-0.582622
-0.503317
-0.428596
-0.358605
-0.2935
-0.233437
-0.178576
-0.129081
-0.0850946
-0.0467454
-0.0141671
0.0124739
0.0329229
0.0467813
0.0535869
0.0545525
-29.3882
-27.1031
-24.688
-22.4886
-20.5854
-18.9243
-17.482
-16.2261
-15.1268
-14.1622
-13.3068
-12.5381
-11.8377
-11.1915
-10.5909
-10.0308
-9.50666
-9.01516
-8.55362
-8.1198
-7.71148
-7.32668
-6.96363
-6.62052
-6.29599
-5.98902
-5.69806
-5.4213
-5.1576
-4.9064
-4.66736
-4.43993
-4.22323
-4.01629
-3.81814
-3.62785
-3.44464
-3.26786
-3.09692
-2.93143
-2.77125
-2.61621
-2.46604
-2.32043
-2.17909
-2.04184
-1.9085
-1.77887
-1.65273
-1.53
-1.41072
-1.29501
-1.183
-1.07481
-0.970535
-0.870284
-0.774181
-0.682368
-0.594981
-0.512138
-0.433957
-0.360607
-0.292292
-0.229191
-0.171473
-0.119297
-0.0728052
-0.0321105
0.00270396
0.0315905
0.0545355
0.0715363
0.0825844
0.0880622
0.093362
-29.1945
-27.416
-25.5955
-23.5786
-21.599
-19.8049
-18.198
-16.7753
-15.5359
-14.4646
-13.5279
-12.6961
-11.9514
-11.2833
-10.6749
-10.1109
-9.58522
-9.09334
-8.63207
-8.19863
-7.79012
-7.40382
-7.03632
-6.68412
-6.34713
-6.02717
-5.72413
-5.43637
-5.16263
-4.90261
-4.6563
-4.42288
-4.20095
-3.98957
-3.7881
-3.59552
-3.4108
-3.23293
-3.06075
-2.89366
-2.73172
-2.57492
-2.42311
-2.27599
-2.13324
-1.99471
-1.86029
-1.72958
-1.60215
-1.47792
-1.35709
-1.23994
-1.12669
-1.01748
-0.912382
-0.811535
-0.715088
-0.623186
-0.535958
-0.453536
-0.376066
-0.303707
-0.236622
-0.174993
-0.119026
-0.0689268
-0.0248381
0.0131516
0.0450269
0.0708748
0.090921
0.105558
0.115449
0.122441
0.138331
-30.3645
-28.0538
-25.9834
-23.8974
-21.9093
-20.0945
-18.4656
-17.014
-15.7386
-14.6439
-13.6886
-12.8397
-12.078
-11.3891
-10.7582
-10.174
-9.62925
-9.1188
-8.63928
-8.18839
-7.76431
-7.36505
-6.98834
-6.63281
-6.29678
-5.97854
-5.67809
-5.39566
-5.1297
-4.87768
-4.63713
-4.40714
-4.1881
-3.97953
-3.77918
-3.5851
-3.39691
-3.21443
-3.03692
-2.86469
-2.69843
-2.53833
-2.38418
-2.23541
-2.09166
-1.95298
-1.81928
-1.68949
-1.56243
-1.43793
-1.31647
-1.1986
-1.0847
-0.974944
-0.869453
-0.768389
-0.671912
-0.580146
-0.493202
-0.411201
-0.334325
-0.262737
-0.196597
-0.136105
-0.0815032
-0.033035
0.00914901
0.0449502
0.0744058
0.0977345
0.115415
0.128239
0.137578
0.146827
0.174633
-30.824
-28.2877
-25.9495
-23.7671
-21.7585
-19.9492
-18.3421
-16.9292
-15.6994
-14.6284
-13.6857
-12.8453
-12.0884
-11.4007
-10.7699
-10.1861
-9.64116
-9.12992
-8.64882
-8.19536
-7.76845
-7.36658
-6.9871
-6.62794
-6.28739
-5.96436
-5.65882
-5.37041
-5.09732
-4.83727
-4.58868
-4.35083
-4.12396
-3.90815
-3.70295
-3.50796
-3.32235
-3.14482
-2.97488
-2.81175
-2.65408
-2.50098
-2.35174
-2.20625
-2.06435
-1.92557
-1.78958
-1.6563
-1.52566
-1.39827
-1.27493
-1.15587
-1.04116
-0.930931
-0.82537
-0.724693
-0.628897
-0.537897
-0.451743
-0.370595
-0.294577
-0.223727
-0.158355
-0.0989701
-0.0459227
0.000662697
0.0407118
0.0741544
0.101035
0.121649
0.136637
0.146952
0.154316
0.163505
0.19533
-30.2458
-27.3226
-24.7435
-22.5329
-20.5975
-18.9175
-17.4669
-16.2067
-15.1081
-14.1417
-13.2827
-12.5097
-11.8061
-11.1596
-10.5613
-10.0037
-9.48044
-8.98832
-8.52435
-8.08487
-7.66831
-7.27372
-6.89984
-6.54519
-6.20865
-5.8897
-5.58808
-5.30291
-5.03256
-4.77554
-4.53053
-4.29632
-4.07217
-3.8578
-3.65298
-3.45731
-3.27011
-3.09071
-2.91886
-2.75396
-2.59502
-2.44089
-2.29066
-2.1441
-2.00098
-1.86074
-1.72301
-1.58841
-1.45777
-1.3312
-1.20876
-1.0905
-0.976462
-0.866778
-0.76177
-0.662039
-0.567607
-0.477961
-0.393036
-0.31306
-0.238355
-0.169286
-0.106216
-0.0495253
0.00055856
0.0439871
0.0806023
0.110406
0.133574
0.150391
0.161431
0.167672
0.170492
0.174204
0.198226
-30.4736
-27.0251
-23.8394
-21.1247
-18.9916
-17.3036
-15.937
-14.804
-13.846
-13.0201
-12.2949
-11.6452
-11.052
-10.5033
-9.99011
-9.50601
-9.0463
-8.608
-8.18939
-7.78899
-7.40607
-7.0402
-6.69081
-6.35742
-6.03951
-5.73657
-5.4481
-5.17332
-4.9113
-4.66152
-4.42343
-4.19638
-3.97953
-3.77211
-3.57365
-3.38336
-3.20021
-3.02382
-2.85407
-2.69034
-2.53186
-2.37803
-2.2284
-2.08267
-1.94062
-1.80206
-1.66693
-1.53549
-1.4079
-1.28395
-1.16359
-1.04684
-0.933735
-0.824432
-0.719218
-0.618556
-0.522866
-0.432234
-0.346824
-0.266899
-0.19279
-0.124915
-0.0635044
-0.00864426
0.0395145
0.0807997
0.115071
0.142349
0.16279
0.176599
0.18421
0.186441
0.184233
0.180343
0.187076
-34.3936
-31.9398
-28.5832
-24.9639
-21.7559
-19.2541
-17.3204
-15.7773
-14.5039
-13.4346
-12.5276
-11.7487
-11.0706
-10.469
-9.9252
-9.42585
-8.96156
-8.52659
-8.11628
-7.72546
-7.35124
-6.99347
-6.65227
-6.32719
-6.01766
-5.72328
-5.44335
-5.17719
-4.92406
-4.683
-4.45326
-4.23416
-4.02489
-3.8246
-3.63248
-3.44753
-3.26883
-3.09569
-2.92793
-2.76538
-2.60763
-2.45408
-2.30432
-2.15813
-2.01552
-1.87645
-1.74075
-1.60827
-1.47925
-1.35429
-1.23337
-1.11593
-1.00185
-0.89118
-0.784005
-0.680386
-0.580127
-0.483745
-0.392358
-0.306544
-0.226577
-0.152675
-0.0852263
-0.0245185
0.0294118
0.0764124
0.116111
0.148333
0.173163
0.190638
0.200936
0.20441
0.201512
0.19285
0.18005
0.168208
-34.3013
-31.4258
-28.1257
-24.764
-21.8734
-19.6147
-17.8128
-16.2897
-14.9607
-13.8011
-12.7878
-11.8972
-11.1109
-10.4131
-9.7891
-9.22687
-8.71836
-8.26038
-7.84429
-7.45345
-7.07973
-6.72327
-6.38404
-6.06151
-5.75501
-5.46415
-5.18848
-4.92769
-4.68134
-4.44835
-4.22727
-4.01711
-3.81705
-3.62622
-3.44379
-3.26863
-3.09972
-2.93643
-2.77841
-2.62526
-2.47632
-2.33106
-2.18918
-2.0505
-1.91498
-1.78253
-1.65295
-1.526
-1.40174
-1.28052
-1.16258
-1.04796
-0.936702
-0.828874
-0.72451
-0.623684
-0.5266
-0.433656
-0.34536
-0.262191
-0.184538
-0.112754
-0.0471675
0.0119426
0.064332
0.109724
0.1478
0.178313
0.201133
0.216177
0.223451
0.223025
0.214951
0.199182
0.175453
0.144559
-31.4139
-28.8182
-26.1177
-23.46
-21.0764
-19.0556
-17.3495
-15.8907
-14.6376
-13.5584
-12.6217
-11.7988
-11.0684
-10.4125
-9.81376
-9.25949
-8.74178
-8.24993
-7.77751
-7.3293
-6.90914
-6.51581
-6.14747
-5.80275
-5.48072
-5.18105
-4.9029
-4.64553
-4.4069
-4.18342
-3.97301
-3.7743
-3.58586
-3.40637
-3.23458
-3.06951
-2.91049
-2.75692
-2.60806
-2.4633
-2.32207
-2.18398
-2.04881
-1.91635
-1.78646
-1.65914
-1.53437
-1.41203
-1.29222
-1.17529
-1.06149
-0.950958
-0.843769
-0.739963
-0.639593
-0.54276
-0.449699
-0.360754
-0.276299
-0.19677
-0.122579
-0.05407
0.00843525
0.0645806
0.11397
0.156165
0.190785
0.217536
0.236188
0.246545
0.248406
0.241571
0.225736
0.200277
0.163723
0.114407
-29.3084
-27.1316
-24.9195
-22.7437
-20.7147
-18.9059
-17.325
-15.943
-14.7273
-13.6502
-12.6888
-11.8246
-11.0433
-10.3331
-9.68341
-9.08553
-8.53295
-8.02022
-7.54469
-7.10492
-6.69755
-6.31857
-5.96493
-5.63425
-5.3244
-5.03299
-4.758
-4.49737
-4.25031
-4.0177
-3.79929
-3.59365
-3.39931
-3.21504
-3.03978
-2.87265
-2.71312
-2.56025
-2.41289
-2.27041
-2.13223
-1.99781
-1.86678
-1.73889
-1.61387
-1.49155
-1.37181
-1.25471
-1.14044
-1.02918
-0.920983
-0.815879
-0.713879
-0.615022
-0.519425
-0.427251
-0.33873
-0.254169
-0.173968
-0.0985766
-0.0284532
0.0360325
0.0945012
0.146464
0.19138
0.228728
0.258085
0.279104
0.291441
0.294738
0.288585
0.272538
0.24598
0.207719
0.155247
0.0831908
-25.8125
-23.8982
-22.0216
-20.2485
-18.6276
-17.1717
-15.8676
-14.6959
-13.6398
-12.6849
-11.8182
-11.0284
-10.3058
-9.6422
-9.03035
-8.46427
-7.93885
-7.45005
-6.9946
-6.56986
-6.17355
-5.80358
-5.45801
-5.13511
-4.83334
-4.5516
-4.2887
-4.04339
-3.81453
-3.6008
-3.40073
-3.21263
-3.03453
-2.86495
-2.703
-2.54753
-2.39785
-2.25366
-2.11435
-1.9793
-1.84792
-1.71968
-1.59433
-1.47157
-1.35124
-1.23329
-1.11775
-1.00485
-0.894802
-0.787742
-0.683744
-0.582908
-0.485372
-0.391293
-0.300896
-0.214473
-0.132339
-0.0548398
0.0176521
0.0846952
0.1458
0.200448
0.248106
0.288262
0.320464
0.344253
0.359141
0.364606
0.360077
0.344931
0.318473
0.27976
0.227114
0.157263
0.0614207
-24.8736
-23.1807
-21.5235
-19.944
-18.4726
-17.1204
-15.8838
-14.7535
-13.7192
-12.7713
-11.9004
-11.0981
-10.3571
-9.67159
-9.03629
-8.44665
-7.89866
-7.38902
-6.91511
-6.47472
-6.06565
-5.68566
-5.33257
-5.00433
-4.69901
-4.41474
-4.14973
-3.90229
-3.6709
-3.45419
-3.25084
-3.05944
-2.87858
-2.70716
-2.54426
-2.38883
-2.23993
-2.09678
-1.95857
-1.82464
-1.69449
-1.56774
-1.44401
-1.32319
-1.20522
-1.08993
-0.977256
-0.867289
-0.760084
-0.655712
-0.554334
-0.456148
-0.361346
-0.270115
-0.182659
-0.0992394
-0.020152
0.0542905
0.123708
0.18763
0.245545
0.29692
0.341192
0.377757
0.406001
0.425318
0.435067
0.434545
0.423
0.399618
0.363489
0.313456
0.247822
0.163852
0.0554951
-24.1385
-22.609
-21.1078
-19.6647
-18.3012
-17.0278
-15.8458
-14.7512
-13.7379
-12.7995
-11.9298
-11.1228
-10.3732
-9.67662
-9.02896
-8.42656
-7.86618
-7.34491
-6.86021
-6.40965
-5.99095
-5.60188
-5.24033
-4.90428
-4.59181
-4.3011
-4.03044
-3.77824
-3.543
-3.32324
-3.1175
-2.92439
-2.74253
-2.57062
-2.40744
-2.25191
-2.10311
-1.96022
-1.82255
-1.68954
-1.56077
-1.43579
-1.31407
-1.19521
-1.07895
-0.965164
-0.85393
-0.745356
-0.639591
-0.536738
-0.436896
-0.340231
-0.246928
-0.157211
-0.0713379
0.0103967
0.0876449
0.16003
0.227144
0.288529
0.343684
0.392067
0.433077
0.466044
0.490274
0.505057
0.509607
0.503054
0.484481
0.452911
0.40731
0.346585
0.269562
0.175063
0.062513
-23.5833
-22.1721
-20.7824
-19.4379
-18.1553
-16.9441
-15.8074
-14.7439
-13.7505
-12.8231
-11.9573
-11.1492
-10.3949
-9.69092
-9.03421
-8.42187
-7.85126
-7.31993
-6.8256
-6.36604
-5.93908
-5.54258
-5.17444
-4.83263
-4.51521
-4.22029
-3.94609
-3.69088
-3.453
-3.23084
-3.02287
-2.82766
-2.64384
-2.47015
-2.30542
-2.1486
-1.99879
-1.85515
-1.71697
-1.58362
-1.45459
-1.32942
-1.2077
-1.08906
-0.973297
-0.860326
-0.750136
-0.642718
-0.538074
-0.436268
-0.337451
-0.241836
-0.14967
-0.0612045
0.0233071
0.103573
0.17925
0.249945
0.315231
0.374645
0.427667
0.473712
0.512134
0.542219
0.563202
0.574274
0.574522
0.562926
0.538421
0.499947
0.446475
0.377103
0.291271
0.189338
0.0748256
-23.1527
-21.8241
-20.5121
-19.2369
-18.0126
-16.8474
-15.7452
-14.7066
-13.73
-12.813
-11.9528
-11.1465
-10.3913
-9.68461
-9.02387
-8.4068
-7.83111
-7.29466
-6.7953
-6.33093
-5.89945
-5.49876
-5.12678
-4.78146
-4.46081
-4.16291
-3.88594
-3.62819
-3.38798
-3.1637
-2.95382
-2.7569
-2.57156
-2.39656
-2.23076
-2.07309
-1.92258
-1.77841
-1.63982
-1.50617
-1.37693
-1.25164
-1.12993
-1.01145
-0.895974
-0.78337
-0.673554
-0.566515
-0.462305
-0.361038
-0.262856
-0.167907
-0.0764
0.0113775
0.0951352
0.174572
0.249342
0.319047
0.383234
0.441414
0.493047
0.537529
0.574184
0.602267
0.620947
0.62931
0.626351
0.610968
0.582009
0.538351
0.478985
0.403193
0.310912
0.203627
0.0868194
-22.8583
-21.5806
-20.317
-19.0856
-17.8987
-16.7641
-15.6858
-14.665
-13.7014
-12.7935
-11.9391
-11.1363
-10.3826
-9.67608
-9.0145
-8.39587
-7.81818
-7.27942
-6.77761
-6.31072
-5.87675
-5.47364
-5.09938
-4.75193
-4.42935
-4.12971
-3.8512
-3.59208
-3.35064
-3.12525
-2.91437
-2.71653
-2.53038
-2.35467
-2.18822
-2.02996
-1.8789
-1.7342
-1.59512
-1.46104
-1.3314
-1.20574
-1.08369
-0.964942
-0.849268
-0.736526
-0.626633
-0.519588
-0.415448
-0.314292
-0.21624
-0.121469
-0.0302084
0.0572733
0.140678
0.219692
0.293993
0.363189
0.426804
0.484324
0.535202
0.578816
0.61445
0.641327
0.658591
0.665277
0.660316
0.642552
0.61078
0.563828
0.500691
0.420778
0.324385
0.213824
0.095586
-22.676
-21.4234
-20.1844
-18.9761
-17.81
-16.6932
-15.6296
-14.6206
-13.6664
-12.7657
-11.9169
-11.1182
-10.3677
-9.66335
-9.00326
-8.38557
-7.80838
-7.2698
-6.76794
-6.30084
-5.86654
-5.46304
-5.08835
-4.7405
-4.41752
-4.11753
-3.8387
-3.57926
-3.33752
-3.11183
-2.90066
-2.70252
-2.51608
-2.34008
-2.17337
-2.01488
-1.86363
-1.71878
-1.57957
-1.44534
-1.31556
-1.18976
-1.06756
-0.948671
-0.832868
-0.719993
-0.609974
-0.502795
-0.398497
-0.297172
-0.198936
-0.103994
-0.012594
0.0750168
0.15854
0.237626
0.311899
0.381001
0.444519
0.501925
0.552646
0.596039
0.631351
0.657762
0.674424
0.680414
0.674662
0.655988
0.623157
0.574952
0.510323
0.4287
0.330564
0.217587
0.0985005
-22.6308
-21.3761
-20.1375
-18.9315
-17.769
-16.6565
-15.5975
-14.5933
-13.6437
-12.7475
-11.9031
-11.1085
-10.3617
-9.66077
-9.00378
-8.38884
-7.81408
-7.27762
-6.77759
-6.31208
-5.87915
-5.47683
-5.10317
-4.75621
-4.43401
-4.13471
-3.85647
-3.59755
-3.35624
-3.13091
-2.92001
-2.72208
-2.53576
-2.35982
-2.19309
-2.03453
-1.88317
-1.73818
-1.59879
-1.46432
-1.33424
-1.20811
-1.08555
-0.966254
-0.849993
-0.736626
-0.626098
-0.518396
-0.413576
-0.311745
-0.213017
-0.117585
-0.0256702
0.0624768
0.146537
0.226162
0.300996
0.370678
0.434771
0.492739
0.543999
0.587911
0.623743
0.650684
0.667873
0.674365
0.669092
0.650894
0.618558
0.570887
0.506849
0.425897
0.328497
0.216307
0.0977943
-22.716
-21.4331
-20.1715
-18.9478
-17.7726
-16.6517
-15.5877
-14.5814
-13.632
-12.7376
-11.8962
-11.1054
-10.3629
-9.66652
-9.01408
-8.40355
-7.83298
-7.30046
-6.80407
-6.3419
-5.912
-5.51244
-5.14126
-4.79653
-4.47635
-4.17884
-3.9022
-3.64468
-3.40458
-3.18029
-2.97027
-2.77306
-2.58731
-2.4118
-2.24538
-2.08699
-1.93571
-1.79068
-1.65112
-1.51637
-1.38592
-1.2593
-1.13619
-1.01626
-0.899309
-0.785229
-0.673961
-0.565499
-0.459894
-0.357238
-0.257681
-0.161417
-0.0686514
0.0203847
0.10539
0.186019
0.26191
0.332667
0.397838
0.456899
0.509281
0.554369
0.591458
0.619746
0.638363
0.646357
0.642677
0.626199
0.59577
0.550272
0.48877
0.410744
0.316505
0.208278
0.0923431
-22.901
-21.5658
-20.2599
-19.0008
-17.7985
-16.6581
-15.5813
-14.5677
-13.6152
-12.7211
-11.8824
-11.0959
-10.3588
-9.66845
-9.02234
-8.41818
-7.85384
-7.32732
-6.83665
-6.37984
-5.95491
-5.55993
-5.19297
-4.85211
-4.53544
-4.2411
-3.9673
-3.71228
-3.47439
-3.25203
-3.04368
-2.84792
-2.66341
-2.48894