/*--------------------------------*- C++ -*----------------------------------*\
  =========                 |
  \\      /  F ield         | OpenFOAM: The Open Source CFD Toolbox
   \\    /   O peration     | Website:  https://openfoam.org
    \\  /    A nd           | Version:  13
     \\/     M anipulation  |
\*---------------------------------------------------------------------------*/
FoamFile
{
    format      ascii;
    class       volScalarField;
    location    "300";
    object      omega;
}
// * * * * * * * * * * * * * * * * * * * * * * * * * * * * * * * * * * * * * //

dimensions      [0 0 -1 0 0 0 0];

internalField   nonuniform List<scalar> 
172290
(
29.7488
29.4979
29.2511
29.0084
28.7697
28.5349
28.3039
28.0765
27.8528
27.6326
27.4158
27.2024
26.9922
26.7853
26.5815
26.3807
26.183
25.9881
25.7962
25.607
25.4206
25.2368
25.0557
24.8771
24.701
24.5274
24.3563
24.1874
24.0209
23.8567
23.6946
23.5348
23.3771
23.2214
23.0679
22.9163
22.7667
22.6191
22.4734
22.3295
22.1875
22.0473
21.9088
21.7721
21.6372
21.5039
21.3723
21.2423
21.114
20.9873
20.8621
20.7386
20.6165
20.4961
20.3771
20.2597
20.1438
20.0294
19.9165
19.8052
19.6953
19.587
19.4802
19.3749
19.2712
19.1691
19.0685
18.9694
18.872
18.7761
18.6817
18.5889
18.4976
18.4078
18.3194
18.2323
18.1465
29.7488
29.4979
29.2511
29.0084
28.7697
28.5349
28.3039
28.0765
27.8528
27.6326
27.4158
27.2024
26.9922
26.7853
26.5815
26.3807
26.1829
25.9881
25.7961
25.607
25.4205
25.2368
25.0556
24.8771
24.701
24.5274
24.3562
24.1874
24.0209
23.8566
23.6946
23.5348
23.377
23.2214
23.0678
22.9163
22.7667
22.6191
22.4733
22.3295
22.1874
22.0472
21.9088
21.7721
21.6371
21.5038
21.3722
21.2422
21.1139
20.9872
20.862
20.7385
20.6164
20.496
20.377
20.2596
20.1437
20.0293
19.9164
19.805
19.6952
19.5868
19.48
19.3748
19.2711
19.1689
19.0683
18.9693
18.8719
18.776
18.6817
18.589
18.4977
18.4079
18.3196
18.2326
18.1469
29.7488
29.4979
29.2511
29.0084
28.7697
28.5349
28.3039
28.0765
27.8528
27.6326
27.4158
27.2024
26.9922
26.7853
26.5815
26.3807
26.1829
25.9881
25.7961
25.607
25.4205
25.2368
25.0556
24.8771
24.701
24.5274
24.3562
24.1874
24.0209
23.8566
23.6946
23.5347
23.377
23.2214
23.0678
22.9162
22.7666
22.619
22.4733
22.3294
22.1874
22.0471
21.9087
21.772
21.637
21.5037
21.3721
21.2421
21.1138
20.987
20.8619
20.7383
20.6163
20.4958
20.3768
20.2594
20.1435
20.0291
19.9162
19.8048
19.695
19.5866
19.4798
19.3746
19.2709
19.1688
19.0682
18.9693
18.8719
18.7761
18.6819
18.5892
18.4981
18.4084
18.3202
18.2334
18.1478
29.7488
29.4979
29.2511
29.0084
28.7697
28.5349
28.3039
28.0765
27.8528
27.6326
27.4158
27.2024
26.9922
26.7853
26.5815
26.3807
26.1829
25.9881
25.7961
25.607
25.4205
25.2368
25.0556
24.877
24.701
24.5274
24.3562
24.1874
24.0208
23.8566
23.6945
23.5347
23.377
23.2213
23.0677
22.9162
22.7666
22.6189
22.4732
22.3293
22.1872
22.047
21.9086
21.7718
21.6369
21.5036
21.3719
21.2419
21.1136
20.9868
20.8617
20.7381
20.616
20.4955
20.3766
20.2591
20.1432
20.0288
19.9159
19.8045
19.6947
19.5863
19.4796
19.3743
19.2707
19.1686
19.0681
18.9692
18.8719
18.7762
18.6821
18.5896
18.4986
18.4091
18.3212
18.2346
18.1493
29.7488
29.4979
29.2511
29.0084
28.7697
28.5349
28.3039
28.0765
27.8528
27.6326
27.4158
27.2024
26.9922
26.7853
26.5814
26.3807
26.1829
25.9881
25.7961
25.6069
25.4205
25.2367
25.0556
24.877
24.701
24.5273
24.3562
24.1873
24.0208
23.8565
23.6945
23.5346
23.3769
23.2212
23.0677
22.9161
22.7665
22.6188
22.473
22.3292
22.1871
22.0469
21.9084
21.7717
21.6367
21.5034
21.3717
21.2417
21.1133
20.9866
20.8614
20.7378
20.6157
20.4952
20.3762
20.2587
20.1428
20.0284
19.9155
19.8041
19.6942
19.5859
19.4792
19.374
19.2703
19.1683
19.0679
18.9691
18.8719
18.7763
18.6824
18.5901
18.4994
18.4102
18.3225
18.2363
18.1514
29.7488
29.4979
29.2511
29.0084
28.7697
28.5349
28.3039
28.0765
27.8528
27.6326
27.4158
27.2024
26.9922
26.7853
26.5814
26.3807
26.1829
25.9881
25.7961
25.6069
25.4205
25.2367
25.0556
24.877
24.7009
24.5273
24.3561
24.1873
24.0207
23.8565
23.6944
23.5345
23.3768
23.2211
23.0675
22.916
22.7663
22.6187
22.4729
22.329
22.1869
22.0467
21.9082
21.7714
21.6364
21.5031
21.3714
21.2414
21.113
20.9862
20.861
20.7374
20.6153
20.4948
20.3758
20.2583
20.1423
20.0279
19.915
19.8036
19.6937
19.5854
19.4787
19.3735
19.27
19.168
19.0677
18.969
18.872
18.7766
18.6829
18.5909
18.5005
18.4117
18.3244
18.2387
18.1542
29.7488
29.4979
29.2511
29.0084
28.7697
28.5349
28.3039
28.0765
27.8528
27.6326
27.4158
27.2023
26.9922
26.7852
26.5814
26.3807
26.1829
25.9881
25.7961
25.6069
25.4205
25.2367
25.0555
24.877
24.7009
24.5273
24.3561
24.1872
24.0207
23.8564
23.6943
23.5344
23.3767
23.221
23.0674
22.9158
22.7662
22.6185
22.4727
22.3288
22.1867
22.0464
21.9079
21.7712
21.6361
21.5028
21.3711
21.2411
21.1126
20.9858
20.8606
20.7369
20.6148
20.4943
20.3752
20.2577
20.1418
20.0273
19.9144
19.803
19.6932
19.5849
19.4782
19.373
19.2695
19.1677
19.0674
18.9689
18.8721
18.777
18.6836
18.592
18.502
18.4137
18.327
18.2418
18.1581
29.7488
29.4979
29.2511
29.0084
28.7697
28.5349
28.3039
28.0765
27.8528
27.6326
27.4158
27.2023
26.9922
26.7852
26.5814
26.3807
26.1829
25.988
25.7961
25.6069
25.4204
25.2366
25.0555
24.8769
24.7008
24.5272
24.356
24.1871
24.0206
23.8563
23.6942
23.5343
23.3766
23.2209
23.0673
22.9157
22.766
22.6183
22.4725
22.3286
22.1865
22.0462
21.9077
21.7709
21.6358
21.5024
21.3707
21.2407
21.1122
20.9854
20.8601
20.7364
20.6143
20.4937
20.3746
20.2571
20.1411
20.0267
19.9137
19.8023
19.6925
19.5842
19.4775
19.3725
19.2691
19.1673
19.0672
18.9689
18.8724
18.7776
18.6846
18.5934
18.504
18.4163
18.3303
18.246
18.1631
29.7488
29.4979
29.2511
29.0084
28.7697
28.5349
28.3039
28.0765
27.8528
27.6326
27.4158
27.2023
26.9922
26.7852
26.5814
26.3806
26.1829
25.988
25.796
25.6068
25.4204
25.2366
25.0555
24.8769
24.7008
24.5271
24.3559
24.1871
24.0205
23.8562
23.6941
23.5342
23.3764
23.2208
23.0671
22.9155
22.7658
22.6181
22.4723
22.3283
22.1862
22.0459
21.9073
21.7705
21.6354
21.502
21.3703
21.2402
21.1117
20.9849
20.8596
20.7359
20.6137
20.4931
20.374
20.2564
20.1404
20.0259
19.913
19.8016
19.6918
19.5835
19.4769
19.3719
19.2686
19.1669
19.0671
18.969
18.8727
18.7783
18.6858
18.5952
18.5065
18.4197
18.3347
18.2514
18.1697
29.7488
29.4979
29.2511
29.0084
28.7697
28.5349
28.3039
28.0765
27.8528
27.6326
27.4158
27.2023
26.9922
26.7852
26.5814
26.3806
26.1829
25.988
25.796
25.6068
25.4204
25.2366
25.0554
24.8768
24.7007
24.5271
24.3558
24.187
24.0204
23.8561
23.694
23.5341
23.3763
23.2206
23.0669
22.9153
22.7656
22.6179
22.472
22.3281
22.1859
22.0456
21.907
21.7702
21.635
21.5016
21.3698
21.2397
21.1112
20.9843
20.859
20.7352
20.613
20.4924
20.3732
20.2557
20.1396
20.0251
19.9121
19.8008
19.6909
19.5827
19.4761
19.3712
19.268
19.1666
19.067
18.9692
18.8733
18.7794
18.6875
18.5977
18.5099
18.4241
18.3403
18.2584
18.1783
29.7488
29.4979
29.2511
29.0084
28.7697
28.5349
28.3039
28.0765
27.8528
27.6326
27.4158
27.2023
26.9922
26.7852
26.5814
26.3806
26.1828
25.988
25.796
25.6068
25.4203
25.2365
25.0554
24.8767
24.7006
24.527
24.3558
24.1869
24.0203
23.856
23.6939
23.5339
23.3761
23.2204
23.0668
22.9151
22.7654
22.6176
22.4718
22.3278
22.1856
22.0452
21.9066
21.7698
21.6346
21.5011
21.3693
21.2392
21.1106
20.9837
20.8583
20.7345
20.6123
20.4916
20.3724
20.2548
20.1387
20.0242
19.9112
19.7999
19.6901
19.5819
19.4754
19.3706
19.2675
19.1663
19.0669
18.9695
18.8741
18.7808
18.6897
18.6008
18.5141
18.4297
18.3475
18.2675
18.1895
29.7488
29.4979
29.2511
29.0084
28.7697
28.5349
28.3039
28.0765
27.8528
27.6325
27.4158
27.2023
26.9922
26.7852
26.5814
26.3806
26.1828
25.988
25.796
25.6067
25.4203
25.2365
25.0553
24.8767
24.7006
24.5269
24.3557
24.1868
24.0202
23.8559
23.6937
23.5338
23.376
23.2202
23.0665
22.9149
22.7651
22.6174
22.4715
22.3274
22.1852
22.0448
21.9062
21.7693
21.6341
21.5006
21.3688
21.2386
21.11
20.983
20.8576
20.7338
20.6115
20.4907
20.3716
20.2539
20.1378
20.0233
19.9103
19.7989
19.6891
19.581
19.4746
19.3699
19.267
19.166
19.067
18.97
18.8752
18.7826
18.6924
18.6047
18.5195
18.4369
18.3569
18.2793
18.2042
29.7488
29.4979
29.2511
29.0084
28.7697
28.5349
28.3039
28.0765
27.8528
27.6325
27.4157
27.2023
26.9921
26.7852
26.5813
26.3806
26.1828
25.9879
25.7959
25.6067
25.4202
25.2364
25.0552
24.8766
24.7005
24.5268
24.3556
24.1867
24.0201
23.8557
23.6936
23.5336
23.3758
23.22
23.0663
22.9146
22.7649
22.6171
22.4712
22.3271
22.1849
22.0444
21.9058
21.7688
21.6336
21.5001
21.3682
21.238
21.1093
20.9823
20.8568
20.733
20.6106
20.4899
20.3706
20.2529
20.1368
20.0222
19.9093
19.7979
19.6881
19.5801
19.4737
19.3692
19.2665
19.1658
19.0672
18.9707
18.8766
18.785
18.6959
18.6097
18.5264
18.4461
18.3688
18.2946
18.2234
29.7488
29.4979
29.2511
29.0084
28.7697
28.5349
28.3039
28.0765
27.8528
27.6325
27.4157
27.2023
26.9921
26.7852
26.5813
26.3806
26.1828
25.9879
25.7959
25.6067
25.4202
25.2364
25.0552
24.8765
24.7004
24.5267
24.3555
24.1865
24.0199
23.8556
23.6934
23.5334
23.3756
23.2198
23.0661
22.9144
22.7646
22.6168
22.4708
22.3267
22.1845
22.044
21.9053
21.7683
21.6331
21.4995
21.3676
21.2373
21.1086
20.9815
20.856
20.7321
20.6097
20.4889
20.3696
20.2519
20.1358
20.0212
19.9082
19.7968
19.6871
19.5791
19.4729
19.3685
19.2661
19.1657
19.0675
18.9717
18.8784
18.7879
18.7003
18.6159
18.535
18.4577
18.3841
18.3145
18.2487
29.7488
29.4979
29.2511
29.0084
28.7697
28.5349
28.3039
28.0765
27.8528
27.6325
27.4157
27.2023
26.9921
26.7852
26.5813
26.3805
26.1827
25.9879
25.7958
25.6066
25.4201
25.2363
25.0551
24.8765
24.7003
24.5266
24.3554
24.1864
24.0198
23.8554
23.6933
23.5333
23.3754
23.2196
23.0658
22.9141
22.7643
22.6164
22.4705
22.3264
22.1841
22.0436
21.9048
21.7678
21.6325
21.4989
21.3669
21.2366
21.1079
20.9807
20.8552
20.7312
20.6088
20.4879
20.3686
20.2509
20.1347
20.0201
19.9071
19.7957
19.686
19.5781
19.472
19.3678
19.2657
19.1657
19.0681
18.973
18.8807
18.7915
18.7057
18.6236
18.5457
18.4723
18.4037
18.3403
18.2821
29.7488
29.4979
29.2511
29.0084
28.7697
28.5349
28.3039
28.0765
27.8528
27.6325
27.4157
27.2023
26.9921
26.7851
26.5813
26.3805
26.1827
25.9878
25.7958
25.6066
25.4201
25.2363
25.055
24.8764
24.7002
24.5265
24.3552
24.1863
24.0197
23.8553
23.6931
23.5331
23.3752
23.2194
23.0656
22.9138
22.764
22.6161
22.4701
22.326
22.1836
22.0431
21.9043
21.7673
21.6319
21.4983
21.3663
21.2359
21.1071
20.9799
20.8543
20.7303
20.6078
20.4869
20.3676
20.2498
20.1335
20.0189
19.9059
19.7946
19.6849
19.5771
19.4711
19.3672
19.2653
19.1658
19.0688
18.9745
18.8834
18.7958
18.7121
18.6329
18.5588
18.4905
18.4286
18.3737
18.3263
29.7488
29.4979
29.2511
29.0084
28.7697
28.5349
28.3039
28.0765
27.8528
27.6325
27.4157
27.2023
26.9921
26.7851
26.5813
26.3805
26.1827
25.9878
25.7958
25.6065
25.42
25.2362
25.055
24.8763
24.7001
24.5264
24.3551
24.1862
24.0195
23.8551
23.6929
23.5329
23.375
23.2191
23.0653
22.9135
22.7637
22.6158
22.4697
22.3256
22.1832
22.0426
21.9038
21.7667
21.6313
21.4976
21.3656
21.2351
21.1063
20.9791
20.8534
20.7293
20.6068
20.4859
20.3665
20.2486
20.1324
20.0177
19.9047
19.7934
19.6838
19.5761
19.4703
19.3665
19.265
19.166
19.0697
18.9764
18.8866
18.8009
18.7198
18.6441
18.5748
18.513
18.46
18.4168
18.3846
29.7488
29.4979
29.2511
29.0084
28.7697
28.5349
28.3039
28.0765
27.8528
27.6325
27.4157
27.2023
26.9921
26.7851
26.5813
26.3805
26.1826
25.9878
25.7957
25.6065
25.42
25.2361
25.0549
24.8762
24.7001
24.5263
24.355
24.186
24.0194
23.8549
23.6927
23.5327
23.3747
23.2189
23.0651
22.9132
22.7634
22.6154
22.4694
22.3251
22.1827
22.0421
21.9033
21.7661
21.6307
21.497
21.3648
21.2344
21.1055
20.9782
20.8525
20.7284
20.6058
20.4848
20.3653
20.2474
20.1312
20.0165
19.9035
19.7922
19.6827
19.575
19.4694
19.3659
19.2648
19.1663
19.0707
18.9785
18.8903
18.8066
18.7286
18.6571
18.5938
18.5404
18.4989
18.4715
18.4608
29.7488
29.4979
29.2511
29.0084
28.7697
28.5349
28.3039
28.0765
27.8527
27.6325
27.4157
27.2022
26.9921
26.7851
26.5812
26.3804
26.1826
25.9877
25.7957
25.6064
25.4199
25.2361
25.0548
24.8761
24.7
24.5262
24.3549
24.1859
24.0192
23.8548
23.6925
23.5325
23.3745
23.2186
23.0648
22.9129
22.763
22.6151
22.469
22.3247
22.1823
22.0416
21.9027
21.7656
21.6301
21.4963
21.3641
21.2336
21.1047
20.9773
20.8516
20.7274
20.6047
20.4837
20.3642
20.2463
20.1299
20.0152
19.9022
19.791
19.6815
19.574
19.4685
19.3653
19.2646
19.1666
19.0719
18.9809
18.8943
18.813
18.7384
18.6719
18.6158
18.5728
18.5461
18.5403
18.5606
29.7488
29.4979
29.2511
29.0084
28.7697
28.5349
28.3039
28.0765
27.8527
27.6325
27.4157
27.2022
26.9921
26.7851
26.5812
26.3804
26.1826
25.9877
25.7956
25.6064
25.4199
25.236
25.0547
24.8761
24.6999
24.5261
24.3548
24.1858
24.0191
23.8546
23.6924
23.5323
23.3743
23.2184
23.0645
22.9126
22.7627
22.6147
22.4686
22.3243
22.1818
22.0411
21.9022
21.765
21.6295
21.4956
21.3634
21.2328
21.1038
20.9764
20.8506
20.7264
20.6037
20.4826
20.363
20.245
20.1287
20.014
19.901
19.7897
19.6803
19.5729
19.4676
19.3647
19.2643
19.167
19.073
18.9832
18.8984
18.8197
18.7488
18.688
18.6403
18.6097
18.602
18.6252
18.6895
29.7488
29.4979
29.2511
29.0084
28.7697
28.5349
28.3039
28.0765
27.8527
27.6325
27.4157
27.2022
26.992
26.7851
26.5812
26.3804
26.1826
25.9877
25.7956
25.6063
25.4198
25.2359
25.0547
24.876
24.6998
24.526
24.3547
24.1856
24.0189
23.8544
23.6922
23.5321
23.3741
23.2181
23.0642
22.9123
22.7624
22.6143
22.4682
22.3239
22.1814
22.0406
21.9016
21.7644
21.6288
21.4949
21.3626
21.232
21.103
20.9755
20.8497
20.7254
20.6026
20.4814
20.3618
20.2438
20.1274
20.0127
19.8997
19.7885
19.6791
19.5718
19.4667
19.364
19.2641
19.1672
19.0741
18.9855
18.9024
18.8263
18.7594
18.7045
18.666
18.6499
18.6655
18.7263
18.8516
29.7488
29.4979
29.2511
29.0084
28.7697
28.5349
28.3039
28.0765
27.8527
27.6325
27.4157
27.2022
26.992
26.785
26.5812
26.3804
26.1825
25.9876
25.7956
25.6063
25.4197
25.2359
25.0546
24.8759
24.6997
24.5259
24.3545
24.1855
24.0188
23.8543
23.692
23.5318
23.3738
23.2179
23.064
22.912
22.762
22.614
22.4678
22.3234
22.1809
22.0401
21.9011
21.7638
21.6282
21.4942
21.3619
21.2312
21.1021
20.9746
20.8487
20.7243
20.6015
20.4803
20.3607
20.2426
20.1262
20.0114
19.8984
19.7872
19.6779
19.5707
19.4657
19.3633
19.2637
19.1673
19.075
18.9874
18.9059
18.8322
18.769
18.72
18.6908
18.6904
18.7328
18.8399
19.0467
29.7488
29.4979
29.2511
29.0084
28.7697
28.5349
28.3039
28.0765
27.8527
27.6325
27.4157
27.2022
26.992
26.785
26.5811
26.3803
26.1825
25.9876
25.7955
25.6062
25.4197
25.2358
25.0545
24.8758
24.6996
24.5258
24.3544
24.1854
24.0186
23.8541
23.6918
23.5316
23.3736
23.2176
23.0637
22.9117
22.7617
22.6136
22.4674
22.323
22.1804
22.0396
21.9005
21.7632
21.6275
21.4935
21.3612
21.2304
21.1013
20.9737
20.8477
20.7233
20.6005
20.4792
20.3595
20.2414
20.125
20.0102
19.8972
19.786
19.6767
19.5696
19.4647
19.3624
19.2631
19.1672
19.0754
18.9887
18.9084
18.8367
18.7764
18.7323
18.7115
18.7261
18.7959
18.9551
29.7488
29.4979
29.2511
29.0084
28.7697
28.5349
28.3039
28.0765
27.8527
27.6325
27.4157
27.2022
26.992
26.785
26.5811
26.3803
26.1825
25.9875
25.7955
25.6062
25.4196
25.2357
25.0545
24.8757
24.6995
24.5257
24.3543
24.1852
24.0185
23.8539
23.6916
23.5314
23.3734
23.2174
23.0634
22.9114
22.7614
22.6133
22.467
22.3226
22.18
22.0391
21.9
21.7626
21.6269
21.4929
21.3605
21.2297
21.1005
20.9728
20.8468
20.7223
20.5994
20.4781
20.3583
20.2402
20.1237
20.0089
19.8959
19.7847
19.6755
19.5684
19.4636
19.3615
19.2623
19.1667
19.0753
18.989
18.9095
18.8389
18.7804
18.7392
18.7239
18.749
18.841
19.0482
29.7488
29.4979
29.2511
29.0084
28.7697
28.5349
28.3038
28.0765
27.8527
27.6325
27.4156
27.2022
26.992
26.785
26.5811
26.3803
26.1824
25.9875
25.7954
25.6061
25.4196
25.2357
25.0544
24.8756
24.6994
24.5256
24.3542
24.1851
24.0183
23.8538
23.6914
23.5312
23.3732
23.2171
23.0631
22.9111
22.7611
22.6129
22.4666
22.3222
22.1795
22.0386
21.8995
21.762
21.6263
21.4922
21.3597
21.2289
21.0996
20.972
20.8459
20.7214
20.5984
20.477
20.3572
20.239
20.1225
20.0077
19.8946
19.7834
19.6742
19.5671
19.4624
19.3604
19.2613
19.1658
19.0744
18.9883
18.9088
18.8382
18.7796
18.7384
18.7235
18.751
18.8511
19.0843
29.7488
29.4979
29.2511
29.0084
28.7697
28.5349
28.3038
28.0765
27.8527
27.6325
27.4156
27.2022
26.992
26.785
26.5811
26.3803
26.1824
25.9875
25.7954
25.6061
25.4195
25.2356
25.0543
24.8756
24.6993
24.5255
24.3541
24.185
24.0182
23.8536
23.6913
23.531
23.3729
23.2169
23.0629
22.9109
22.7608
22.6126
22.4662
22.3218
22.1791
22.0382
21.899
21.7615
21.6257
21.4916
21.3591
21.2282
21.0989
20.9711
20.845
20.7204
20.5974
20.476
20.3561
20.2379
20.1213
20.0065
19.8934
19.7822
19.6729
19.5659
19.4612
19.3591
19.26
19.1644
19.0728
18.9863
18.9061
18.8342
18.7735
18.7288
18.7081
18.7267
18.8144
19.0343
29.7488
29.4979
29.2511
29.0084
28.7697
28.5349
28.3038
28.0765
27.8527
27.6325
27.4156
27.2022
26.992
26.785
26.5811
26.3802
26.1824
25.9874
25.7954
25.6061
25.4195
25.2356
25.0542
24.8755
24.6992
24.5254
24.354
24.1848
24.018
23.8535
23.6911
23.5309
23.3727
23.2167
23.0626
22.9106
22.7605
22.6122
22.4659
22.3214
22.1787
22.0377
21.8985
21.761
21.6251
21.4909
21.3584
21.2274
21.0981
20.9703
20.8441
20.7195
20.5964
20.4749
20.355
20.2368
20.1202
20.0053
19.8921
19.7809
19.6717
19.5646
19.4598
19.3577
19.2584
19.1625
19.0705
18.9832
18.9016
18.8272
18.7624
18.7109
18.6789
18.6785
18.7341
18.8995
29.7488
29.4979
29.2511
29.0084
28.7697
28.5349
28.3038
28.0765
27.8527
27.6325
27.4156
27.2022
26.9919
26.7849
26.581
26.3802
26.1824
25.9874
25.7953
25.606
25.4194
25.2355
25.0542
24.8754
24.6991
24.5253
24.3538
24.1847
24.0179
23.8533
23.6909
23.5307
23.3725
23.2165
23.0624
22.9103
22.7602
22.6119
22.4655
22.321
22.1782
22.0373
21.898
21.7604
21.6246
21.4903
21.3577
21.2268
21.0974
20.9695
20.8433
20.7186
20.5955
20.474
20.354
20.2357
20.119
20.0041
19.8909
19.7797
19.6704
19.5632
19.4584
19.3561
19.2566
19.1603
19.0676
18.9791
18.8955
18.8178
18.7476
18.6873
18.6409
18.6161
18.6294
18.7185
29.7488
29.4979
29.2511
29.0084
28.7697
28.5349
28.3038
28.0765
27.8527
27.6324
27.4156
27.2021
26.9919
26.7849
26.581
26.3802
26.1823
25.9874
25.7953
25.606
25.4194
25.2354
25.0541
24.8753
24.6991
24.5252
24.3537
24.1846
24.0178
23.8532
23.6908
23.5305
23.3724
23.2163
23.0622
22.9101
22.7599
22.6116
22.4652
22.3206
22.1779
22.0368
21.8975
21.76
21.624
21.4898
21.3571
21.2261
21.0967
20.9688
20.8425
20.7178
20.5946
20.473
20.353
20.2347
20.118
20.003
19.8898
19.7785
19.6691
19.5619
19.457
19.3545
19.2547
19.1579
19.0643
18.9743
18.8884
18.807
18.7309
18.6611
18.5999
18.5514
18.5248
18.5426
29.7488
29.4979
29.2511
29.0084
28.7697
28.5349
28.3038
28.0765
27.8527
27.6324
27.4156
27.2021
26.9919
26.7849
26.581
26.3802
26.1823
25.9874
25.7953
25.6059
25.4193
25.2354
25.0541
24.8753
24.699
24.5251
24.3537
24.1845
24.0177
23.8531
23.6906
23.5304
23.3722
23.2161
23.062
22.9098
22.7596
22.6113
22.4649
22.3203
22.1775
22.0364
21.8971
21.7595
21.6235
21.4892
21.3566
21.2255
21.096
20.9681
20.8418
20.717
20.5938
20.4721
20.3521
20.2337
20.117
20.0019
19.8887
19.7773
19.6679
19.5606
19.4555
19.3528
19.2527
19.1553
19.0608
18.9693
18.881
18.7959
18.7141
18.6356
18.5613
18.4931
18.4363
18.4039
29.7488
29.4979
29.2511
29.0084
28.7697
28.5349
28.3038
28.0765
27.8527
27.6324
27.4156
27.2021
26.9919
26.7849
26.581
26.3802
26.1823
25.9873
25.7952
25.6059
25.4193
25.2353
25.054
24.8752
24.6989
24.525
24.3536
24.1844
24.0176
23.8529
23.6905
23.5302
23.372
23.2159
23.0618
22.9096
22.7594
22.6111
22.4646
22.32
22.1772
22.0361
21.8967
21.7591
21.6231
21.4887
21.356
21.2249
21.0954
20.9674
20.8411
20.7162
20.593
20.4713
20.3512
20.2328
20.116
20.0009
19.8877
19.7762
19.6668
19.5593
19.4541
19.3512
19.2507
19.1527
19.0572
18.9644
18.8739
18.7854
18.6986
18.613
18.5283
18.4455
18.3682
18.3057
29.7488
29.4979
29.2511
29.0084
28.7697
28.5349
28.3038
28.0765
27.8527
27.6324
27.4156
27.2021
26.9919
26.7849
26.581
26.3801
26.1823
25.9873
25.7952
25.6059
25.4193
25.2353
25.054
24.8752
24.6988
24.525
24.3535
24.1843
24.0175
23.8528
23.6904
23.5301
23.3719
23.2157
23.0616
22.9094
22.7592
22.6108
22.4644
22.3197
22.1769
22.0357
21.8964
21.7587
21.6227
21.4883
21.3555
21.2244
21.0948
20.9668
20.8404
20.7156
20.5923
20.4706
20.3505
20.232
20.1151
20
19.8867
19.7752
19.6657
19.5581
19.4528
19.3496
19.2487
19.1502
19.0539
18.9598
18.8673
18.7761
18.6854
18.5943
18.5023
18.4099
18.3202
18.2412
29.7488
29.4979
29.2511
29.0084
28.7697
28.5349
28.3038
28.0765
27.8527
27.6324
27.4156
27.2021
26.9919
26.7849
26.581
26.3801
26.1822
25.9873
25.7952
25.6058
25.4192
25.2353
25.0539
24.8751
24.6988
24.5249
24.3534
24.1842
24.0174
23.8527
23.6903
23.5299
23.3717
23.2156
23.0614
22.9092
22.759
22.6106
22.4641
22.3195
22.1766
22.0354
21.896
21.7583
21.6223
21.4879
21.3551
21.2239
21.0943
20.9663
20.8398
20.7149
20.5916
20.4699
20.3497
20.2312
20.1143
19.9992
19.8858
19.7743
19.6647
19.5571
19.4515
19.3482
19.247
19.1479
19.0509
18.9557
18.8618
18.7684
18.6749
18.5801
18.4835
18.3858
18.29
18.2038
29.7488
29.4979
29.2511
29.0084
28.7697
28.5349
28.3038
28.0765
27.8527
27.6324
27.4156
27.2021
26.9919
26.7849
26.581
26.3801
26.1822
25.9873
25.7951
25.6058
25.4192
25.2352
25.0539
24.8751
24.6987
24.5249
24.3533
24.1842
24.0173
23.8526
23.6902
23.5298
23.3716
23.2154
23.0613
22.9091
22.7588
22.6104
22.4639
22.3192
22.1763
22.0352
21.8957
21.758
21.6219
21.4875
21.3547
21.2235
21.0939
20.9658
20.8393
20.7144
20.591
20.4693
20.3491
20.2305
20.1136
19.9985
19.885
19.7734
19.6638
19.5561
19.4504
19.3469
19.2454
19.146
19.0484
18.9523
18.8573
18.7624
18.667
18.5701
18.4714
18.3717
18.2748
18.1884
29.7488
29.4979
29.2511
29.0084
28.7697
28.5349
28.3038
28.0765
27.8527
27.6324
27.4156
27.2021
26.9919
26.7849
26.581
26.3801
26.1822
25.9873
25.7951
25.6058
25.4192
25.2352
25.0538
24.875
24.6987
24.5248
24.3533
24.1841
24.0172
23.8526
23.6901
23.5297
23.3715
23.2153
23.0611
22.9089
22.7587
22.6103
22.4637
22.319
22.1761
22.0349
21.8955
21.7577
21.6216
21.4872
21.3544
21.2231
21.0935
20.9654
20.8389
20.7139
20.5905
20.4687
20.3485
20.2299
20.113
19.9978
19.8843
19.7727
19.663
19.5552
19.4495
19.3457
19.2441
19.1443
19.0463
18.9496
18.8538
18.7581
18.6617
18.564
18.465
18.3663
18.2723
18.1913
29.7488
29.4979
29.2511
29.0084
28.7697
28.5349
28.3038
28.0765
27.8527
27.6324
27.4156
27.2021
26.9919
26.7849
26.5809
26.3801
26.1822
25.9872
25.7951
25.6058
25.4191
25.2352
25.0538
24.875
24.6987
24.5248
24.3532
24.1841
24.0172
23.8525
23.69
23.5297
23.3714
23.2152
23.061
22.9088
22.7585
22.6101
22.4636
22.3189
22.1759
22.0347
21.8953
21.7575
21.6214
21.4869
21.3541
21.2228
21.0931
20.965
20.8385
20.7135
20.5901
20.4683
20.3481
20.2294
20.1125
19.9973
19.8838
19.7721
19.6623
19.5545
19.4486
19.3448
19.243
19.143
19.0447
18.9476
18.8514
18.7553
18.6586
18.5612
18.4635
18.3679
18.2798
18.209
29.7488
29.4979
29.2511
29.0084
28.7697
28.5349
28.3038
28.0765
27.8527
27.6324
27.4156
27.2021
26.9919
26.7848
26.5809
26.3801
26.1822
25.9872
25.7951
25.6058
25.4191
25.2352
25.0538
24.875
24.6986
24.5247
24.3532
24.184
24.0171
23.8524
23.6899
23.5296
23.3713
23.2151
23.0609
22.9087
22.7584
22.61
22.4635
22.3187
22.1758
22.0346
21.8951
21.7573
21.6212
21.4867
21.3538
21.2226
21.0929
20.9647
20.8382
20.7132
20.5898
20.4679
20.3477
20.229
20.1121
19.9968
19.8833
19.7716
19.6618
19.5539
19.448
19.3441
19.2421
19.142
19.0434
18.9462
18.8497
18.7536
18.6572
18.5607
18.4652
29.7488
29.4979
29.2511
29.0084
28.7697
28.5349
28.3038
28.0765
27.8527
27.6324
27.4156
27.2021
26.9919
26.7848
26.5809
26.3801
26.1822
25.9872
25.7951
25.6057
25.4191
25.2351
25.0538
24.8749
24.6986
24.5247
24.3532
24.184
24.0171
23.8524
23.6899
23.5295
23.3713
23.2151
23.0609
22.9086
22.7583
22.6099
22.4634
22.3186
22.1757
22.0345
21.895
21.7572
21.621
21.4865
21.3537
21.2224
21.0927
20.9645
20.838
20.713
20.5895
20.4677
20.3474
20.2287
20.1118
19.9965
19.8829
19.7712
19.6614
19.5535
19.4475
19.3435
19.2415
19.1413
19.0426
18.9453
18.8488
18.7528
18.6569
29.7488
29.4979
29.2511
29.0084
28.7697
28.5349
28.3038
28.0765
27.8527
27.6324
27.4156
27.2021
26.9919
26.7848
26.5809
26.3801
26.1822
25.9872
25.7951
25.6057
25.4191
25.2351
25.0538
24.8749
24.6986
24.5247
24.3532
24.184
24.0171
23.8524
23.6899
23.5295
23.3712
23.215
23.0608
22.9086
22.7583
22.6099
22.4633
22.3186
22.1756
22.0344
21.8949
21.7571
21.6209
21.4864
21.3535
21.2222
21.0925
20.9644
20.8378
20.7128
20.5893
20.4675
20.3472
20.2285
20.1115
19.9962
19.8827
19.771
19.6611
19.5532
19.4472
19.3432
19.2411
19.1408
19.0421
18.9447
18.8482
18.7523
18.6569
29.7488
29.4979
29.2511
29.0084
28.7697
28.5349
28.3038
28.0765
27.8527
27.6324
27.4156
27.2021
26.9919
26.7848
26.5809
26.3801
26.1822
25.9872
25.7951
25.6057
25.4191
25.2351
25.0538
24.8749
24.6986
24.5247
24.3532
24.184
24.017
23.8524
23.6899
23.5295
23.3712
23.215
23.0608
22.9086
22.7583
22.6098
22.4633
22.3185
22.1756
22.0343
21.8948
21.757
21.6209
21.4864
21.3535
21.2222
21.0925
20.9643
20.8377
20.7127
20.5893
20.4674
20.3471
20.2284
20.1114
19.9961
19.8826
19.7709
19.661
19.553
19.447
19.343
19.2409
19.1406
19.0419
18.9445
18.8481
18.7523
18.6573
29.7488
29.4979
29.2511
29.0084
28.7697
28.5349
28.3038
28.0765
27.8527
27.6324
27.4156
27.2021
26.9919
26.7848
26.5809
26.3801
26.1822
25.9872
25.7951
25.6057
25.4191
25.2351
25.0538
24.8749
24.6986
24.5247
24.3532
24.184
24.017
23.8524
23.6899
23.5295
23.3712
23.215
23.0608
22.9086
22.7583
22.6098
22.4633
22.3185
22.1756
22.0343
21.8948
21.757
21.6209
21.4864
21.3535
21.2222
21.0925
20.9643
20.8377
20.7127
20.5893
20.4674
20.3471
20.2284
20.1114
19.9961
19.8826
19.7709
19.661
19.553
19.447
19.343
19.2409
19.1406
19.0419
18.9445
18.8481
18.7523
18.6573
29.7488
29.4979
29.2511
29.0084
28.7697
28.5349
28.3038
28.0765
27.8527
27.6324
27.4156
27.2021
26.9919
26.7848
26.5809
26.3801
26.1822
25.9872
25.7951
25.6057
25.4191
25.2351
25.0538
24.8749
24.6986
24.5247
24.3532
24.184
24.0171
23.8524
23.6899
23.5295
23.3713
23.215
23.0608
22.9086
22.7583
22.6099
22.4633
22.3186
22.1756
22.0344
21.8949
21.7571
21.6209
21.4864
21.3535
21.2222
21.0925
20.9644
20.8378
20.7128
20.5893
20.4675
20.3472
20.2285
20.1115
19.9963
19.8827
19.771
19.6611
19.5532
19.4472
19.3432
19.2411
19.1408
19.0421
18.9447
29.7488
29.4979
29.2511
29.0084
28.7697
28.5349
28.3038
28.0765
27.8527
27.6324
27.4156
27.2021
26.9919
26.7848
26.5809
26.3801
26.1822
25.9872
25.7951
25.6057
25.4191
25.2351
25.0538
24.8749
24.6986
24.5247
24.3532
24.184
24.0171
23.8524
23.6899
23.5295
23.3713
23.2151
23.0609
22.9086
22.7583
22.6099
22.4634
22.3186
22.1757
22.0345
21.895
21.7572
21.621
21.4865
21.3537
21.2224
21.0927
20.9645
20.838
20.713
20.5895
20.4677
20.3474
20.2288
20.1118
19.9965
19.883
19.7713
19.6614
19.5535
19.4475
19.3436
19.2415
19.1413
19.0427
29.7488
29.4979
29.2511
29.0084
28.7697
28.5349
28.3038
28.0765
27.8527
27.6324
27.4156
27.2021
26.9919
26.7848
26.5809
26.3801
26.1822
25.9872
25.7951
25.6058
25.4191
25.2352
25.0538
24.875
24.6986
24.5247
24.3532
24.184
24.0171
23.8524
23.6899
23.5296
23.3713
23.2151
23.0609
22.9087
22.7584
22.61
22.4635
22.3187
22.1758
22.0346
21.8951
21.7573
21.6212
21.4867
21.3538
21.2226
21.0929
20.9648
20.8382
20.7132
20.5898
20.4679
20.3477
20.2291
20.1121
19.9968
19.8833
19.7716
19.6618
19.5539
19.448
19.3441
19.2421
19.142
19.0435
29.7488
29.4979
29.2511
29.0084
28.7697
28.5349
28.3038
28.0765
27.8527
27.6324
27.4156
27.2021
26.9919
26.7849
26.5809
26.3801
26.1822
25.9872
25.7951
25.6058
25.4191
25.2352
25.0538
24.875
24.6987
24.5248
24.3532
24.1841
24.0172
23.8525
23.69
23.5297
23.3714
23.2152
23.061
22.9088
22.7585
22.6101
22.4636
22.3189
22.1759
22.0347
21.8953
21.7575
21.6214
21.4869
21.3541
21.2228
21.0932
20.9651
20.8385
20.7135
20.5901
20.4683
20.3481
20.2295
20.1125
19.9973
19.8838
19.7721
19.6624
19.5545
19.4487
19.3449
19.243
19.143
19.0447
29.7488
29.4979
29.2511
29.0084
28.7697
28.5349
28.3038
28.0765
27.8527
27.6324
27.4156
27.2021
26.9919
26.7849
26.581
26.3801
26.1822
25.9873
25.7951
25.6058
25.4192
25.2352
25.0538
24.875
24.6987
24.5248
24.3533
24.1841
24.0172
23.8526
23.6901
23.5297
23.3715
23.2153
23.0611
22.9089
22.7587
22.6103
22.4638
22.319
22.1761
22.0349
21.8955
21.7577
21.6217
21.4872
21.3544
21.2231
21.0935
20.9654
20.8389
20.714
20.5906
20.4688
20.3486
20.23
20.1131
19.9978
19.8844
19.7728
19.663
19.5553
19.4495
19.3458
19.2441
19.1444
19.0464
29.7488
29.4979
29.2511
29.0084
28.7697
28.5349
28.3038
28.0765
27.8527
27.6324
27.4156
27.2021
26.9919
26.7849
26.581
26.3801
26.1822
25.9873
25.7951
25.6058
25.4192
25.2352
25.0539
24.8751
24.6987
24.5249
24.3534
24.1842
24.0173
23.8526
23.6902
23.5298
23.3716
23.2154
23.0613
22.9091
22.7588
22.6104
22.4639
22.3192
22.1763
22.0352
21.8958
21.758
21.622
21.4875
21.3547
21.2235
21.0939
20.9658
20.8394
20.7144
20.5911
20.4693
20.3491
20.2306
20.1137
19.9985
19.8851
19.7735
19.6638
19.5561
19.4505
19.3469
19.2455
19.146
29.7488
29.4979
29.2511
29.0084
28.7697
28.5349
28.3038
28.0765
27.8527
27.6324
27.4156
27.2021
26.9919
26.7849
26.581
26.3801
26.1822
25.9873
25.7952
25.6058
25.4192
25.2353
25.0539
24.8751
24.6988
24.5249
24.3534
24.1843
24.0174
23.8527
23.6903
23.53
23.3717
23.2156
23.0614
22.9092
22.759
22.6106
22.4641
22.3195
22.1766
22.0355
21.8961
21.7583
21.6223
21.4879
21.3551
21.2239
21.0943
20.9663
20.8399
20.715
20.5917
20.4699
20.3498
20.2313
20.1144
19.9993
19.8859
19.7744
19.6647
19.5571
19.4516
19.3482
19.2471
29.7488
29.4979
29.2511
29.0084
28.7697
28.5349
28.3038
28.0765
27.8527
27.6324
27.4156
27.2021
26.9919
26.7849
26.581
26.3801
26.1823
25.9873
25.7952
25.6059
25.4193
25.2353
25.054
24.8752
24.6989
24.525
24.3535
24.1843
24.0175
23.8528
23.6904
23.5301
23.3719
23.2157
23.0616
22.9094
22.7592
22.6109
22.4644
22.3197
22.1769
22.0358
21.8964
21.7587
21.6227
21.4883
21.3556
21.2244
21.0949
20.9669
20.8405
20.7156
20.5923
20.4706
20.3505
20.232
20.1152
20.0001
19.8868
19.7753
19.6657
19.5582
19.4529
19.3497
19.2488
29.7488
29.4979
29.2511
29.0084
28.7697
28.5349
28.3038
28.0765
27.8527
27.6324
27.4156
27.2021
26.9919
26.7849
26.581
26.3802
26.1823
25.9873
25.7952
25.6059
25.4193
25.2354
25.054
24.8752
24.6989
24.5251
24.3536
24.1844
24.0176
23.8529
23.6905
23.5302
23.372
23.2159
23.0618
22.9096
22.7594
22.6111
22.4647
22.32
22.1772
22.0361
21.8968
21.7591
21.6231
21.4888
21.3561
21.2249
21.0954
20.9675
20.8411
20.7163
20.593
20.4714
20.3513
20.2329
20.1161
20.001
19.8877
19.7763
19.6668
19.5594