/*--------------------------------*- C++ -*----------------------------------*\
  =========                 |
  \\      /  F ield         | OpenFOAM: The Open Source CFD Toolbox
   \\    /   O peration     | Website:  https://openfoam.org
    \\  /    A nd           | Version:  13
     \\/     M anipulation  |
\*---------------------------------------------------------------------------*/
FoamFile
{
    format      ascii;
    class       volScalarField;
    location    "300";
    object      p;
}
// * * * * * * * * * * * * * * * * * * * * * * * * * * * * * * * * * * * * * //

dimensions      [0 2 -2 0 0 0 0];

internalField   nonuniform List<scalar> 
172290
(
15.1557
15.156
15.1566
15.1577
15.1591
15.1609
15.1631
15.1657
15.1687
15.1721
15.1759
15.18
15.1845
15.1893
15.1945
15.2
15.2058
15.2119
15.2182
15.2248
15.2316
15.2386
15.2457
15.2529
15.2602
15.2675
15.2747
15.2818
15.2887
15.2953
15.3016
15.3074
15.3126
15.3171
15.3207
15.3233
15.3248
15.3249
15.3234
15.3201
15.3147
15.3069
15.2964
15.2829
15.266
15.2453
15.2203
15.1906
15.1556
15.1149
15.0676
15.0133
14.9511
14.8804
14.8002
14.7098
14.6082
14.4944
14.3675
14.2264
14.0701
13.8973
13.7072
13.4985
13.2703
13.0217
12.7517
12.4598
12.1454
11.8082
11.4482
11.0656
10.6609
10.2352
9.78955
9.32576
8.84585
15.1561
15.1563
15.157
15.1581
15.1595
15.1613
15.1635
15.1661
15.1692
15.1726
15.1763
15.1805
15.185
15.1899
15.1951
15.2007
15.2065
15.2126
15.219
15.2257
15.2326
15.2396
15.2468
15.2541
15.2615
15.2689
15.2762
15.2835
15.2905
15.2973
15.3037
15.3097
15.3151
15.3198
15.3237
15.3265
15.3283
15.3286
15.3275
15.3245
15.3194
15.3121
15.302
15.289
15.2726
15.2524
15.228
15.1989
15.1645
15.1244
15.0779
15.0243
14.9629
14.893
14.8136
14.7241
14.6233
14.5104
14.3844
14.2442
14.0886
13.9167
13.7272
13.5192
13.2914
13.043
12.7732
12.481
12.1661
11.8281
11.467
11.0828
10.6762
10.2481
9.79973
9.33284
8.84954
15.1567
15.157
15.1577
15.1588
15.1602
15.1621
15.1643
15.1669
15.17
15.1734
15.1773
15.1815
15.1861
15.191
15.1963
15.202
15.2079
15.2141
15.2207
15.2274
15.2345
15.2417
15.249
15.2565
15.2641
15.2717
15.2793
15.2868
15.2941
15.3012
15.308
15.3143
15.3201
15.3252
15.3296
15.3329
15.3352
15.3362
15.3356
15.3333
15.329
15.3224
15.3132
15.3011
15.2857
15.2665
15.2432
15.2153
15.1822
15.1435
15.0984
15.0463
14.9865
14.9182
14.8405
14.7527
14.6538
14.5427
14.4185
14.2801
14.1263
13.956
13.768
13.5612
13.3345
13.0868
12.8172
12.5249
12.2092
11.8698
11.5065
11.1194
10.709
10.2763
9.82257
9.34956
8.85948
15.1577
15.158
15.1587
15.1598
15.1613
15.1632
15.1654
15.1681
15.1713
15.1748
15.1787
15.183
15.1877
15.1927
15.1981
15.2039
15.21
15.2164
15.2231
15.2301
15.2373
15.2447
15.2524
15.2601
15.268
15.276
15.2839
15.2918
15.2995
15.3071
15.3144
15.3212
15.3276
15.3334
15.3384
15.3425
15.3456
15.3474
15.3478
15.3465
15.3433
15.3379
15.3299
15.3192
15.3052
15.2877
15.266
15.2399
15.2088
15.172
15.1291
15.0792
15.0218
14.956
14.881
14.7958
14.6996
14.5914
14.4699
14.3342
14.1831
14.0153
13.8296
13.6248
13.3997
13.1532
12.8841
12.5916
12.2748
11.9333
11.5668
11.1753
10.7593
10.3196
9.85763
9.37519
8.87468
15.1591
15.1593
15.16
15.1612
15.1627
15.1646
15.167
15.1697
15.1729
15.1765
15.1805
15.185
15.1898
15.195
15.2005
15.2065
15.2128
15.2194
15.2263
15.2336
15.2411
15.2488
15.2568
15.2649
15.2732
15.2816
15.29
15.2984
15.3067
15.3149
15.3228
15.3304
15.3375
15.3441
15.3501
15.3552
15.3593
15.3623
15.3639
15.364
15.3622
15.3584
15.3521
15.3432
15.3312
15.3157
15.2964
15.2726
15.244
15.21
15.1699
15.1231
15.0689
15.0065
14.9349
14.8534
14.7609
14.6563
14.5387
14.4067
14.2593
14.095
13.9125
13.7106
13.4878
13.243
12.9748
12.6821
12.3641
12.02
11.6494
11.2521
10.8285
10.3794
9.90616
9.41082
8.89595
15.1607
15.161
15.1617
15.1629
15.1644
15.1664
15.1688
15.1717
15.175
15.1787
15.1828
15.1874
15.1924
15.1977
15.2035
15.2097
15.2162
15.2231
15.2303
15.2379
15.2457
15.2539
15.2622
15.2708
15.2796
15.2885
15.2975
15.3066
15.3156
15.3245
15.3332
15.3417
15.3498
15.3575
15.3645
15.3709
15.3763
15.3808
15.3839
15.3857
15.3857
15.3838
15.3797
15.3731
15.3635
15.3506
15.3341
15.3133
15.288
15.2573
15.2209
15.1779
15.1277
15.0694
15.0023
14.9253
14.8375
14.7378
14.625
14.4979
14.3552
14.1954
14.0172
13.8191
13.5995
13.357
13.0902
12.7978
12.4784
12.1313
11.7556
11.3511
10.9179
10.4569
9.96927
9.45723
8.92364
15.1626
15.1629
15.1637
15.1649
15.1665
15.1686
15.1711
15.174
15.1774
15.1813
15.1856
15.1903
15.1955
15.201
15.207
15.2135
15.2203
15.2275
15.235
15.243
15.2512
15.2598
15.2687
15.2778
15.2872
15.2968
15.3065
15.3163
15.3261
15.3359
15.3456
15.3552
15.3644
15.3733
15.3817
15.3895
15.3966
15.4027
15.4078
15.4115
15.4137
15.4142
15.4126
15.4086
15.4019
15.3922
15.379
15.3619
15.3404
15.3138
15.2817
15.2434
15.198
15.1449
15.0831
15.0117
14.9297
14.8359
14.7291
14.608
14.4711
14.3171
14.1443
13.9511
13.7358
13.4966
13.2319
12.9401
12.6195
12.2691
11.8876
11.4746
11.03
10.5542
10.0488
9.51585
8.95861
15.1649
15.1652
15.166
15.1672
15.1689
15.171
15.1736
15.1767
15.1802
15.1842
15.1887
15.1936
15.199
15.2048
15.2111
15.2178
15.225
15.2325
15.2405
15.2489
15.2576
15.2667
15.2762
15.2859
15.296
15.3063
15.3168
15.3274
15.3382
15.3491
15.3599
15.3707
15.3813
15.3916
15.4016
15.4111
15.42
15.4281
15.4353
15.4413
15.446
15.4492
15.4505
15.4497
15.4464
15.4404
15.4311
15.4182
15.4011
15.3794
15.3524
15.3194
15.2798
15.2327
15.1773
15.1125
15.0373
14.9506
14.851
14.7372
14.6076
14.4607
14.2946
14.1076
13.8978
13.663
13.4014
13.1109
12.7897
12.4359
12.0482
11.6254
11.1673
10.6741
10.1471
9.58855
9.00204
15.1674
15.1677
15.1685
15.1698
15.1716
15.1738
15.1765
15.1797
15.1834
15.1875
15.1922
15.1974
15.203
15.2091
15.2157
15.2227
15.2303
15.2382
15.2466
15.2555
15.2648
15.2745
15.2846
15.295
15.3058
15.317
15.3284
15.34
15.3519
15.3639
15.376
15.3882
15.4002
15.4122
15.424
15.4354
15.4463
15.4567
15.4663
15.475
15.4825
15.4888
15.4934
15.4962
15.4968
15.4949
15.49
15.4819
15.47
15.4537
15.4326
15.4059
15.3729
15.3328
15.2847
15.2276
15.1605
15.0821
14.991
14.8858
14.765
14.6266
14.4689
14.2897
14.0868
13.858
13.6008
13.3127
12.9915
12.6347
12.2404
11.8071
11.3336
10.8201
10.2674
9.67801
9.05574
15.1702
15.1705
15.1713
15.1727
15.1745
15.1768
15.1797
15.183
15.1869
15.1912
15.1961
15.2015
15.2074
15.2138
15.2207
15.2282
15.2361
15.2445
15.2534
15.2628
15.2727
15.2831
15.2939
15.3051
15.3168
15.3288
15.3412
15.354
15.367
15.3803
15.3938
15.4075
15.4213
15.435
15.4487
15.4623
15.4755
15.4884
15.5007
15.5123
15.5231
15.5327
15.5411
15.5478
15.5527
15.5555
15.5557
15.5529
15.5468
15.5367
15.5222
15.5025
15.477
15.4448
15.4052
15.357
15.2991
15.2303
15.1492
15.0542
14.9437
14.8156
14.6679
14.4983
14.3043
14.0832
13.8321
13.5481
13.2281
12.8691
12.4685
12.0239
11.5335
10.9967
10.4141
9.78787
9.12231
15.1732
15.1735
15.1744
15.1758
15.1777
15.1802
15.1831
15.1866
15.1907
15.1952
15.2003
15.206
15.2122
15.219
15.2262
15.2341
15.2425
15.2514
15.2608
15.2708
15.2814
15.2924
15.304
15.3161
15.3287
15.3417
15.3552
15.3692
15.3835
15.3982
15.4133
15.4286
15.4442
15.46
15.4758
15.4917
15.5074
15.523
15.5383
15.5532
15.5674
15.5808
15.5932
15.6044
15.6141
15.622
15.6277
15.6309
15.6312
15.628
15.6208
15.609
15.5919
15.5687
15.5385
15.5003
15.453
15.3952
15.3256
15.2425
15.144
15.0282
14.8926
14.7348
14.5518
14.3407
14.098
13.82
13.5031
13.1435
12.7373
12.2813
11.7727
11.2099
10.5927
9.92317
9.20558
15.1764
15.1768
15.1777
15.1792
15.1812
15.1838
15.1869
15.1905
15.1947
15.1995
15.2049
15.2109
15.2174
15.2245
15.2322
15.2404
15.2493
15.2587
15.2688
15.2794
15.2907
15.3025
15.3149
15.3279
15.3415
15.3556
15.3703
15.3855
15.4013
15.4175
15.4342
15.4514
15.4689
15.4868
15.505
15.5234
15.5419
15.5605
15.579
15.5973
15.6153
15.6328
15.6497
15.6657
15.6805
15.694
15.7058
15.7155
15.7228
15.7272
15.7281
15.7251
15.7173
15.704
15.6844
15.6575
15.6221
15.5768
15.5203
15.4508
15.3664
15.2648
15.1437
15.0001
14.8309
14.6325
14.4009
14.1319
13.8208
13.4626
13.0526
12.5859
12.0584
11.4672
10.811
10.0908
9.31107
15.1799
15.1803
15.1812
15.1828
15.1849
15.1876
15.1908
15.1947
15.1991
15.2041
15.2098
15.216
15.2229
15.2304
15.2385
15.2472
15.2566
15.2666
15.2773
15.2886
15.3006
15.3132
15.3265
15.3405
15.3551
15.3704
15.3864
15.403
15.4202
15.4381
15.4566
15.4757
15.4953
15.5155
15.5361
15.5572
15.5787
15.6004
15.6224
15.6445
15.6665
15.6885
15.7101
15.7313
15.7518
15.7713
15.7896
15.8065
15.8214
15.834
15.8438
15.8503
15.8527
15.8504
15.8426
15.8281
15.8059
15.7747
15.733
15.6791
15.6108
15.526
15.4219
15.2954
15.143
14.9607
14.7439
14.4874
14.1855
13.8323
13.4211
12.9456
12.3997
11.7785
11.0787
10.3002
9.44676
15.1835
15.1839
15.1849
15.1866
15.1888
15.1916
15.195
15.199
15.2037
15.209
15.2149
15.2215
15.2287
15.2366
15.2451
15.2543
15.2643
15.2749
15.2862
15.2982
15.311
15.3245
15.3388
15.3537
15.3695
15.386
15.4033
15.4214
15.4402
15.4598
15.4802
15.5013
15.5232
15.5458
15.5691
15.593
15.6176
15.6427
15.6684
15.6945
15.7209
15.7475
15.7743
15.8009
15.8274
15.8535
15.8789
15.9033
15.9264
15.9479
15.9673
15.9841
15.9977
16.0074
16.0124
16.0116
16.0042
15.9886
15.9636
15.9272
15.8774
15.8118
15.7276
15.6215
15.4895
15.3273
15.1295
14.8901
14.6024
14.2587
13.8507
13.3699
12.8075
12.1559
11.409
10.5644
9.62413
15.1873
15.1877
15.1888
15.1905
15.1928
15.1958
15.1994
15.2036
15.2085
15.214
15.2202
15.2271
15.2347
15.2431
15.2521
15.2618
15.2723
15.2835
15.2955
15.3083
15.3219
15.3363
15.3516
15.3676
15.3846
15.4024
15.4211
15.4407
15.4612
15.4826
15.505
15.5282
15.5525
15.5776
15.6037
15.6306
15.6585
15.6872
15.7167
15.747
15.778
15.8096
15.8417
15.8743
15.9071
15.9401
15.973
16.0055
16.0375
16.0685
16.0982
16.1261
16.1517
16.1743
16.1932
16.2076
16.2162
16.218
16.2114
16.1947
16.1658
16.1222
16.0611
15.9789
15.8715
15.7339
15.5603
15.3438
15.0763
14.7486
14.3502
13.8696
13.2951
12.6149
11.8189
10.9008
9.85961
15.1913
15.1917
15.1928
15.1946
15.1971
15.2001
15.2039
15.2083
15.2134
15.2193
15.2258
15.233
15.241
15.2498
15.2593
15.2696
15.2806
15.2925
15.3052
15.3188
15.3333
15.3486
15.3649
15.3821
15.4002
15.4194
15.4395
15.4607
15.483
15.5063
15.5307
15.5562
15.5829
15.6107
15.6396
15.6697
15.701
15.7335
15.767
15.8017
15.8375
15.8744
15.9122
15.951
15.9905
16.0307
16.0715
16.1127
16.1539
16.1951
16.2357
16.2755
16.314
16.3505
16.3845
16.4151
16.4413
16.462
16.4757
16.4808
16.4753
16.4568
16.4221
16.3678
16.2895
16.182
16.0387
15.8519
15.6124
15.309
14.9289
14.4573
13.8781
13.1745
12.3304
11.3331
10.1766
15.1953
15.1958
15.197
15.1988
15.2014
15.2046
15.2085
15.2132
15.2185
15.2246
15.2315
15.2391
15.2475
15.2567
15.2667
15.2775
15.2892
15.3018
15.3152
15.3296
15.345
15.3613
15.3786
15.397
15.4164
15.4369
15.4586
15.4814
15.5054
15.5307
15.5572
15.5851
15.6143
15.6448
15.6768
15.7102
15.745
15.7813
15.8191
15.8584
15.8992
15.9415
15.9853
16.0305
16.077
16.1249
16.174
16.2242
16.2752
16.327
16.3793
16.4316
16.4838
16.5351
16.5852
16.6333
16.6784
16.7196
16.7556
16.7848
16.8052
16.8146
16.8099
16.7877
16.7435
16.6718
16.5658
16.417
16.2149
15.9466
15.5966
15.1464
14.5747
13.8578
12.9714
11.8934
10.6093
15.1995
15.2
15.2012
15.2031
15.2058
15.2092
15.2133
15.2181
15.2238
15.2302
15.2373
15.2453
15.2541
15.2638
15.2743
15.2857
15.298
15.3113
15.3255
15.3407
15.3569
15.3742
15.3926
15.4122
15.4329
15.4549
15.4781
15.5026
15.5285
15.5557
15.5845
15.6147
15.6465
15.6799
15.7149
15.7517
15.7902
15.8305
15.8727
15.9168
15.9627
16.0107
16.0606
16.1124
16.1663
16.2221
16.2798
16.3394
16.4007
16.4637
16.528
16.5936
16.6602
16.7273
16.7944
16.8611
16.9265
16.9897
17.0497
17.105
17.1539
17.1942
17.2232
17.2374
17.2326
17.2031
17.1421
17.0405
16.8869
16.667
16.3625
15.9509
15.4047
14.6919
13.7772
12.6261
11.21
15.2037
15.2042
15.2055
15.2075
15.2103
15.2138
15.2181
15.2232
15.2291
15.2358
15.2433
15.2516
15.2609
15.271
15.282
15.294
15.3069
15.3209
15.3359
15.3519
15.3691
15.3874
15.4069
15.4277
15.4497
15.4731
15.4979
15.5241
15.5519
15.5812
15.6122
15.6449
15.6793
15.7156
15.7538
15.794
15.8363
15.8808
15.9274
15.9763
16.0276
16.0813
16.1376
16.1963
16.2577
16.3217
16.3884
16.4577
16.5296
16.6042
16.6812
16.7607
16.8423
16.9258
17.0109
17.0972
17.184
17.2708
17.3565
17.4399
17.5196
17.5938
17.6599
17.7148
17.7546
17.774
17.7661
17.722
17.6297
17.4739
17.2339
16.8834
16.3884
15.7071
14.7916
13.5896
12.0462
15.2079
15.2085
15.2098
15.2119
15.2148
15.2185
15.223
15.2283
15.2344
15.2414
15.2493
15.258
15.2677
15.2782
15.2898
15.3024
15.3159
15.3306
15.3464
15.3633
15.3814
15.4007
15.4213
15.4433
15.4667
15.4916
15.518
15.546
15.5756
15.607
15.6403
15.6754
15.7126
15.7518
15.7933
15.837
15.8831
15.9317
15.9829
16.0368
16.0935
16.1532
16.2159
16.2817
16.3508
16.4232
16.499
16.5784
16.6613
16.7478
16.8379
16.9316
17.0289
17.1295
17.2334
17.3402
17.4496
17.561
17.6739
17.7873
17.9
18.0106
18.1171
18.2168
18.3063
18.3809
18.4345
18.4584
18.4413
18.3671
18.2143
17.9532
17.544
16.9356
16.0653
14.8527
13.2044
15.2122
15.2127
15.2141
15.2164
15.2194
15.2232
15.2279
15.2334
15.2398
15.2471
15.2553
15.2644
15.2745
15.2855
15.2976
15.3108
15.325
15.3404
15.3569
15.3747
15.3937
15.4141
15.4358
15.4591
15.4838
15.5101
15.5381
15.5679
15.5995
15.633
15.6685
15.7062
15.746
15.7883
15.833
15.8802
15.9302
15.983
16.0389
16.0978
16.1601
16.2257
16.295
16.368
16.4449
16.5259
16.6111
16.7007
16.7948
16.8936
16.9971
17.1056
17.2189
17.3372
17.4604
17.5885
17.7213
17.8585
17.9998
18.1446
18.2922
18.4415
18.5911
18.7391
18.8828
19.0186
19.1413
19.2436
19.3153
19.3415
19.3009
19.1629
18.8835
18.4053
17.6467
16.4915
14.7987
15.2164
15.217
15.2185
15.2208
15.2239
15.2279
15.2328
15.2385
15.2451
15.2527
15.2613
15.2708
15.2813
15.2928
15.3054
15.3191
15.334
15.3501
15.3674
15.386
15.406
15.4274
15.4503
15.4748
15.5009
15.5287
15.5583
15.5898
15.6233
15.6589
15.6967
15.7369
15.7795
15.8247
15.8727
15.9235
15.9774
16.0345
16.095
16.159
16.2268
16.2985
16.3744
16.4547
16.5395
16.6292
16.7239
16.8239
16.9294
17.0406
17.1578
17.2812
17.411
17.5474
17.6904
17.8404
17.9972
18.161
18.3317
18.509
18.6928
18.8825
19.0774
19.2765
19.478
19.6796
19.8778
20.0674
20.2403
20.3844
20.4812
20.502
20.405
20.1283
19.5721
18.5876
16.9744
15.2206
15.2212
15.2227
15.2251
15.2284
15.2326
15.2376
15.2435
15.2505
15.2583
15.2672
15.2771
15.288
15.3
15.3131
15.3274
15.343
15.3597
15.3778
15.3973
15.4182
15.4407
15.4647
15.4903
15.5178
15.5471
15.5783
15.6115
15.6469
15.6847
15.7248
15.7674
15.8128
15.861
15.9122
15.9666
16.0244
16.0857
16.1508
16.2199
16.2933
16.3711
16.4537
16.5412
16.634
16.7324
16.8367
16.9471
17.0641
17.1879
17.319
17.4575
17.6039
17.7586
17.9218
18.0939
18.2752
18.4661
18.6667
18.8774
19.0982
19.3294
19.5709
19.8226
20.0841
20.3546
20.6326
20.9155
21.1989
21.475
21.7307
21.944
22.082
22.0855
21.8491
21.2052
15.2247
15.2254
15.2269
15.2294
15.2328
15.2371
15.2423
15.2485
15.2557
15.2638
15.273
15.2833
15.2946
15.3071
15.3207
15.3356
15.3518
15.3692
15.3881
15.4084
15.4303
15.4537
15.4788
15.5057
15.5345
15.5652
15.598
15.633
15.6703
15.7101
15.7524
15.7976
15.8456
15.8968
15.9512
16.0092
16.0708
16.1364
16.2061
16.2803
16.3591
16.443
16.5322
16.627
16.7278
16.8349
16.9487
17.0696
17.1981
17.3345
17.4794
17.6331
17.7963
17.9693
18.1528
18.3472
18.5532
18.7713
19.0021
19.2463
19.5045
19.7774
20.0659
20.3707
20.6927
21.0329
21.3919
21.7703
22.168
22.583
23.0104
23.4398
23.8526
24.2061
24.4151
24.3262
15.2288
15.2294
15.2311
15.2336
15.2371
15.2416
15.247
15.2534
15.2608
15.2692
15.2787
15.2893
15.3011
15.314
15.3282
15.3436
15.3604
15.3785
15.3981
15.4193
15.442
15.4665
15.4927
15.5207
15.5508
15.5829
15.6173
15.654
15.6932
15.735
15.7796
15.8271
15.8778
15.9319
15.9895
16.0509
16.1164
16.1861
16.2604
16.3396
16.4239
16.5138
16.6095
16.7115
16.8201
16.9359
17.0591
17.1905
17.3303
17.4793
17.6379
17.8068
17.9866
18.1779
18.3816
18.5982
18.8287
19.074
19.3348
19.6122
19.9074
20.2217
20.5564
20.9134
21.2947
21.7028
22.1406
22.6118
23.1205
23.6714
24.2686
24.9161
25.6142
26.3501
27.0846
27.7272
15.2327
15.2334
15.235
15.2377
15.2413
15.2459
15.2515
15.2581
15.2657
15.2744
15.2843
15.2952
15.3074
15.3208
15.3354
15.3514
15.3687
15.3876
15.4079
15.4298
15.4535
15.4789
15.5061
15.5354
15.5667
15.6002
15.6361
15.6744
15.7154
15.7592
15.806
15.8559
15.9092
15.9661
16.0269
16.0917
16.1609
16.2347
16.3134
16.3975
16.4872
16.5829
16.685
16.7941
16.9105
17.0347
17.1673
17.3088
17.4599
17.6213
17.7934
17.9772
18.1734
18.3829
18.6064
18.845
19.0997
19.3715
19.6618
19.9718
20.3031
20.6575
21.0369
21.4438
21.8813
22.3531
22.864
23.4201
24.0291
24.7012
25.4487
26.2885
27.239
28.319
29.5432
30.9089
15.2365
15.2371
15.2389
15.2416
15.2454
15.2501
15.2558
15.2626
15.2705
15.2795
15.2896
15.3009
15.3134
15.3272
15.3424
15.3589
15.3768
15.3963
15.4173
15.44
15.4645
15.4908
15.5191
15.5495
15.582
15.6169
15.6542
15.6942
15.7369
15.7827
15.8315
15.8838
15.9396
15.9993
16.063
16.1311
16.2039
16.2817
16.3648
16.4536
16.5485
16.6499
16.7583
16.8742
16.9982
17.1307
17.2724
17.4239
17.586
17.7594
17.9448
18.1432
18.3555
18.5825
18.8255
19.0855
19.3637
19.6615
19.9803
20.3217
20.6877
21.0802
21.5018
21.9554
22.4445
22.9739
23.5492
24.178
24.8702
25.6389
26.5015
27.4814
28.609
29.921
31.4635
33.2895
15.2401
15.2408
15.2425
15.2454
15.2492
15.2541
15.2599
15.2669
15.275
15.2843
15.2947
15.3063
15.3192
15.3334
15.349
15.366
15.3845
15.4046
15.4263
15.4498
15.4751
15.5023
15.5316
15.563
15.5967
15.6329
15.6716
15.7131
15.7576
15.8051
15.856
15.9105
15.9687
16.031
16.0977
16.169
16.2452
16.3268
16.4141
16.5075
16.6074
16.7144
16.8288
16.9514
17.0826
17.2231
17.3736
17.5348
17.7076
17.8926
18.0909
18.3034
18.5312
18.7754
19.0371
19.3177
19.6186
19.9413
20.2874
20.6589
21.0576
21.4859
21.9466
22.4427
22.9781
23.5574
24.1866
24.8735
25.6279
26.4633
27.3969
28.4518
29.6584
31.0528
32.6771
34.5784
15.2435
15.2442
15.246
15.2489
15.2528
15.2578
15.2639
15.271
15.2793
15.2888
15.2995
15.3115
15.3247
15.3393
15.3553
15.3728
15.3919
15.4125
15.4349
15.459
15.4851
15.5132
15.5434
15.5758
15.6106
15.648
15.6881
15.7311
15.7771
15.8265
15.8793
15.9358
15.9964
16.0612
16.1307
16.205
16.2846
16.3698
16.4611
16.5588
16.6636
16.7758
16.8961
17.025
17.1632
17.3114
17.4703
17.6408
17.8237
18.02
18.2306
18.4567
18.6993
18.9599
19.2396
19.5399
19.8624
20.2088
20.5808
20.9804
21.4097
21.8712
22.3675
22.9016
23.4772
24.0986
24.7709
25.5007
26.2963
27.1683
28.1299
29.198
30.3923
31.7337
33.2385
34.9099
15.2466
15.2474
15.2493
15.2522
15.2563
15.2613
15.2675
15.2749
15.2834
15.2931
15.304
15.3163
15.3299
15.3448
15.3613
15.3792
15.3987
15.4199
15.4429
15.4677
15.4945
15.5234
15.5544
15.5879
15.6238
15.6623
15.7037
15.748
15.7956
15.8465
15.9012
15.9597
16.0225
16.0897
16.1617
16.2389
16.3217
16.4103
16.5054
16.6073
16.7166
16.8338
16.9596
17.0945
17.2393
17.3948
17.5617
17.741
17.9336
18.1405
18.3628
18.6017
18.8585
19.1345
19.4313
19.7502
20.0931
20.4617
20.8579
21.2837
21.7413
22.2331
22.7614
23.3291
23.9392
24.595
25.3004
26.0597
26.8782
27.7616
28.7168
29.7504
30.8677
32.0693
33.3415
34.6444
15.2496
15.2504
15.2523
15.2553
15.2594
15.2646
15.2709
15.2784
15.2871
15.2971
15.3082
15.3208
15.3346
15.35
15.3668
15.3851
15.4051
15.4268
15.4503
15.4758
15.5033
15.5329
15.5648
15.5991
15.6359
15.6756
15.7181
15.7637
15.8127
15.8652
15.9216
15.982
16.0467
16.1162
16.1907
16.2706
16.3562
16.4481
16.5467
16.6525
16.7661
16.888
17.0188
17.1594
17.3105
17.4728
17.6472
17.8347
18.0364
18.2532
18.4865
18.7375
19.0075
19.298
19.6107
19.947
20.3089
20.6982
21.1168
21.5667
22.0502
22.5692
23.1262
23.7232
24.3626
25.0463
25.7765
26.5547
27.3823
28.2597
29.1858
30.1567
31.1632
32.187
33.1922
34.1126
15.2523
15.2531
15.255
15.2581
15.2623
15.2676
15.2741
15.2817
15.2906
15.3007
15.3121
15.3249
15.339
15.3546
15.3718
15.3905
15.4109
15.4331
15.4572
15.4832
15.5113
15.5416
15.5742
15.6093
15.6471
15.6877
15.7314
15.7782
15.8285
15.8824
15.9403
16.0024
16.0691
16.1406
16.2173
16.2997
16.388
16.4829
16.5847
16.6941
16.8116
16.9378
17.0735
17.2193
17.3761
17.5447
17.726
17.9212
18.1312
18.3573
18.6008
18.8629
19.1451
19.4491
19.7764
20.1288
20.5082
20.9164
21.3554
21.8274
22.3341
22.8777
23.46
24.0826
24.7468
25.4533
26.2021
26.992
27.8203
28.6819
29.5682
30.4655
31.3527
32.197
32.9477
33.5281
15.2547
15.2555
15.2575
15.2607
15.2649
15.2703
15.2769
15.2846
15.2936
15.3039
15.3156
15.3285
15.343
15.3589
15.3763
15.3954
15.4162
15.4388
15.4633
15.4899
15.5185
15.5494
15.5828
15.6186
15.6572
15.6987
15.7433
15.7913
15.8427
15.898
15.9573
16.0209
16.0893
16.1627
16.2414
16.326
16.4169
16.5144
16.6192
16.7319
16.853
16.9831
17.1231
17.2736
17.4356
17.61
17.7977
17.9998
18.2175
18.452
18.7047
18.9769
19.2703
19.5865
19.9271
20.2941
20.6893
21.1147
21.5722
22.0639
22.5915
23.157
23.7616
24.4064
25.0918
25.8172
26.5805
27.378
28.2031
29.0458
29.891
30.7171
31.4935
32.177
32.7084
33.0073
15.2569
15.2577
15.2597
15.2629
15.2672
15.2727
15.2793
15.2872
15.2964
15.3068
15.3186
15.3318
15.3465
15.3626
15.3803
15.3997
15.4209
15.4439
15.4688
15.4958
15.5249
15.5564
15.5903
15.6269
15.6662
15.7085
15.754
15.8029
15.8554
15.9118
15.9723
16.0374
16.1072
16.1823
16.2629
16.3495
16.4425
16.5425
16.65
16.7655
16.8898
17.0234
17.1673
17.3221
17.4887
17.6682
17.8616
18.0699
18.2944
18.5365
18.7974
19.0787
19.382
19.7091
20.0617
20.4416
20.8509
21.2916
21.7655
22.2746
22.8208
23.4054
24.0296
24.6938
25.3975
26.1389
26.9143
27.7176
28.5392
29.3647
30.1741
30.9394
31.6229
32.1742
32.5287
32.6051
15.2587
15.2595
15.2616
15.2648
15.2692
15.2747
15.2815
15.2895
15.2987
15.3093
15.3213
15.3346
15.3495
15.3658
15.3838
15.4035
15.4249
15.4482
15.4735
15.5009
15.5305
15.5625
15.5969
15.634
15.674
15.717
15.7632
15.8129
15.8663
15.9237
15.9854
16.0517
16.1228
16.1993
16.2815
16.3698
16.4648
16.5669
16.6766
16.7947
16.9218
17.0585
17.2057
17.3642
17.535
17.7189
17.9172
18.131
18.3615
18.61
18.8782
19.1674
19.4795
19.816
20.179
20.5703
20.9918
21.4458
21.9339
22.4583
23.0204
23.6216
24.2627
24.9437
25.6633
26.4187
27.2049
28.0138
28.8334
29.6464
30.4285
31.1473
31.7597
32.2102
32.4299
32.3367
15.2602
15.2611
15.2631
15.2664
15.2708
15.2764
15.2832
15.2913
15.3007
15.3114
15.3235
15.337
15.352
15.3685
15.3867
15.4066
15.4283
15.4519
15.4775
15.5052
15.5352
15.5675
15.6024
15.64
15.6805
15.7241
15.771
15.8214
15.8756
15.9338
15.9964
16.0637
16.136
16.2137
16.2972
16.387
16.4836
16.5874
16.6991
16.8194
16.9488
17.0881
17.2381
17.3998
17.5739
17.7617
17.9642
18.1825
18.4181
18.6722
18.9464
19.2424
19.5618
19.9064
20.2781
20.6789
21.1109
21.576
22.0762
22.6134
23.189
23.8043
24.4597
25.1549
25.8881
26.6558
27.4518
28.2668
29.0869
29.8925
30.6568
31.3439
31.9067
32.2861
32.4095
32.1923
15.2615
15.2623
15.2644
15.2677
15.2721
15.2778
15.2846
15.2928
15.3022
15.313
15.3252
15.3388
15.354
15.3707
15.389
15.4091
15.431
15.4548
15.4806
15.5086
15.5389
15.5716
15.6068
15.6448
15.6857
15.7298
15.7772
15.8281
15.883
15.9419
16.0052
16.0733
16.1465
16.2252
16.3098
16.4008
16.4987
16.6039
16.7172
16.8392
16.9705
17.1119
17.2643
17.4284
17.6054
17.7962
18.0021
18.2241
18.4638
18.7224
19.0016
19.3029
19.6283
19.9794
20.3582
20.7668
21.2071
21.6813
22.1913
22.7388
23.3254
23.9521
24.6192
25.3261
26.0706
26.8486
27.6535
28.4748
29.2975
30.1005
30.8552
31.5234
32.0555
15.2623
15.2632
15.2653
15.2686
15.2731
15.2787
15.2857
15.2939
15.3034
15.3142
15.3265
15.3402
15.3554
15.3722
15.3907
15.4109
15.433
15.4569
15.483
15.5111
15.5416
15.5746
15.6101
15.6484
15.6896
15.734
15.7818
15.8332
15.8885
15.9479
16.0118
16.0805
16.1544
16.2338
16.3193
16.4111
16.51
16.6164
16.7308
16.8541
16.9868
17.1298
17.2839
17.45
17.6291
17.8223
18.0306
18.2555
18.4982
18.7603
19.0432
19.3486
19.6784
20.0345
20.4187
20.8331
21.2798
21.7608
22.2781
22.8335
23.4284
24.0637
24.7397
25.4556
26.2089
26.9953
27.8075
28.6346
29.4608
30.2644
31.0153
15.2629
15.2637
15.2658
15.2691
15.2736
15.2794
15.2863
15.2945
15.3041
15.315
15.3273
15.3411
15.3564
15.3732
15.3918
15.4121
15.4342
15.4583
15.4845
15.5128
15.5434
15.5765
15.6122
15.6507
15.6922
15.7368
15.7848
15.8365
15.8921
15.9519
16.0162
16.0853
16.1596
16.2395
16.3255
16.418
16.5175
16.6246
16.7399
16.864
16.9977
17.1417
17.297
17.4643
17.6448
17.8395
18.0496
18.2764
18.5212
18.7855
19.0709
19.3791
19.7119
20.0712
20.459
20.8773
21.3283
21.8139
22.3361
22.8967
23.4972
24.1383
24.8204
25.5423
26.3017
27.0938
27.9113
28.7429
29.5725
30.3777
31.128
15.2631
15.2639
15.266
15.2693
15.2739
15.2796
15.2865
15.2948
15.3043
15.3153
15.3276
15.3414
15.3567
15.3737
15.3922
15.4126
15.4348
15.4589
15.4851
15.5135
15.5442
15.5774
15.6132
15.6517
15.6933
15.7381
15.7862
15.838
15.8938
15.9537
16.0182
16.0875
16.162
16.2422
16.3285
16.4212
16.5211
16.6285
16.7442
16.8687
17.0029
17.1475
17.3033
17.4713
17.6525
17.848
18.0589
18.2866
18.5324
18.7978
19.0844
19.394
19.7282
20.0892
20.4787
20.899
21.352
21.8399
22.3645
22.9277
23.5308
24.1748
24.8597
25.5846
26.3469
27.1418
27.9619
28.7957
29.6269
30.433
31.1832
15.2629
15.2637
15.2658
15.2692
15.2737
15.2794
15.2864
15.2946
15.3042
15.3151
15.3274
15.3412
15.3566
15.3735
15.3921
15.4124
15.4346
15.4587
15.4849
15.5133
15.544
15.5772
15.6129
15.6515
15.6931
15.7378
15.786
15.8378
15.8935
15.9535
16.0179
16.0872
16.1617
16.2419
16.3281
16.4209
16.5207
16.6281
16.7438
16.8684
17.0025
17.1471
17.3029
17.4709
17.652
17.8475
18.0584
18.286
18.5318
18.7972
19.0838
19.3934
19.7276
20.0885
20.4781
20.8983
21.3513
21.8391
22.3637
22.9268
23.5299
24.1739
24.8588
25.5836
26.3458
27.1407
27.9607
28.7944
29.6255
30.4315
31.1815
15.2624
15.2633
15.2653
15.2687
15.2732
15.2789
15.2858
15.294
15.3036
15.3145
15.3268
15.3406
15.3558
15.3727
15.3913
15.4115
15.4337
15.4578
15.4839
15.5122
15.5428
15.5759
15.6116
15.65
15.6915
15.7361
15.7841
15.8358
15.8913
15.9511
16.0153
16.0844
16.1587
16.2386
16.3245
16.417
16.5164
16.6235
16.7387
16.8628
16.9965
17.1405
17.2957
17.463
17.6435
17.8381
18.0481
18.2748
18.5196
18.7838
19.0691
19.3773
19.71
20.0692
20.4569
20.8752
21.326
21.8116
22.3337
22.8942
23.4945
24.1356
24.8175
25.5393
26.2985
27.0905
27.9078
28.7391
15.2616
15.2624
15.2645
15.2678
15.2723
15.278
15.2849
15.2931
15.3026
15.3134
15.3257
15.3394
15.3546
15.3714
15.3898
15.41
15.432
15.456
15.482
15.5102
15.5406
15.5735
15.609
15.6473
15.6885
15.7328
15.7806
15.8319
15.8872
15.9466
16.0104
16.0791
16.1529
16.2323
16.3177
16.4095
16.5083
16.6146
16.729
16.8522
16.9849
17.1278
17.2818
17.4478
17.6268
17.8199
18.0282
18.2529
18.4955
18.7575
19.0403
19.3456
19.6753
20.0312
20.4153
20.8295
21.2761
21.757
22.2741
22.8293
23.424
24.0591
24.7349
25.4506
26.2036
26.9897
27.8015
15.2604
15.2612
15.2633
15.2666
15.2711
15.2767
15.2836
15.2917
15.3011
15.3119
15.3241
15.3377
15.3528
15.3695
15.3878
15.4078
15.4297
15.4535
15.4793
15.5072
15.5374
15.5701
15.6053
15.6432
15.6841
15.7281
15.7755
15.8264
15.8811
15.94
16.0033
16.0713
16.1444
16.223
16.3076
16.3985
16.4963
16.6015
16.7147
16.8365
16.9677
17.109
17.2613
17.4253
17.6022
17.7929
17.9986
18.2205
18.46
18.7185
18.9975
19.2987
19.6239
19.9748
20.3534
20.7618
21.202
21.6759
22.1857
22.7329
23.3193
23.9457
24.6125
25.3191
26.0632
26.8409
27.6452
15.2589
15.2597
15.2618
15.265
15.2695
15.275
15.2819
15.2899
15.2993
15.3099
15.322
15.3355
15.3504
15.367
15.3851
15.405
15.4266
15.4502
15.4757
15.5034
15.5333
15.5656
15.6005
15.638
15.6784
15.722
15.7688
15.8191
15.8732
15.9314
15.9939
16.0611
16.1333
16.2109
16.2943
16.384
16.4805
16.5842
16.6958
16.8159
16.9452
17.0844
17.2343
17.3958
17.5698
17.7574
17.9597
18.1779
18.4132
18.6672
18.9412
19.237
19.5561
19.9005
20.272
20.6726
21.1043
21.5691
22.069
22.6059
23.1812
23.7961
24.4512
25.146
25.8787
26.6458
27.4412
15.2571
15.2579
15.2599
15.2631
15.2675
15.273
15.2798
15.2877
15.297
15.3075
15.3195
15.3328
15.3476
15.3639
15.3819
15.4015
15.4229
15.4462
15.4714
15.4987
15.5283
15.5601
15.5945
15.6316
15.6715
15.7144
15.7605
15.8102
15.8635
15.9208
15.9824
16.0485
16.1196
16.1959
16.278
16.3662
16.461
16.563
16.6726
16.7905
16.9174
17.054
17.201
17.3594
17.5299
17.7137
17.9118
18.1253
18.3556
18.6039
18.8718
19.1608
19.4726
19.8089
20.1715
20.5625
20.9838
21.4373
21.9252
22.4491
23.0109
23.6117
24.2524
24.9328
25.6519
26.4067
27.1921
15.2549
15.2557
15.2577
15.2609
15.2652
15.2707
15.2773
15.2852
15.2943
15.3047
15.3165
15.3297
15.3443
15.3604
15.3781
15.3974
15.4185
15.4414
15.4663
15.4932
15.5223
15.5537
15.5876
15.624
15.6633
15.7055
15.7508
15.7996
15.852
15.9083
15.9687
16.0337
16.1034
16.1783
16.2588
16.3452
16.4381
16.5379
16.6452
16.7606
16.8846
17.0181
17.1617
17.3163
17.4828
17.6621
17.8552
18.0632
18.2875
18.5293
18.7899
19.0709
19.374
19.7007
20.0529
20.4325
20.8415
21.2817
21.7552
22.2639
22.8096
23.3938
24.0174
24.6811
25.3842
26.1249
15.2525
15.2533
15.2553
15.2584
15.2627
15.268
15.2746
15.2823
15.2913
15.3016
15.3131
15.3261
15.3405
15.3563
15.3737
15.3927
15.4135
15.436
15.4605
15.4869
15.5155
15.5463
15.5796
15.6153
15.6538
15.6952
15.7397
15.7875
15.8388
15.894
15.9531
16.0167
16.0849
16.1581
16.2367
16.3211
16.4118
16.5091
16.6138
16.7262
16.8471
16.977
17.1167
17.2671
17.4288
17.6029
17.7903
17.9922
18.2095
18.4437
18.6961
18.968
19.261
19.5768
19.9171
20.2836
20.6784
21.1033
21.5604
22.0516
22.5788
23.1437
23.7477
24.392
25.0767
15.2498
15.2506
15.2525
15.2556
15.2598
15.265
15.2715
15.2791
15.2879
15.298
15.3094
15.3221
15.3362
15.3517
15.3688
15.3875
15.4079
15.43
15.4539
15.4799
15.5079
15.5381
15.5706
15.6056
15.6433
15.6838
15.7273
15.774
15.8241
15.8779
15.9356
15.9976
16.0641
16.1354
16.212
16.2941
16.3823
16.4769
16.5786
16.6877
16.805
16.9309
17.0663
17.2119
17.3684
17.5367
17.7177
17.9126
18.1223
18.348
18.5911
18.8528
19.1347
19.4382
19.7651
20.117
20.4959
20.9036
21.3422
21.8135
22.3198
22.8628
23.4445
24.0664
24.7299
15.2468
15.2476
15.2495
15.2525
15.2566
15.2618
15.2681
15.2755
15.2842
15.2941
15.3052
15.3177
15.3315
15.3467
15.3635
15.3817
15.4017
15.4233
15.4467
15.4721
15.4994
15.529
15.5607
15.5949
15.6317
15.6712
15.7135
15.759
15.8079
15.8602
15.9164
15.9766
16.0412
16.1105
16.1847
16.2644
16.3498
16.4415
16.5398
16.6454
16.7587
16.8803
17.0109
17.1512
17.3019
17.4639
17.638
17.8251
18.0264
18.2429
18.4757
18.7263
18.9959
19.2859
19.5981
19.9339
20.2953
20.684
21.102
21.5514
22.0343
22.5527
23.109
23.7054
24.344
15.2436
15.2443
15.2462
15.2491
15.2531