/*--------------------------------*- C++ -*----------------------------------*\
  =========                 |
  \\      /  F ield         | OpenFOAM: The Open Source CFD Toolbox
   \\    /   O peration     | Website:  https://openfoam.org
    \\  /    A nd           | Version:  13
     \\/     M anipulation  |
\*---------------------------------------------------------------------------*/
FoamFile
{
    format      ascii;
    class       volScalarField;
    location    "900";
    object      k;
}
// * * * * * * * * * * * * * * * * * * * * * * * * * * * * * * * * * * * * * //

dimensions      [0 2 -2 0 0 0 0];

internalField   nonuniform List<scalar> 
171634
(
0.343713
0.341877
0.340065
0.338274
0.336503
0.334749
0.333011
0.331286
0.329574
0.327875
0.326189
0.324515
0.322855
0.321209
0.319577
0.317961
0.316361
0.314778
0.313212
0.311665
0.310135
0.308624
0.343733
0.341899
0.34009
0.338302
0.336534
0.334782
0.333046
0.331322
0.329612
0.327914
0.326227
0.324554
0.322893
0.321246
0.319614
0.317996
0.316395
0.314811
0.313244
0.311695
0.310165
0.308653
0.343781
0.341953
0.34015
0.338369
0.336605
0.334858
0.333125
0.331405
0.329697
0.328
0.326314
0.32464
0.322978
0.32133
0.319695
0.318076
0.316472
0.314886
0.313316
0.311765
0.310233
0.30872
0.343853
0.342035
0.340242
0.338469
0.336713
0.334973
0.333246
0.331531
0.329826
0.328131
0.326446
0.324771
0.323108
0.321457
0.31982
0.318198
0.316591
0.315001
0.313428
0.311874
0.310339
0.308824
0.343958
0.342154
0.340373
0.338613
0.33687
0.33514
0.333422
0.331713
0.330013
0.328321
0.326638
0.324963
0.323298
0.321645
0.320004
0.318377
0.316765
0.315171
0.313594
0.312036
0.310497
0.308979
0.344099
0.342313
0.340551
0.338809
0.337082
0.335367
0.333661
0.331963
0.33027
0.328583
0.326902
0.325227
0.323561
0.321904
0.320258
0.318626
0.31701
0.315409
0.313827
0.312265
0.310722
0.3092
0.344284
0.342523
0.340787
0.339069
0.337364
0.33567
0.333982
0.332297
0.330616
0.328936
0.327259
0.325586
0.323918
0.322258
0.320608
0.318971
0.317348
0.315741
0.314153
0.312585
0.311038
0.309512
0.344524
0.342798
0.341095
0.33941
0.337737
0.336071
0.334408
0.332744
0.331078
0.32941
0.32774
0.326071
0.324403
0.322741
0.321086
0.319443
0.317814
0.316201
0.314607
0.313033
0.311481
0.309952
0.344834
0.343154
0.341498
0.339859
0.33823
0.336604
0.334975
0.333341
0.331699
0.330049
0.328392
0.326729
0.325064
0.323401
0.321744
0.320095
0.31846
0.316841
0.315242
0.313663
0.312107
0.310576
0.345235
0.343618
0.342027
0.340452
0.338884
0.337314
0.335737
0.334146
0.33254
0.330918
0.329281
0.327632
0.325975
0.324315
0.322657
0.321006
0.319366
0.317743
0.316139
0.314556
0.312998
0.311465
0.345755
0.344225
0.342724
0.34124
0.33976
0.338273
0.336771
0.335245
0.333693
0.332115
0.330511
0.328886
0.327244
0.325594
0.32394
0.32229
0.320649
0.319024
0.317418
0.315834
0.314276
0.312745
0.346433
0.345025
0.343653
0.3423
0.340949
0.339585
0.338194
0.336767
0.335299
0.333789
0.332239
0.330654
0.329041
0.327409
0.325767
0.324123
0.322485
0.320861
0.319256
0.317675
0.316119
0.314593
0.347323
0.34609
0.344905
0.343745
0.342587
0.341408
0.340188
0.338912
0.337574
0.33617
0.334704
0.333183
0.331617
0.330016
0.328394
0.326762
0.325131
0.323511
0.32191
0.320331
0.31878
0.31726
0.348502
0.347522
0.346613
0.345745
0.34488
0.343984
0.343024
0.341979
0.340837
0.339594
0.338255
0.336828
0.335328
0.333771
0.332175
0.330557
0.328932
0.327313
0.32571
0.324131
0.322582
0.321065
0.350074
0.349466
0.34897
0.348538
0.348113
0.347639
0.347067
0.346362
0.345503
0.344488
0.343322
0.34202
0.340602
0.339092
0.337516
0.3359
0.334266
0.332632
0.331012
0.329417
0.327853
0.326326
0.352173
0.352096
0.352181
0.352356
0.35254
0.352647
0.352609
0.35237
0.351898
0.351187
0.350244
0.349092
0.347762
0.346288
0.344711
0.343069
0.341393
0.339711
0.338043
0.336401
0.334795
0.33323
0.354899
0.355457
0.356169
0.356989
0.357846
0.358662
0.359356
0.359787
0.359866
0.35959
0.358963
0.358015
0.356792
0.355351
0.353752
0.352052
0.350298
0.34853
0.346776
0.345054
0.343377
0.341752
0.357949
0.35906
0.360431
0.362001
0.363668
0.365307
0.366788
0.368009
0.368905
0.369358
0.369256
0.368636
0.367576
0.366177
0.36454
0.36276
0.360911
0.359048
0.357207
0.355413
0.35368
0.352019
0.361189
0.363049
0.365336
0.367984
0.370849
0.37372
0.376361
0.378584
0.38029
0.381443
0.382034
0.381815
0.380925
0.37954
0.377835
0.375956
0.374011
0.372074
0.370193
0.368397
0.366704
0.365126
0.394625
0.392843
0.391062
0.389365
0.387798
0.386389
0.385153
0.3841
0.41732
0.41638
0.415628
0.415116
0.414859
0.414848
0.415058
0.415455
0.352592
0.351107
0.350393
0.350786
0.356543
0.354612
0.352915
0.351743
0.351528
0.35227
0.353814
0.356597
0.354745
0.353198
0.352292
0.352488
0.353498
0.355355
0.356641
0.354838
0.35338
0.352626
0.352978
0.354145
0.356187
0.359016
0.356641
0.354837
0.353379
0.352625
0.352978
0.354144
0.356186
0.359014
0.362606
0.360581
0.358569
0.356596
0.354744
0.353197
0.352291
0.352489
0.353499
0.355356
0.357981
0.364656
0.362615
0.360583
0.358554
0.356542
0.35461
0.352913
0.351743
0.351529
0.352273
0.353818
0.356103
0.364672
0.36263
0.360593
0.358545
0.356487
0.354463
0.352589
0.351105
0.350393
0.350789
0.351941
0.353822
0.3647
0.362663
0.360627
0.358569
0.356477
0.354371
0.352337
0.350564
0.349384
0.349235
0.350024
0.351549
0.364744
0.36272
0.360696
0.358644
0.356542
0.35439
0.352245
0.35026
0.348727
0.348082
0.348586
0.34986
0.351847
0.366836
0.364807
0.362807
0.360812
0.358791
0.356715
0.35457
0.352391
0.350306
0.348583
0.347668
0.348018
0.349198
0.351193
0.368952
0.366892
0.364889
0.362926
0.360981
0.359021
0.357017
0.354947
0.352833
0.350787
0.349074
0.348164
0.348543
0.349835
0.352068
0.368996
0.366959
0.36499
0.363078
0.361204
0.359342
0.357464
0.355552
0.353624
0.351791
0.350333
0.349768
0.350402
0.35208
0.354903
0.369045
0.367034
0.365107
0.363258
0.361478
0.359751
0.35806
0.356402
0.35481
0.353414
0.35254
0.352731
0.353912
0.356401
0.360375
0.365982
0.372961
0.381053
0.389943
0.369094
0.367112
0.365232
0.363457
0.361789
0.360232
0.358791
0.357493
0.356412
0.35573
0.355817
0.356721
0.358967
0.36316
0.369681
0.378958
0.388751
0.391409
0.401377
0.36914
0.367187
0.365355
0.363658
0.362116
0.360755
0.359616
0.358776
0.358373
0.358545
0.359372
0.361355
0.365362
0.372956
0.384664
0.388723
0.402416
0.420407
0.440948
0.461743
0.369178
0.367252
0.365465
0.363844
0.362427
0.361269
0.360456
0.360125
0.360345
0.361126
0.362822
0.366095
0.372335
0.384199
0.389591
0.412076
0.449733
0.500349
0.526952
0.552002
0.570124
0.369205
0.367299
0.365549
0.363993
0.362686
0.361712
0.361201
0.36132
0.361931
0.363269
0.365749
0.370163
0.378154
0.392558
0.400769
0.438496
0.518391
0.597958
0.741815
0.803309
0.814311
0.841054
0.369217
0.367322
0.365596
0.364084
0.362857
0.362019
0.361733
0.362062
0.362966
0.364699
0.367697
0.372747
0.381361
0.395729
0.405507
0.443809
0.5184
0.606989
0.828119
1.15338
1.09883
1.42226
0.369211
0.367318
0.365599
0.364107
0.362917
0.362147
0.361974
0.362405
0.363443
0.365335
0.368476
0.373532
0.381671
0.394771
0.414163
0.428641
0.478204
0.538945
0.615478
0.726887
0.854183
0.968677
1.10094
1.08729
1.10547
0.369188
0.367286
0.365559
0.364058
0.362861
0.362085
0.361904
0.362338
0.363361
0.365187
0.368136
0.3727
0.379636
0.390125
0.404961
0.423667
0.43963
0.481751
0.526457
0.572503
0.611191
0.623997
0.617118
0.610688
0.557174
0.555666
0.555616
0.554233
0.546195
0.533022
0.516302
0.497615
0.478313
0.459411
0.441594
0.42447
0.40889
0.39517
0.383431
0.373758
0.365874
0.359462
0.36915
0.367229
0.365478
0.363945
0.362701
0.361855
0.361564
0.361917
0.362806
0.3644
0.366935
0.370746
0.376299
0.384251
0.395262
0.409093
0.424663
0.435542
0.464398
0.491106
0.510895
0.521755
0.525678
0.504523
0.503901
0.50529
0.507427
0.509113
0.510208
0.510284
0.509143
0.506119
0.500897
0.493676
0.484765
0.47447
0.463163
0.451219
0.438986
0.426778
0.414847
0.403406
0.392723
0.369099
0.367153
0.365366
0.363782
0.362463
0.361502
0.361032
0.361223
0.361902
0.363173
0.365199
0.368196
0.372438
0.378272
0.386068
0.395834
0.406701
0.417532
0.427806
0.436724
0.443398
0.447623
0.449789
0.450475
0.450682
0.451318
0.452368
0.453782
0.455464
0.457321
0.459224
0.461005
0.462426
0.463294
0.463515
0.463042
0.461868
0.460024
0.457556
0.454514
0.450922
0.446759
0.441933
0.371136
0.36904
0.367063
0.365232
0.363586
0.362175
0.361075
0.360391
0.360264
0.360709
0.361635
0.363151
0.365388
0.368499
0.372651
0.377993
0.384516
0.391786
0.398993
0.405628
0.411237
0.415491
0.418308
0.419827
0.4202
0.419594
0.418643
0.417662
0.416796
0.41612
0.415679
0.415487
0.415526
0.415758
0.416143
0.416648
0.417258
0.417979
0.418842
0.419902
0.421224
0.422837
0.424521
0.426195
0.371096
0.368976
0.366965
0.365088
0.363374
0.361866
0.36062
0.359717
0.359262
0.35937
0.359953
0.360989
0.362557
0.364733
0.367586
0.371153
0.375382
0.380055
0.38479
0.389171
0.392862
0.395675
0.397567
0.398591
0.398655
0.397833
0.396473
0.394834
0.393091
0.39136
0.38972
0.388218
0.386878
0.385714
0.38473
0.383935
0.383345
0.382984
0.382898
0.383151
0.383829
0.385028
0.386816
0.389187
0.371056
0.368911
0.366866
0.364941
0.36316
0.361555
0.36017
0.359061
0.358303
0.357989
0.358198
0.35881
0.35981
0.361232
0.363097
0.36539
0.368048
0.370928
0.373819
0.376483
0.378732
0.380454
0.381616
0.382187
0.381942
0.381032
0.379638
0.377933
0.376063
0.374135
0.372223
0.370373
0.368614
0.366962
0.365428
0.364022
0.362757
0.361654
0.360741
0.36006
0.359668
0.359634
0.360031
0.360921
0.371016
0.368847
0.36677
0.3648
0.362955
0.36126
0.359747
0.358456
0.357438
0.356753
0.35647
0.356631
0.357169
0.357996
0.359112
0.36049
0.362067
0.363745
0.365397
0.366892
0.368127
0.369031
0.36948
0.369363
0.368724
0.367647
0.366233
0.364587
0.362803
0.360955
0.359098
0.357266
0.355485
0.353769
0.352127
0.350568
0.349099
0.347732
0.346483
0.345373
0.344431
0.343693
0.3432
0.342994
0.37098
0.368788
0.36668
0.364667
0.362764
0.360989
0.359365
0.357919
0.356684
0.355699
0.355005
0.354643
0.354628
0.354951
0.355512
0.35623
0.357055
0.357921
0.358745
0.359447
0.359886
0.359968
0.359687
0.35905
0.358089
0.356852
0.355399
0.35379
0.352083
0.350328
0.348559
0.346806
0.345087
0.343415
0.341798
0.34024
0.338747
0.337325
0.335982
0.334729
0.33358
0.332556
0.331669
0.330938
0.370947
0.368734
0.366598
0.364547
0.362593
0.360748
0.359029
0.357455
0.356045
0.354823
0.353814
0.353037
0.352507
0.352221
0.352151
0.352243
0.352425
0.352616
0.35273
0.352698
0.352463
0.351991
0.351276
0.350327
0.349167
0.347827
0.346345
0.34476
0.34311
0.34143
0.339745
0.338075
0.336433
0.334828
0.333266
0.331752
0.330288
0.328877
0.327525
0.326236
0.325017
0.323876
0.322821
0.321859
0.370918
0.368687
0.366526
0.364441
0.362442
0.360538
0.35874
0.35706
0.355511
0.354107
0.352859
0.351778
0.350866
0.350118
0.349516
0.349026
0.3486
0.348181
0.347713
0.347145
0.346442
0.345585
0.344568
0.343398
0.342091
0.340668
0.339152
0.337572
0.335951
0.334313
0.332677
0.331056
0.32946
0.327897
0.32637
0.324884
0.323441
0.322042
0.320691
0.319389
0.31814
0.316948
0.315815
0.314744
0.370893
0.368646
0.366463
0.364349
0.362312
0.360358
0.358494
0.356729
0.355071
0.353526
0.352101
0.350797
0.349614
0.348542
0.347567
0.346663
0.345799
0.34494
0.344047
0.343091
0.342049
0.340908
0.339665
0.338324
0.336895
0.335392
0.333832
0.332233
0.330612
0.328985
0.327365
0.325761
0.324183
0.322634
0.321118
0.319639
0.318197
0.316795
0.315432
0.314112
0.312835
0.311603
0.310416
0.309276
0.370873
0.368611
0.366409
0.364271
0.362202
0.360206
0.358288
0.356455
0.35471
0.353058
0.351499
0.350034
0.348657
0.347361
0.346131
0.344949
0.343794
0.34264
0.341464
0.340246
0.338973
0.337636
0.336233
0.334767
0.333246
0.331678
0.330076
0.328453
0.32682
0.325189
0.323569
0.321967
0.320389
0.31884
0.317321
0.315836
0.314385
0.312969
0.31159
0.310247
0.308941
0.307673
0.306442
0.305249
0.370857
0.368583
0.366364
0.364205
0.362109
0.360078
0.358118
0.35623
0.354417
0.352682
0.351022
0.349438
0.347922
0.346468
0.345063
0.343694
0.342344
0.340997
0.339635
0.338247
0.336823
0.335356
0.333847
0.332298
0.330713
0.329101
0.327469
0.325827
0.324183
0.322546
0.320923
0.319318
0.317738
0.316184
0.31466
0.313166
0.311703
0.310274
0.308876
0.307512
0.306181
0.304882
0.303616
0.30238
0.370845
0.36856
0.366328
0.364151
0.362032
0.359973
0.357977
0.356046
0.35418
0.35238
0.350645
0.348972
0.347355
0.345788
0.34426
0.342762
0.341281
0.339804
0.33832
0.336819
0.335296
0.333746
0.332169
0.330567
0.328943
0.327303
0.325653
0.324
0.322351
0.320712
0.319088
0.317483
0.315901
0.314345
0.312816
0.311316
0.309845
0.308404
0.306993
0.305612
0.30426
0.302937
0.301643
0.300375
0.370835
0.368541
0.366298
0.364106
0.361969
0.359887
0.357863
0.355897
0.353989
0.35214
0.350346
0.348606
0.346915
0.345266
0.343651
0.342063
0.34049
0.338925
0.337358
0.335783
0.334194
0.33259
0.33097
0.329334
0.327687
0.326031
0.324373
0.322717
0.321067
0.31943
0.317808
0.316206
0.314625
0.313069
0.311539
0.310036
0.308559
0.307111
0.30569
0.304297
0.30293
0.301589
0.300273
0.298981
0.370829
0.368527
0.366274
0.36407
0.361917
0.359817
0.35777
0.355776
0.353836
0.351948
0.35011
0.34832
0.346573
0.344864
0.343186
0.341532
0.339896
0.338269
0.336645
0.335018
0.333387
0.331747
0.330099
0.328443
0.326782
0.32512
0.323459
0.321803
0.320157
0.318524
0.316907
0.315309
0.313733
0.312179
0.31065
0.309146
0.307667
0.306215
0.304787
0.303385
0.302007
0.300653
0.299321
0.298011
0.370824
0.368516
0.366255
0.364041
0.361876
0.35976
0.357695
0.355679
0.353713
0.351795
0.349923
0.348095
0.346306
0.344553
0.342829
0.341128
0.339445
0.337774
0.33611
0.334449
0.332787
0.331124
0.329458
0.32779
0.326122
0.324457
0.322797
0.321144
0.319503
0.317876
0.316265
0.314673
0.313102
0.311553
0.310026
0.308523
0.307044
0.305589
0.304158
0.30275
0.301364
0.3
0.298656
0.297331
0.370821
0.368508
0.36624
0.364018
0.361843
0.359715
0.357635
0.355602
0.353615
0.351674
0.349776
0.347919
0.346099
0.344312
0.342553
0.340819
0.339102
0.3374
0.335707
0.334021
0.332339
0.33066
0.328982
0.327307
0.325636
0.323971
0.322313
0.320665
0.31903
0.317409
0.315805
0.314219
0.312653
0.311108
0.309585
0.308084
0.306606
0.30515
0.303716
0.302304
0.300912
0.29954
0.298187
0.296851
0.370819
0.368501
0.366228
0.364
0.361817
0.359679
0.357587
0.355541
0.353538
0.351579
0.349661
0.347782
0.345938
0.344126
0.342342
0.340582
0.338841
0.337116
0.335403
0.333699
0.332003
0.330312
0.328628
0.326948
0.325276
0.323612
0.321957
0.320314
0.318684
0.317069
0.315471
0.313892
0.312331
0.310791
0.309271
0.307772
0.306295
0.304839
0.303404
0.301989
0.300593
0.299215
0.297854
0.29651
0.370818
0.368497
0.366219
0.363986
0.361796
0.359651
0.35755
0.355493
0.353479
0.351506
0.349573
0.347677
0.345815
0.343985
0.342182
0.340404
0.338645
0.336903
0.335176
0.333459
0.331753
0.330055
0.328365
0.326683
0.325011
0.323348
0.321697
0.320058
0.318433
0.316824
0.315231
0.313657
0.312101
0.310564
0.309048
0.307552
0.306076
0.30462
0.303183
0.301766
0.300367
0.298985
0.297619
0.296268
0.370817
0.368494
0.366213
0.363976
0.361781
0.359631
0.357523
0.355458
0.353434
0.351451
0.349507
0.347599
0.345724
0.34388
0.342064
0.340272
0.3385
0.336747
0.335008
0.333283
0.33157
0.329867
0.328174
0.326491
0.324818
0.323157
0.321508
0.319873
0.318253
0.316648
0.31506
0.313489
0.311937
0.310404
0.308891
0.307396
0.305922
0.304466
0.303029
0.30161
0.300209
0.298824
0.297454
0.296097
0.370817
0.368492
0.366209
0.363969
0.361771
0.359616
0.357504
0.355433
0.353403
0.351413
0.349461
0.347544
0.345661
0.343807
0.341982
0.34018
0.3384
0.336638
0.334893
0.333162
0.331444
0.329737
0.328042
0.326358
0.324686
0.323026
0.32138
0.319747
0.31813
0.316528
0.314944
0.313376
0.311827
0.310297
0.308785
0.307293
0.305819
0.304363
0.302926
0.301506
0.300103
0.298715
0.297342
0.295983
0.370818
0.368491
0.366207
0.363965
0.361765
0.359607
0.357491
0.355417
0.353383
0.351388
0.34943
0.347508
0.345618
0.343759
0.341927
0.34012
0.338334
0.336567
0.334817
0.333082
0.331361
0.329652
0.327956
0.326271
0.3246
0.322941
0.321296
0.319665
0.31805
0.316451
0.314868
0.313303
0.311756
0.310228
0.308718
0.307226
0.305753
0.304298
0.302861
0.30144
0.300036
0.298647
0.297272
0.29591
0.370819
0.368492
0.366207
0.363964
0.361763
0.359605
0.357487
0.355411
0.353375
0.351378
0.349418
0.347494
0.345601
0.343739
0.341904
0.340094
0.338305
0.336536
0.334784
0.333047
0.331324
0.329614
0.327917
0.326233
0.324561
0.322903
0.321258
0.319629
0.318014
0.316416
0.314835
0.313271
0.311725
0.310197
0.308688
0.307197
0.305724
0.30427
0.302832
0.301412
0.300007
0.298618
0.297242
0.295879
0.343705
0.341868
0.340056
0.338266
0.336495
0.334741
0.333002
0.331278
0.329566
0.327868
0.326182
0.324509
0.322849
0.321204
0.319573
0.317957
0.316358
0.314775
0.31321
0.311663
0.310134
0.308623
0.343725
0.341891
0.340081
0.338293
0.336525
0.334773
0.333037
0.331314
0.329603
0.327906
0.32622
0.324547
0.322887
0.321241
0.319609
0.317992
0.316392
0.314808
0.313242
0.311693
0.310163
0.308652
0.343773
0.341945
0.340142
0.33836
0.336596
0.334849
0.333116
0.331396
0.329688
0.327992
0.326307
0.324633
0.322972
0.321324
0.319691
0.318072
0.316469
0.314883
0.313315
0.311764
0.310232
0.308719
0.343846
0.342028
0.340233
0.33846
0.336705
0.334965
0.333238
0.331522
0.329818
0.328123
0.326439
0.324765
0.323103
0.321453
0.319816
0.318194
0.316588
0.314999
0.313427
0.311874
0.31034
0.308825
0.343951
0.342146
0.340366
0.338605
0.336861
0.335132
0.333414
0.331705
0.330006
0.328314
0.326631
0.324957
0.323293
0.321641
0.320001
0.318375
0.316764
0.31517
0.313595
0.312038
0.3105
0.308982
0.344093
0.342307
0.340544
0.338801
0.337074
0.335359
0.333653
0.331955
0.330263
0.328576
0.326896
0.325222
0.323556
0.3219
0.320256
0.318625
0.317009
0.31541
0.313829
0.312268
0.310726
0.309205
0.344278
0.342517
0.34078
0.339061
0.337356
0.335662
0.333973
0.332289
0.330608
0.328928
0.327252
0.32558
0.323913
0.322254
0.320605
0.318969
0.317347
0.315742
0.314155
0.312588
0.311042
0.309518
0.344518
0.342791
0.341087
0.339401
0.337728
0.336061
0.334397
0.332733
0.331067
0.3294
0.32773
0.326061
0.324395
0.322733
0.32108
0.319438
0.31781
0.316199
0.314606
0.313034
0.311484
0.309957
0.344826
0.343145
0.341488
0.339848
0.338217
0.336589
0.33496
0.333325
0.331683
0.330033
0.328376
0.326714
0.32505
0.323388
0.321732
0.320085
0.318451
0.316834
0.315236
0.313659
0.312105
0.310576
0.345225
0.343606
0.342013
0.340436
0.338866
0.337294
0.335715
0.334123
0.332516
0.330893
0.329255
0.327607
0.32595
0.324292
0.322635
0.320985
0.319348
0.317727
0.316124
0.314544
0.312988
0.311458
0.345742
0.344209
0.342705
0.341218
0.339734
0.338244
0.336738
0.33521
0.333656
0.332076
0.330471
0.328846
0.327206
0.325556
0.323904
0.322256
0.320618
0.318995
0.317391
0.315811
0.314255
0.312727
0.346416
0.345004
0.343628
0.34227
0.340913
0.339544
0.338147
0.336716
0.335244
0.333731
0.332179
0.330593
0.328981
0.327351
0.325711
0.32407
0.322436
0.320815
0.319214
0.317637
0.316086
0.314563
0.347302
0.346064
0.344872
0.343704
0.342538
0.34135
0.34012
0.338836
0.337491
0.336083
0.334615
0.333093
0.331528
0.32993
0.328312
0.326685
0.32506
0.323446
0.321851
0.320279
0.318735
0.317222
0.348477
0.34749
0.346573
0.345693
0.344815
0.343903
0.342928
0.34187
0.340717
0.339467
0.338124
0.336698
0.335202
0.333652
0.332064
0.330455
0.32884
0.327233
0.325642
0.324075
0.322537
0.321032
0.350049
0.349433
0.348925
0.348477
0.348032
0.347534
0.346938
0.346211
0.345337
0.344312
0.343144
0.341847
0.340439
0.338944
0.337386
0.335789
0.334176
0.332564
0.330966
0.329393
0.327851
0.326344
0.352156
0.352073
0.352146
0.352302
0.352458
0.352533
0.35246
0.352189
0.351693
0.35097
0.35003
0.348894
0.34759
0.346149
0.34461
0.343007
0.341373
0.339732
0.338104
0.336503
0.334935
0.333409
0.35491
0.35547
0.356182
0.356994
0.357833
0.35862
0.359275
0.359644
0.359681
0.359387
0.35877
0.357858
0.356692
0.355319
0.353793
0.35217
0.350494
0.348802
0.347122
0.34547
0.343861
0.3423
0.358013
0.359144
0.360532
0.362109
0.363764
0.365364
0.366786
0.367945
0.368788
0.369206
0.369126
0.368588
0.367651
0.366395
0.364909
0.363279
0.361573
0.359843
0.358125
0.356443
0.354813
0.353247
0.361349
0.363269
0.365627
0.368336
0.371217
0.374031
0.376558
0.378647
0.38024
0.381328
0.381937
0.381895
0.381267
0.380185
0.378823
0.377272
0.375608
0.373892
0.372181
0.370529
0.368955
0.367473
0.396596
0.395323
0.393921
0.392474
0.391029
0.389672
0.388431
0.387324
0.420247
0.419804
0.419243
0.418648
0.418121
0.417731
0.417474
0.41735
0.353357
0.352189
0.351912
0.352648
0.356974
0.355229
0.353806
0.353034
0.353356
0.354507
0.356599
0.357063
0.355421
0.354187
0.353736
0.354334
0.355841
0.358372
0.357126
0.355545
0.354422
0.354155
0.354899
0.356596
0.359367
0.363169
0.357125
0.355545
0.354422
0.354154
0.354898
0.356595
0.359365
0.363166
0.362762
0.360805
0.358892
0.357062
0.35542
0.354186
0.353736
0.354335
0.355842
0.358373
0.361882
0.36476
0.362763
0.360795
0.358857
0.356974
0.355229
0.353806
0.353035
0.353358
0.354511
0.356606
0.3596
0.364769
0.362769
0.360789
0.358821
0.356875
0.355007
0.353355
0.352188
0.351915
0.352656
0.354245
0.356664
0.36479
0.36279
0.360804
0.358814
0.356815
0.354835
0.352969
0.351427
0.350564
0.350818
0.351902
0.353788
0.364825
0.362834
0.360854
0.35886
0.356833
0.354777
0.352755
0.350924
0.349592
0.349208
0.349911
0.351421
0.353681
0.366887
0.364878
0.362907
0.36095
0.358978
0.356962
0.354891
0.352799
0.350813
0.349207
0.348437
0.348906
0.350229
0.352398
0.368984
0.366937
0.364952
0.363014
0.361102
0.359184
0.35723
0.355219
0.353172
0.351197
0.349563
0.348752
0.349219
0.350623
0.353002
0.369025
0.366999
0.365046
0.363155
0.36131
0.359486
0.357655
0.355797
0.353934
0.35218
0.350828
0.350422
0.351193
0.353062
0.356146
0.369069
0.367068
0.365155
0.363326
0.361573
0.359882
0.35824
0.356644
0.35514
0.353878
0.353222
0.353622
0.355145
0.358147
0.362849
0.369167
0.376679
0.385522
0.396242
0.369115
0.367142
0.365274
0.363516
0.361875
0.360356
0.358971
0.357758
0.356816
0.356376
0.356706
0.358056
0.361108
0.36676
0.375198
0.378138
0.386706
0.397807
0.410929
0.369158
0.367213
0.365391
0.363712
0.362196
0.360876
0.359806
0.359084
0.35889
0.359274
0.360513
0.363303
0.369035
0.379462
0.383486
0.399292
0.422779
0.448574
0.467872
0.48494
0.369194
0.367273
0.365496
0.363892
0.362501
0.36139
0.360659
0.360478
0.360852
0.361928
0.364212
0.368743
0.378084
0.395119
0.405608
0.44818
0.493297
0.575425
0.646846
0.692927
0.369218
0.367317
0.365575
0.364034
0.362754
0.361829
0.361408
0.361625
0.362415
0.364101
0.36729
0.373342
0.38445
0.39204
0.42366
0.513648
0.636195
0.737359
0.369227
0.367337
0.365618
0.36412
0.362918
0.362127
0.361933
0.362355
0.363433
0.365509
0.369206
0.375805
0.387275
0.395111
0.429326
0.482737
0.644378
0.36922
0.36733
0.365618
0.364136
0.362969
0.362241
0.362152
0.362666
0.363857
0.366044
0.36977
0.376033
0.386919
0.40446
0.418952
0.477523
0.550976
0.785019
1.01672
0.887039
0.369195
0.367296
0.365573
0.364081
0.362902
0.36216
0.362048
0.36255
0.363695
0.365746
0.369122
0.374522
0.383239
0.39688
0.416541
0.434841
0.490612
0.557283
0.615458
0.653294
0.651272
0.613676
0.58377
0.542357
0.531538
0.508585
0.506505
0.504961
0.504
0.500953
0.49589
0.489472
0.482119
0.474268
0.466321
0.458586
0.451352
0.444889
0.439505
0.435528
0.433498
0.434435
0.369156
0.367237
0.365489
0.363962
0.362731
0.361911
0.361669
0.362073
0.363051
0.3648
0.367615
0.37194
0.37848
0.388272
0.401783
0.418213
0.431198
0.464822
0.494277
0.512945
0.519076
0.5144
0.506492
0.500103
0.486916
0.486705
0.486686
0.48639
0.486188
0.48568
0.484637
0.483008
0.48086
0.478349
0.47568
0.472589
0.469113
0.465402
0.461632
0.457867
0.453951
0.450882
0.449405
0.369104
0.367158
0.365373
0.363793
0.362483
0.361539
0.361103
0.361347
0.362082
0.363449
0.36564
0.368923
0.373671
0.380395
0.38948
0.400231
0.411426
0.422887
0.43323
0.441215
0.446411
0.449196
0.450402
0.451141
0.451721
0.452221
0.452721
0.453232
0.453784
0.454502
0.455248
0.455939
0.456503
0.456823
0.456919
0.456824
0.456594
0.456311
0.456076
0.45599
0.455965
0.456006
0.456156
0.37114
0.369043
0.367067
0.365237
0.363593
0.362188
0.361098
0.360434
0.360343
0.360823
0.361807
0.363415
0.365803
0.369159
0.373705
0.379612
0.386627
0.393949
0.401057
0.407426
0.41259
0.41633
0.41871
0.419987
0.420487
0.420719
0.420602
0.420284
0.419815
0.419251
0.418678
0.418224
0.417894
0.417686
0.417584
0.417586
0.4177
0.417954
0.4184
0.419113
0.420187
0.421712
0.423565
0.425774
0.3711
0.368979
0.366969
0.365091
0.363378
0.361872
0.360632
0.359739
0.359304
0.359445
0.360058
0.361142
0.362783
0.36507
0.368085
0.371867
0.376303
0.381048
0.385689
0.389845
0.393251
0.395799
0.397512
0.398483
0.398807
0.398437
0.397687
0.396632
0.395357
0.393964
0.392525
0.391127
0.389829
0.38865
0.387602
0.386699
0.385958
0.385404
0.385077
0.385031
0.385342
0.3861
0.387377
0.389242
0.371059
0.368913
0.366869
0.364944
0.363162
0.361558
0.360175
0.35907
0.358322
0.358024
0.358257
0.358893
0.359925
0.361394
0.363318
0.365683
0.368403
0.371299
0.374135
0.376684
0.378801
0.380408
0.381505
0.382107
0.382026
0.381361
0.38025
0.378845
0.37726
0.375573
0.373854
0.372167
0.370542
0.368999
0.367552
0.366209
0.364985
0.363895
0.362964
0.362225
0.361724
0.361518
0.36167
0.362242
0.371019
0.36885
0.366772
0.364801
0.362956
0.361261
0.359748
0.358458
0.357442
0.356764
0.356491
0.356667
0.357217
0.358061
0.359196
0.360591
0.362175
0.36384
0.365453
0.366889
0.368061
0.368912
0.369323
0.369228
0.368666
0.367706
0.36643
0.364928
0.363285
0.36157
0.359835
0.358116
0.356438
0.354815
0.353259
0.351776
0.350376
0.349066
0.34786
0.346776
0.345837
0.345073
0.344516
0.344203
0.370983
0.368791
0.366682
0.364668
0.362765
0.360989
0.359364
0.357917
0.356682
0.355698
0.355006
0.354647
0.354636
0.354962
0.355526
0.356242
0.35706
0.357906
0.3587
0.359364
0.359739
0.359778
0.359478
0.35885
0.357923
0.356741
0.355353
0.353814
0.35218
0.350496
0.348799
0.347116
0.345464
0.343855
0.342297
0.340796
0.339355
0.337981
0.33668
0.335461
0.334335
0.333318
0.332423
0.331669
0.37095
0.368737
0.3666
0.364548
0.362593
0.360747
0.359027
0.357451
0.35604
0.354817
0.353806
0.353027
0.352495
0.352205
0.352127
0.352207
0.35237
0.352533
0.352614
0.352546
0.352277
0.351781
0.351054
0.350107
0.348962
0.347646
0.346196
0.344647
0.343036
0.341395
0.339749
0.338118
0.336514
0.334946
0.333419
0.331939
0.330507
0.329127
0.327802
0.326538
0.325339
0.324214
0.323167
0.322208
0.370921
0.36869
0.366528
0.364443
0.362443
0.360537
0.358738
0.357056
0.355505
0.354099
0.352849
0.351764
0.350847
0.350093
0.349483
0.34898
0.348538
0.348098
0.347606
0.347013
0.346289
0.345414
0.344387
0.343215
0.341912
0.340499
0.338997
0.337433
0.335831
0.334214
0.332598
0.330998
0.329423
0.32788
0.326374
0.324907
0.323483
0.322102
0.320766
0.31948
0.318244
0.317062
0.315938
0.314873
0.370897
0.368649
0.366465
0.364351
0.362313
0.360357
0.358492
0.356726
0.355065
0.353518
0.35209
0.350783
0.349595
0.348518
0.347535
0.346622
0.345747
0.344873
0.343965
0.342993
0.341937
0.340785
0.339534
0.33819
0.336761
0.335262
0.333708
0.332116
0.330504
0.328887
0.327278
0.325686
0.324119
0.322581
0.321077
0.319608
0.318177
0.316785
0.315432
0.314121
0.312852
0.311627
0.310446
0.30931
0.370877
0.368614
0.366412
0.364273
0.362203
0.360206
0.358287
0.356453
0.354706
0.353051
0.35149
0.350021
0.348641
0.34734
0.346105
0.344916
0.343753
0.34259
0.341404
0.340178
0.338896
0.337552
0.336144
0.334675
0.333153
0.331586
0.329987
0.328367
0.326739
0.325113
0.323499
0.321904
0.320332
0.318789
0.317278
0.315799
0.314354
0.312944
0.31157
0.310233
0.308932
0.307669
0.306442
0.305252
0.370861
0.368586
0.366367
0.364207
0.36211
0.360079
0.358117
0.356228
0.354414
0.352676
0.351015
0.349428
0.347909
0.346451
0.345043
0.343669
0.342314
0.34096
0.339593
0.3382
0.33677
0.3353
0.333787
0.332236
0.330651
0.329039
0.327408
0.325768
0.324127
0.322494
0.320874
0.319273
0.317697
0.316147
0.314627
0.313137
0.311679
0.310253
0.308859
0.307499
0.306171
0.304875
0.303612
0.302379
0.370848
0.368563
0.36633
0.364153
0.362034
0.359974
0.357978
0.356045
0.354178
0.352377
0.35064
0.348964
0.347345
0.345775
0.344245
0.342743
0.341259
0.339778
0.33829
0.336787
0.335261
0.333708
0.33213
0.330526
0.328902
0.327263
0.325614
0.323963
0.322315
0.320678
0.319057
0.317455
0.315876
0.314322
0.312796
0.311299
0.309831
0.308392
0.306984
0.305605
0.304256
0.302936
0.301644
0.300378
0.370839
0.368545
0.366301
0.364109
0.361971
0.359889
0.357863
0.355896
0.353988
0.352137
0.350342
0.348601
0.346908
0.345257
0.34364
0.342049
0.340474
0.338906
0.337337
0.33576
0.33417
0.332565
0.330944
0.329308
0.327661
0.326006
0.324349
0.322694
0.321046
0.31941
0.31779
0.31619
0.314612
0.313058
0.31153
0.310029
0.308555
0.307109
0.30569
0.304298
0.302934
0.301595
0.300281
0.29899
0.370832
0.36853
0.366277
0.364073
0.36192
0.359819
0.357771
0.355776
0.353835
0.351946
0.350107
0.348316
0.346567
0.344857
0.343177
0.341522
0.339884
0.338256
0.33663
0.335003
0.33337
0.33173
0.330082
0.328427
0.326766
0.325104
0.323444
0.32179
0.320145
0.318514
0.316899
0.315303
0.313728
0.312176
0.310649
0.309147
0.30767
0.306219
0.304793
0.303393
0.302017
0.300664
0.299334
0.298024
0.370827
0.368519
0.366258
0.364044
0.361878
0.359762
0.357696
0.355679
0.353712
0.351794
0.349921
0.348092
0.346302
0.344547
0.342822
0.34112
0.339436
0.337765
0.3361
0.334438
0.332776
0.331113
0.329447
0.32778
0.326113
0.324448
0.322789
0.321138
0.319498
0.317872
0.316263
0.314673
0.313103
0.311555
0.31003
0.308528
0.307051
0.305597
0.304167
0.302761
0.301376
0.300013
0.29867
0.297346
0.370824
0.36851
0.366242
0.36402
0.361844
0.359716
0.357635
0.355602
0.353615
0.351673
0.349774
0.347916
0.346095
0.344307
0.342548
0.340812
0.339095
0.337392
0.335699
0.334013
0.332331
0.330651
0.328974
0.3273
0.32563
0.323965
0.322308
0.320661
0.319027
0.317408
0.315805
0.31422
0.312656
0.311112
0.30959
0.308091
0.306614
0.305159
0.303726
0.302315
0.300925
0.299554
0.298201
0.296866
0.370821
0.368503
0.366229
0.364001
0.361817
0.359679
0.357587
0.35554
0.353537
0.351577
0.349658
0.347778
0.345934
0.344121
0.342336
0.340576
0.338834
0.337109
0.335396
0.333692
0.331995
0.330305
0.328621
0.326942
0.32527
0.323607
0.321953
0.320311
0.318682
0.317069
0.315472
0.313893
0.312334
0.310795
0.309276
0.307779
0.306302