/*--------------------------------*- C++ -*----------------------------------*\
  =========                 |
  \\      /  F ield         | OpenFOAM: The Open Source CFD Toolbox
   \\    /   O peration     | Website:  https://openfoam.org
    \\  /    A nd           | Version:  13
     \\/     M anipulation  |
\*---------------------------------------------------------------------------*/
FoamFile
{
    format      ascii;
    class       volScalarField;
    location    "900";
    object      nut;
}
// * * * * * * * * * * * * * * * * * * * * * * * * * * * * * * * * * * * * * //

dimensions      [0 2 -1 0 0 0 0];

internalField   nonuniform List<scalar> 
171634
(
0.0190298
0.019016
0.0190023
0.0189887
0.0189752
0.0189616
0.018948
0.0189343
0.0189205
0.0189066
0.0188927
0.0188786
0.0188644
0.0188503
0.0188361
0.0188219
0.0188078
0.0187937
0.0187797
0.0187658
0.018752
0.0187384
0.0190304
0.0190167
0.0190031
0.0189896
0.0189762
0.0189627
0.0189491
0.0189354
0.0189217
0.0189078
0.0188938
0.0188798
0.0188656
0.0188514
0.0188372
0.018823
0.0188089
0.0187948
0.0187808
0.0187669
0.0187531
0.0187394
0.0190319
0.0190184
0.0190049
0.0189916
0.0189782
0.0189649
0.0189514
0.0189379
0.0189242
0.0189103
0.0188964
0.0188823
0.0188681
0.0188539
0.0188397
0.0188254
0.0188112
0.0187971
0.018783
0.0187691
0.0187552
0.0187415
0.0190341
0.0190208
0.0190077
0.0189945
0.0189814
0.0189682
0.018955
0.0189415
0.0189279
0.0189142
0.0189003
0.0188862
0.018872
0.0188578
0.0188435
0.0188292
0.0188149
0.0188007
0.0187865
0.0187725
0.0187586
0.0187449
0.0190373
0.0190244
0.0190115
0.0189988
0.018986
0.0189731
0.01896
0.0189468
0.0189334
0.0189197
0.0189058
0.0188918
0.0188776
0.0188633
0.0188489
0.0188345
0.0188202
0.0188059
0.0187917
0.0187776
0.0187636
0.0187499
0.0190415
0.0190291
0.0190167
0.0190044
0.0189921
0.0189796
0.0189669
0.0189539
0.0189407
0.0189272
0.0189135
0.0188995
0.0188853
0.0188709
0.0188565
0.018842
0.0188275
0.0188131
0.0187988
0.0187846
0.0187706
0.0187568
0.019047
0.0190352
0.0190235
0.0190119
0.0190001
0.0189882
0.018976
0.0189634
0.0189505
0.0189373
0.0189237
0.0189097
0.0188956
0.0188812
0.0188667
0.0188521
0.0188375
0.018823
0.0188086
0.0187944
0.0187803
0.0187665
0.0190539
0.019043
0.0190323
0.0190215
0.0190106
0.0189994
0.0189879
0.0189759
0.0189635
0.0189506
0.0189372
0.0189235
0.0189094
0.018895
0.0188805
0.0188658
0.0188512
0.0188366
0.0188221
0.0188078
0.0187937
0.0187798
0.0190628
0.0190531
0.0190436
0.019034
0.0190243
0.0190142
0.0190036
0.0189925
0.0189807
0.0189684
0.0189554
0.0189419
0.018928
0.0189137
0.0188992
0.0188846
0.0188699
0.0188552
0.0188407
0.0188264
0.0188123
0.0187986
0.0190741
0.019066
0.0190582
0.0190503
0.0190422
0.0190336
0.0190245
0.0190145
0.0190038
0.0189923
0.01898
0.018967
0.0189534
0.0189394
0.018925
0.0189104
0.0188958
0.0188812
0.0188668
0.0188525
0.0188386
0.018825
0.0190885
0.0190827
0.0190772
0.0190717
0.019066
0.0190596
0.0190525
0.0190444
0.0190352
0.019025
0.0190137
0.0190015
0.0189886
0.018975
0.0189609
0.0189466
0.0189322
0.0189178
0.0189036
0.0188896
0.0188759
0.0188626
0.0191071
0.0191045
0.0191023
0.0191003
0.0190979
0.0190948
0.0190907
0.0190853
0.0190785
0.0190702
0.0190606
0.0190498
0.0190378
0.019025
0.0190116
0.0189978
0.0189838
0.0189699
0.018956
0.0189424
0.0189292
0.0189164
0.0191312
0.019133
0.0191357
0.0191387
0.0191414
0.0191432
0.0191436
0.0191423
0.0191391
0.0191339
0.0191268
0.0191179
0.0191076
0.019096
0.0190835
0.0190705
0.0190571
0.0190437
0.0190304
0.0190173
0.0190047
0.0189925
0.0191626
0.019171
0.0191808
0.0191913
0.0192015
0.0192105
0.0192177
0.0192224
0.0192243
0.0192234
0.0192198
0.0192136
0.0192053
0.0191952
0.0191838
0.0191716
0.0191588
0.0191458
0.0191329
0.0191204
0.0191082
0.0190965
0.0192041
0.0192219
0.0192419
0.0192631
0.0192839
0.019303
0.0193192
0.0193316
0.0193399
0.0193441
0.0193443
0.0193409
0.0193345
0.0193255
0.0193147
0.0193025
0.0192897
0.0192765
0.0192633
0.0192504
0.019238
0.0192261
0.0192585
0.0192888
0.0193216
0.0193551
0.0193871
0.0194161
0.0194409
0.0194605
0.0194743
0.0194825
0.0194854
0.0194835
0.0194775
0.0194682
0.0194565
0.019443
0.0194286
0.0194137
0.0193988
0.0193841
0.0193699
0.0193561
0.0193256
0.0187757
0.018024
0.0176348
0.0176458
0.0180903
0.0189929
0.0195469
0.0195632
0.019573
0.0195766
0.0195746
0.0195678
0.0195569
0.0195431
0.0195272
0.0195099
0.019492
0.0194739
0.0194558
0.019438
0.0194205
0.0170045
0.0158324
0.0149841
0.0144862
0.0143761
0.0146855
0.0154299
0.0166015
0.0182063
0.0194895
0.0194941
0.0194924
0.0194852
0.0194734
0.0194581
0.0194401
0.0194204
0.0193996
0.0193781
0.0193561
0.0193337
0.0193111
0.0144136
0.0131848
0.0122648
0.0116756
0.0114542
0.01164
0.0122893
0.0133793
0.0148687
0.0167761
0.0191045
0.0191009
0.019093
0.0190807
0.0190647
0.0190454
0.0190235
0.0189995
0.0189735
0.0189455
0.0189154
0.0188828
0.0181503
0.0181332
0.0181108
0.0180823
0.0180466
0.0180022
0.0179471
0.0178788
0.0164622
0.0164391
0.0163945
0.0163211
0.0162116
0.0160595
0.0158598
0.0156101
0.0191894
0.0191918
0.0192129
0.018453
0.0192085
0.0192005
0.019198
0.0192082
0.0192412
0.0163713
0.0130608
0.0192103
0.0192042
0.0192055
0.0192222
0.0192646
0.0150396
0.0121032
0.0192116
0.0192067
0.0192101
0.0192305
0.0185593
0.0143929
0.0116217
0.00992645
0.0192115
0.0192067
0.0192101
0.0192305
0.0185592
0.0143933
0.0116232
0.00992925
0.0192381
0.0192285
0.019219
0.0192102
0.0192042
0.0192054
0.0192221
0.0192646
0.0150391
0.0121055
0.0103011
0.0192478
0.019238
0.0192282
0.0192182
0.0192085
0.0192004
0.0191979
0.0192081
0.0192412
0.0163672
0.0130616
0.0110196
0.0192477
0.0192378
0.0192279
0.0192174
0.0192065
0.0191962
0.0191893
0.0191917
0.0192128
0.018443
0.0144904
0.0120063
0.0192477
0.0192379
0.0192279
0.0192172
0.0192054
0.0191931
0.0191822
0.0191775
0.0191871
0.0192212
0.0161656
0.0130505
0.019248
0.0192385
0.0192287
0.0192181
0.019206
0.0191925
0.0191789
0.0191689
0.0191698
0.0191922
0.0177078
0.0138494
0.0115022
0.019258
0.0192485
0.0192395
0.0192304
0.0192205
0.019209
0.0191956
0.0191812
0.0191688
0.0191651
0.019181
0.0185507
0.0141055
0.0114077
0.0192684
0.0192584
0.0192494
0.0192412
0.0192333
0.0192248
0.019215
0.0192035
0.0191907
0.0191794
0.0191761
0.0191924
0.0181821
0.0136304
0.0108451
0.0192684
0.0192588
0.0192507
0.0192436
0.0192373
0.0192311
0.0192243
0.0192167
0.0192086
0.0192027
0.0192061
0.0192311
0.0165474
0.0124217
0.00983021
0.0192684
0.0192594
0.0192521
0.0192465
0.0192423
0.0192393
0.0192371
0.0192357
0.0192359
0.0192411
0.0192592
0.0188413
0.0140051
0.0105674
0.00838204
0.00698608
0.00616844
0.00539841
0.00496087
0.0192684
0.0192599
0.0192536
0.0192496
0.0192481
0.0192491
0.0192529
0.0192603
0.0192731
0.0192958
0.0189984
0.0147674
0.0109887
0.0081517
0.006336
0.00506089
0.00519986
0.00634668
0.00439762
0.0192681
0.0192603
0.019255
0.0192528
0.0192541
0.0192597
0.0192708
0.0192892
0.0193182
0.0182315
0.0148353
0.0113566
0.00823298
0.00570916
0.00434369
0.00553139
0.00368758
0.00346141
0.00319311
0.00277593
0.0192677
0.0192603
0.0192559
0.0192554
0.0192596
0.01927
0.0192887
0.0193191
0.0181059
0.0150614
0.0119538
0.00898584
0.00632438
0.00425958
0.00462858
0.00245127
0.00198692
0.00179075
0.00342644
0.00245967
0.0021121
0.0192668
0.0192598
0.0192562
0.019257
0.0192636
0.0192783
0.0193041
0.0190819
0.0160486
0.0130723
0.0102275
0.00761916
0.00535297
0.00364087
0.00317464
0.00169465
0.00115341
0.00134059
0.000678492
0.00179892
0.00151836
0.0019359
0.0192656
0.0192586
0.0192554
0.0192571
0.0192655
0.0192831
0.019314
0.0179303
0.0149022
0.012044
0.00940878
0.00706828
0.00509283
0.00365829
0.00291365
0.00177762
0.00131936
0.00102518
0.000959399
0.000908303
0.00107873
0.00101054
0.0192638
0.0192568
0.0192536
0.0192556
0.0192646
0.0192836
0.0193168
0.0174978
0.0145204
0.0117764
0.00930431
0.00715416
0.00536237
0.00397055
0.00308508
0.00285539
0.00208342
0.00230811
0.00176123
0.00167305
0.00165956
0.00161791
0.00150899
0.00179621
0.00202799
0.0192617
0.0192543
0.0192507
0.0192522
0.0192608
0.0192794
0.0193121
0.017678
0.014771
0.0121204
0.00977326
0.00775618
0.00610292
0.00480516
0.0040235
0.00357309
0.00311259
0.00242962
0.00217994
0.00241711
0.0029702
0.0036282
0.00344647
0.00332367
0.00341405
0.00330591
0.00319252
0.00309255
0.00299755
0.0029124
0.0028399
0.00278134
0.0027371
0.00270697
0.00269043
0.00268451
0.0026901
0.0027072
0.00273586
0.00277639
0.00282852
0.00289235
0.0192592
0.0192512
0.0192468
0.0192473
0.0192546
0.0192712
0.0193009
0.0183755
0.0155285
0.0129646
0.0107045
0.00877185
0.00717525
0.00590503
0.00494969
0.00447092
0.00403486
0.00476049
0.00328492
0.00366714
0.00459979
0.00616806
0.00750773
0.00786544
0.00779177
0.00742989
0.0070113
0.00698131
0.00659829
0.00621368
0.00584992
0.00551653
0.00521653
0.00495021
0.00471571
0.00451011
0.00433015
0.00417268
0.00403488
0.00391444
0.00380961
0.00371943
0.00364431
0.0192564
0.0192476
0.0192422
0.0192413
0.0192464
0.01926
0.0192852
0.0193254
0.0167113
0.0142046
0.0120063
0.0101159
0.00853892
0.00726095
0.00626299
0.00560191
0.00546028
0.0051143
0.00565401
0.00649147
0.00773429
0.00938907
0.0113574
0.0134882
0.0134446
0.0133468
0.0128004
0.0124547
0.0121716
0.0118706
0.0115603
0.0112453
0.0107953
0.0102464
0.00970834
0.00919155
0.00870144
0.00823944
0.00780427
0.00739311
0.00700245
0.00662887
0.00627119
0.0192655
0.0192534
0.0192437
0.019237
0.0192344
0.0192372
0.0192471
0.0192668
0.0192996
0.0182465
0.0157807
0.0136158
0.0117534
0.0101872
0.00891071
0.00792045
0.00723931
0.00698555
0.00728137
0.00783656
0.00873801
0.0100568
0.0118582
0.014156
0.0164115
0.0163959
0.0163835
0.0163644
0.0163293
0.01627
0.0161788
0.0160481
0.0158716
0.0156452
0.0153677
0.0150398
0.0146641
0.0142443
0.0137839
0.0132861
0.0127534
0.0121481
0.0109833
0.00994679
0.0192631
0.0192503
0.0192396
0.0192317
0.0192273
0.0192274
0.0192336
0.0192477
0.0192724
0.0193098
0.0176693
0.0155277
0.0136829
0.0121326
0.0108718
0.00990385
0.00924984
0.00894957
0.00903933
0.00956535
0.0105694
0.0120532
0.0140332
0.0166007
0.0181494
0.0181355
0.0181211
0.0181039
0.0180823
0.0180549
0.0180207
0.0179784
0.0179261
0.0178616
0.0177819
0.017684
0.0175641
0.0174183
0.0172416
0.0170286
0.0167726
0.0164661
0.0161018
0.0154424
0.0192608
0.0192472
0.0192356
0.0192264
0.0192202
0.0192178
0.0192203
0.0192292
0.0192463
0.0192738
0.0193125
0.0177415
0.0159226
0.0143966
0.0131691
0.0122489
0.0116571
0.011431
0.0116105
0.012254
0.0133481
0.0148657
0.0168373
0.0190924
0.0190859
0.0190751
0.0190602
0.0190418
0.0190202
0.0189961
0.0189698
0.0189414
0.0189108
0.0188777
0.0188417
0.0188021
0.018758
0.0187082
0.018651
0.0185843
0.0185053
0.0184101
0.0182939
0.0181507
0.0192585
0.0192443
0.0192317
0.0192213
0.0192133
0.0192086
0.0192078
0.019212
0.0192225
0.0192408
0.0192685
0.0193056
0.0184532
0.0169792
0.0158083
0.01496
0.0144606
0.0143475
0.0146539
0.0153987
0.0165811
0.0182197
0.019486
0.0194892
0.0194861
0.0194774
0.0194642
0.0194474
0.0194282
0.0194073
0.0193853
0.0193626
0.0193395
0.0193159
0.019292
0.0192676
0.0192427
0.0192171
0.0191906
0.0191631
0.0191341
0.0191033
0.0190698
0.0190325
0.0192563
0.0192415
0.0192281
0.0192164
0.019207
0.0192001
0.0191965
0.0191967
0.0192017
0.0192124
0.0192299
0.0192551
0.0192878
0.0193267
0.0187434
0.0179917
0.017602
0.0176121
0.0180569
0.0189647
0.0195472
0.0195632
0.0195725
0.0195754
0.0195726
0.019565
0.0195534
0.0195388
0.0195223
0.0195044
0.0194859
0.0194672
0.0194486
0.0194302
0.0194122
0.0193946
0.0193774
0.0193606
0.0193443
0.0193287
0.0193138
0.0193
0.0192872
0.0192756
0.0192543
0.0192389
0.0192247
0.019212
0.0192012
0.0191925
0.0191864
0.0191833
0.0191838
0.0191885
0.019198
0.0192129
0.0192335
0.0192595
0.01929
0.0193229
0.0193565
0.0193887
0.0194177
0.0194425
0.019462
0.0194757
0.0194837
0.0194862
0.0194839
0.0194775
0.0194679
0.0194557
0.0194419
0.0194271
0.019412
0.0193968
0.0193818
0.0193673
0.0193533
0.0193399
0.0193272
0.0193151
0.0193038
0.0192934
0.019284
0.0192758
0.0192688
0.0192634
0.0192525
0.0192365
0.0192216
0.019208
0.019196
0.0191857
0.0191775
0.0191717
0.0191687
0.0191688
0.0191722
0.0191794
0.0191904
0.019205
0.0192229
0.0192432
0.0192645
0.0192854
0.0193046
0.0193209
0.0193334
0.0193417
0.0193458
0.0193458
0.0193423
0.0193356
0.0193265
0.0193154
0.0193031
0.0192901
0.0192768
0.0192635
0.0192505
0.0192379
0.0192259
0.0192146
0.0192039
0.0191939
0.0191847
0.0191764
0.019169
0.0191626
0.0191573
0.0191532
0.0192508
0.0192343
0.0192188
0.0192045
0.0191914
0.0191798
0.0191699
0.0191619
0.019156
0.0191525
0.0191514
0.0191529
0.019157
0.0191635
0.019172
0.0191819
0.0191925
0.0192028
0.019212
0.0192192
0.019224
0.0192259
0.019225
0.0192213
0.0192151
0.0192067
0.0191965
0.0191851
0.0191727
0.0191599
0.0191468
0.0191339
0.0191213
0.0191091
0.0190975
0.0190864
0.019076
0.0190662
0.0190572
0.0190489
0.0190414
0.0190348
0.019029
0.0190242
0.0192493
0.0192324
0.0192164
0.0192013
0.0191874
0.0191747
0.0191634
0.0191536
0.0191455
0.0191392
0.0191347
0.0191321
0.0191312
0.0191319
0.0191339
0.0191367
0.0191398
0.0191425
0.0191444
0.0191449
0.0191437
0.0191405
0.0191353
0.0191282
0.0191193
0.019109
0.0190974
0.0190849
0.0190718
0.0190584
0.019045
0.0190317
0.0190186
0.019006
0.0189939
0.0189823
0.0189713
0.0189609
0.0189511
0.018942
0.0189336
0.0189258
0.0189188
0.0189125
0.019248
0.0192307
0.0192142
0.0191986
0.0191839
0.0191703
0.0191579
0.0191467
0.0191368
0.0191283
0.0191213
0.0191156
0.0191111
0.0191078
0.0191052
0.0191032
0.0191012
0.0190989
0.0190959
0.0190918
0.0190865
0.0190797
0.0190715
0.019062
0.0190511
0.0190392
0.0190264
0.019013
0.0189992
0.0189852
0.0189713
0.0189574
0.0189439
0.0189307
0.018918
0.0189057
0.0188939
0.0188827
0.018872
0.0188619
0.0188524
0.0188434
0.0188351
0.0188272
0.0192469
0.0192293
0.0192124
0.0191962
0.019181
0.0191666
0.0191532
0.0191409
0.0191296
0.0191195
0.0191105
0.0191025
0.0190954
0.0190891
0.0190834
0.019078
0.0190726
0.0190669
0.0190606
0.0190535
0.0190455
0.0190364
0.0190262
0.0190149
0.0190028
0.0189899
0.0189763
0.0189623
0.018948
0.0189336
0.0189193
0.0189051
0.0188911
0.0188775
0.0188643
0.0188515
0.0188391
0.0188272
0.0188158
0.0188048
0.0187944
0.0187844
0.0187748
0.0187657
0.0192459
0.019228
0.0192108
0.0191942
0.0191784
0.0191634
0.0191493
0.019136
0.0191237
0.0191123
0.0191017
0.019092
0.0190831
0.0190747
0.0190667
0.0190589
0.0190511
0.019043
0.0190345
0.0190254
0.0190156
0.0190049
0.0189934
0.0189812
0.0189682
0.0189547
0.0189407
0.0189263
0.0189118
0.0188972
0.0188827
0.0188683
0.0188541
0.0188402
0.0188267
0.0188135
0.0188007
0.0187883
0.0187764
0.0187648
0.0187536
0.0187429
0.0187325
0.0187224
0.019245
0.0192269
0.0192094
0.0191925
0.0191763
0.0191608
0.019146
0.0191321
0.0191189
0.0191064
0.0190947
0.0190837
0.0190733
0.0190633
0.0190537
0.0190442
0.0190347
0.019025
0.019015
0.0190045
0.0189934
0.0189817
0.0189694
0.0189565
0.0189431
0.0189292
0.018915
0.0189005
0.0188859
0.0188713
0.0188567
0.0188422
0.018828
0.018814
0.0188003
0.0187869
0.0187738
0.0187611
0.0187488
0.0187368
0.0187251
0.0187138
0.0187027
0.0186919
0.0192442
0.019226
0.0192082
0.0191911
0.0191745
0.0191586
0.0191433
0.0191288
0.0191149
0.0191017
0.0190891
0.0190771
0.0190656
0.0190545
0.0190436
0.0190329
0.0190222
0.0190113
0.0190002
0.0189887
0.0189768
0.0189645
0.0189516
0.0189383
0.0189246
0.0189105
0.0188962
0.0188817
0.0188672
0.0188525
0.018838
0.0188236
0.0188093
0.0187953
0.0187815
0.018768
0.0187548
0.0187419
0.0187293
0.018717
0.018705
0.0186932
0.0186817
0.0186704
0.0192436
0.0192252
0.0192072
0.0191898
0.019173
0.0191567
0.0191411
0.0191261
0.0191117
0.0190978
0.0190846
0.0190718
0.0190595
0.0190475
0.0190357
0.0190241
0.0190125
0.0190008
0.0189889
0.0189768
0.0189643
0.0189514
0.0189382
0.0189247
0.0189108
0.0188967
0.0188824
0.0188679
0.0188534
0.0188389
0.0188244
0.0188101
0.0187959
0.0187819
0.0187681
0.0187546
0.0187413
0.0187283
0.0187155
0.018703
0.0186907
0.0186786
0.0186668
0.018655
0.0192431
0.0192245
0.0192064
0.0191888
0.0191718
0.0191552
0.0191393
0.0191239
0.0191091
0.0190948
0.019081
0.0190676
0.0190547
0.019042
0.0190296
0.0190173
0.0190051
0.0189928
0.0189803
0.0189677
0.0189548
0.0189416
0.0189282
0.0189144
0.0189005
0.0188864
0.0188721
0.0188577
0.0188432
0.0188288
0.0188145
0.0188002
0.0187861
0.0187722
0.0187584
0.0187449
0.0187316
0.0187185
0.0187056
0.0186929
0.0186805
0.0186682
0.018656
0.018644
0.0192426
0.019224
0.0192057
0.019188
0.0191708
0.019154
0.0191378
0.0191221
0.019107
0.0190923
0.0190781
0.0190643
0.0190509
0.0190378
0.0190249
0.0190121
0.0189994
0.0189866
0.0189738
0.0189608
0.0189476
0.0189342
0.0189206
0.0189068
0.0188928
0.0188787
0.0188644
0.0188501
0.0188358
0.0188214
0.0188072
0.018793
0.018779
0.0187651
0.0187514
0.0187379
0.0187246
0.0187114
0.0186985
0.0186857
0.0186731
0.0186606
0.0186483
0.018636
0.0192423
0.0192235
0.0192052
0.0191874
0.01917
0.0191531
0.0191367
0.0191208
0.0191054
0.0190905
0.019076
0.0190619
0.0190481
0.0190346
0.0190214
0.0190082
0.0189951
0.0189821
0.0189689
0.0189557
0.0189423
0.0189288
0.018915
0.0189012
0.0188872
0.018873
0.0188588
0.0188446
0.0188303
0.0188161
0.0188019
0.0187879
0.0187739
0.0187601
0.0187464
0.0187329
0.0187196
0.0187064
0.0186934
0.0186806
0.0186679
0.0186553
0.0186428
0.0186303
0.019242
0.0192232
0.0192049
0.0191869
0.0191694
0.0191524
0.0191359
0.0191199
0.0191043
0.0190892
0.0190745
0.0190601
0.0190461
0.0190324
0.0190189
0.0190055
0.0189922
0.0189789
0.0189655
0.0189521
0.0189386
0.018925
0.0189112
0.0188973
0.0188833
0.0188691
0.018855
0.0188408
0.0188266
0.0188124
0.0187983
0.0187843
0.0187704
0.0187566
0.018743
0.0187295
0.0187162
0.018703
0.01869
0.0186771
0.0186643
0.0186516
0.018639
0.0186265
0.0192419
0.019223
0.0192046
0.0191866
0.0191691
0.019152
0.0191354
0.0191192
0.0191036
0.0190883
0.0190735
0.019059
0.0190448
0.0190309
0.0190172
0.0190037
0.0189902
0.0189768
0.0189633
0.0189498
0.0189362
0.0189225
0.0189087
0.0188947
0.0188807
0.0188666
0.0188525
0.0188383
0.0188242
0.0188101
0.018796
0.018782
0.0187682
0.0187544
0.0187408
0.0187274
0.018714
0.0187009
0.0186878
0.0186749
0.0186621
0.0186494
0.0186367
0.0186241
0.0192418
0.019223
0.0192045
0.0191865
0.0191689
0.0191518
0.0191352
0.019119
0.0191032
0.0190879
0.019073
0.0190585
0.0190442
0.0190303
0.0190165
0.0190029
0.0189893
0.0189758
0.0189623
0.0189487
0.0189351
0.0189213
0.0189075
0.0188935
0.0188795
0.0188654
0.0188513
0.0188372
0.018823
0.0188089
0.0187949
0.018781
0.0187671
0.0187534
0.0187398
0.0187263
0.018713
0.0186998
0.0186868
0.0186739
0.018661
0.0186483
0.0186356
0.0186229
0.0190296
0.0190158
0.0190021
0.0189885
0.018975
0.0189614
0.0189478
0.0189341
0.0189203
0.0189065
0.0188925
0.0188784
0.0188643
0.0188502
0.018836
0.0188218
0.0188077
0.0187937
0.0187797
0.0187658
0.0187521
0.0187384
0.0190303
0.0190165
0.0190029
0.0189894
0.018976
0.0189625
0.0189489
0.0189352
0.0189215
0.0189076
0.0188937
0.0188796
0.0188655
0.0188513
0.0188372
0.018823
0.0188088
0.0187948
0.0187808
0.0187669
0.0187531
0.0187395
0.0190318
0.0190182
0.0190048
0.0189914
0.0189781
0.0189647
0.0189512
0.0189377
0.018924
0.0189102
0.0188963
0.0188822
0.0188681
0.0188539
0.0188397
0.0188254
0.0188112
0.0187971
0.0187831
0.0187691
0.0187553
0.0187417
0.019034
0.0190207
0.0190075
0.0189944
0.0189813
0.0189681
0.0189549
0.0189414
0.0189279
0.0189141
0.0189002
0.0188862
0.0188721
0.0188578
0.0188436
0.0188293
0.018815
0.0188008
0.0187867
0.0187728
0.0187589
0.0187452
0.0190373
0.0190244
0.0190116
0.0189988
0.018986
0.0189731
0.0189601
0.0189469
0.0189334
0.0189198
0.018906
0.018892
0.0188778
0.0188635
0.0188492
0.0188349
0.0188205
0.0188063
0.0187921
0.018778
0.0187641
0.0187504
0.0190417
0.0190292
0.0190169
0.0190046
0.0189923
0.0189798
0.0189671
0.0189542
0.018941
0.0189275
0.0189138
0.0188998
0.0188857
0.0188714
0.018857
0.0188425
0.0188281
0.0188137
0.0187995
0.0187854
0.0187714
0.0187577
0.0190472
0.0190355
0.0190238
0.0190122
0.0190004
0.0189885
0.0189763
0.0189638
0.0189509
0.0189377
0.0189241
0.0189102
0.0188961
0.0188818
0.0188673
0.0188528
0.0188383
0.0188238
0.0188095
0.0187953
0.0187813
0.0187675
0.0190543
0.0190434
0.0190326
0.0190218
0.0190109
0.0189998
0.0189882
0.0189763
0.0189639
0.018951
0.0189377
0.018924
0.0189099
0.0188956
0.0188811
0.0188665
0.0188519
0.0188374
0.018823
0.0188087
0.0187947
0.018781
0.0190631
0.0190534
0.0190439
0.0190343
0.0190245
0.0190144
0.0190039
0.0189927
0.018981
0.0189687
0.0189558
0.0189423
0.0189284
0.0189142
0.0188997
0.0188852
0.0188705
0.018856
0.0188415
0.0188273
0.0188133
0.0187996
0.0190743
0.0190663
0.0190584
0.0190505
0.0190424
0.0190338
0.0190246
0.0190146
0.0190039
0.0189924
0.0189801
0.0189671
0.0189536
0.0189396
0.0189253
0.0189108
0.0188963
0.0188818
0.0188674
0.0188533
0.0188394
0.0188259
0.0190887
0.0190829
0.0190773
0.0190718
0.0190659
0.0190595
0.0190523
0.0190442
0.019035
0.0190247
0.0190135
0.0190013
0.0189884
0.0189749
0.0189609
0.0189467
0.0189323
0.0189181
0.0189039
0.01889
0.0188765
0.0188633
0.0191072
0.0191045
0.0191023
0.0191001
0.0190976
0.0190944
0.0190902
0.0190847
0.0190778
0.0190695
0.0190599
0.019049
0.0190371
0.0190244
0.0190111
0.0189974
0.0189835
0.0189696
0.0189559
0.0189425
0.0189294
0.0189168
0.0191312
0.0191329
0.0191355
0.0191383
0.0191408
0.0191424
0.0191426
0.0191411
0.0191377
0.0191324
0.0191253
0.0191164
0.0191061
0.0190946
0.0190823
0.0190694
0.0190562
0.019043
0.0190299
0.0190171
0.0190047
0.0189927
0.0191626
0.0191708
0.0191804
0.0191906
0.0192004
0.0192092
0.019216
0.0192203
0.019222
0.019221
0.0192173
0.0192112
0.019203
0.0191931
0.0191819
0.0191699
0.0191575
0.0191449
0.0191323
0.0191201
0.0191083
0.0190971
0.019204
0.0192216
0.0192414
0.0192622
0.0192825
0.019301
0.0193167
0.0193286
0.0193366
0.0193406
0.0193408
0.0193376
0.0193315
0.0193229
0.0193126
0.0193011
0.0192888
0.0192763
0.0192638
0.0192516
0.0192398
0.0192286
0.0192586
0.0192887
0.0193213
0.0193543
0.0193858
0.0194141
0.0194382
0.0194572
0.0194706
0.0194787
0.0194817
0.0194804
0.0194752
0.0194669
0.0194563
0.019444
0.0194308
0.0194172
0.0194036
0.0193902
0.0193772
0.0193648
0.0193262
0.0187976
0.0180762
0.0177331
0.0178045
0.0183158
0.0192749
0.0195459
0.0195613
0.0195708
0.0195748
0.019574
0.0195688
0.0195601
0.0195486
0.0195351
0.0195203
0.0195049
0.0194893
0.0194737
0.0194583
0.0194433
0.0169596
0.0158027
0.0149851
0.0145403
0.0145063
0.0149025
0.0157157
0.0169122
0.0184605
0.0194846
0.0194899
0.0194908
0.0194876
0.0194807
0.0194705
0.0194579
0.0194434
0.0194276
0.0194109
0.0193936
0.0193758
0.0193576
0.0143046
0.0130866
0.0121946
0.0116627
0.0115373
0.0118643
0.0126316
0.0137728
0.0151946
0.0168506
0.0187864
0.0190748
0.0190768
0.0190765
0.0190701
0.0190594
0.0190462
0.0190317
0.0190157
0.0189973
0.0189766
0.0189536
0.0180694
0.0180675
0.018062
0.0180535
0.018043
0.0180253
0.0179997
0.0179657
0.0160834
0.0161066
0.016122
0.0161287
0.0161209
0.016086
0.0160233
0.0159318
0.0192089
0.0192194
0.019251
0.0169143
0.0192195
0.0192162
0.0192207
0.0192409
0.0192042
0.0149185
0.0119793
0.0192222
0.0192214
0.0192306
0.0192583
0.017496
0.013642
0.0110124
0.0192239
0.0192247
0.0192365
0.0192684
0.0166948
0.0130407
0.0105516
0.00901997
0.0192239
0.0192247
0.0192365
0.0192684
0.0166949
0.0130413
0.010553
0.00902274
0.0192423
0.0192344
0.0192273
0.0192221
0.0192214
0.0192305
0.0192583
0.0174933
0.0136412
0.0110141
0.00939349
0.0192506
0.0192419
0.0192337
0.019226
0.0192195
0.0192162
0.0192206
0.0192409
0.0191968
0.0149137
0.0119785
0.010153
0.0192504
0.0192415
0.019233
0.0192245
0.0192165
0.0192101
0.0192088
0.0192194
0.019251
0.0169028
0.013418
0.0112148
0.0192502
0.0192413
0.0192326
0.0192236
0.0192141
0.019205
0.0191984
0.0191997
0.0192174
0.0192604
0.0152163
0.0124001
0.0192502
0.0192415
0.0192329
0.0192237
0.0192135
0.0192025
0.019192
0.0191861
0.0191923
0.0192213
0.0169948
0.0134015
0.0111951
0.0192595
0.0192506
0.0192423
0.0192341
0.0192254
0.0192155
0.019204
0.0191918
0.0191821
0.0191816
0.0192013
0.0181287
0.0138496
0.0112236
0.0192694
0.0192597
0.0192513
0.0192437
0.0192365
0.0192291
0.0192206
0.0192106
0.0191996
0.0191902
0.0191891
0.0192081
0.0178615
0.0134193
0.0106928
0.0192694
0.0192601
0.0192523
0.0192458
0.0192402
0.0192349
0.0192294
0.0192231
0.0192167
0.019213
0.0192192
0.0192481
0.0159611
0.0120136
0.00958165
0.0192693
0.0192605
0.0192536
0.0192484
0.0192449
0.0192428
0.0192419
0.019242
0.0192445
0.0192531
0.0192763
0.0175158
0.0129288
0.00975005
0.00786949
0.00665955
0.00607077
0.00544172
0.00457101
0.0192691
0.0192609
0.0192549
0.0192514
0.0192505
0.0192525
0.0192577
0.0192671
0.0192834
0.0193117
0.0174144
0.0131834
0.00957945
0.00694994
0.00557243
0.00670693
0.0053721
0.00472482
0.0042758
0.0192688
0.0192612
0.0192562
0.0192544
0.0192563
0.019263
0.0192757
0.019297
0.0193309
0.0169556
0.0133305
0.0098169
0.006779
0.00479957
0.00582698
0.00341753
0.00346712
0.00378611
0.00382609
0.00317858
0.0192683
0.0192611
0.019257
0.0192568
0.0192617
0.0192732
0.019294
0.0193279
0.0172088
0.0139155
0.0106308
0.00759781
0.00491926
0.00340131
0.00298874
0.00196746
0.00225726
0.00158283
0.0012643
0.000788411
0.0192674
0.0192605
0.0192571
0.0192583
0.0192656
0.0192814
0.0193094
0.018453
0.0152469
0.0120803
0.00909817
0.00637069
0.00442255
0.00399182
0.00190905
0.0012577
0.00117187
0.000160321
0.0192661
0.0192593
0.0192563
0.0192583
0.0192673
0.0192861
0.0193191
0.0173838
0.0142209
0.0112167
0.00847702
0.00607078
0.00432734
0.00344627
0.0019415
0.00154151
0.000925254
0.0192643
0.0192574
0.0192543
0.0192566
0.0192661
0.0192862
0.0193213
0.017039
0.0139582
0.0111037
0.00854531
0.00635631
0.0044714
0.00322993
0.00270197
0.00170949
0.00146496
0.000869612
0.00127132
0.00166833
0.0192622
0.0192548
0.0192513
0.0192531
0.0192621
0.0192816
0.0193158
0.0173026
0.0143116
0.0115847
0.00916362
0.0070984
0.00538178
0.00415316
0.00339024
0.00289168
0.00220413
0.00204646
0.00225605
0.00183753
0.00175595
0.00178901
0.00188196
0.00212919
0.00231038
0.00291142
0.00300229
0.00304893
0.00306787
0.00306778
0.00305881
0.00304897
0.00304251
0.00304195
0.00304871
0.00306345
0.00308659
0.00311851
0.00316003
0.0032124
0.00327845
0.00336399
0.0192596
0.0192516
0.0192474
0.0192481
0.0192556
0.0192729
0.0193038
0.0180799
0.0151697
0.0125456
0.0102333
0.00825397
0.00662118
0.00531021
0.00459024
0.00408652
0.00469166
0.00325771
0.00359264
0.0044561
0.00540169
0.00520507
0.00520955
0.00530883
0.00624198
0.00636661
0.00646821
0.00653406
0.00651157
0.00641544
0.0062737
0.00610685
0.00593056
0.00575554
0.0055889
0.0054322
0.00528642
0.00515169
0.00502735
0.00491178
0.00480196
0.004701
0.00460519
0.0192568
0.019248
0.0192426
0.0192419
0.0192473
0.0192612
0.0192872
0.0192872
0.0164434
0.0138921
0.0116539
0.00973129
0.00812693
0.00682673
0.00587994
0.00561689
0.00514705
0.00542348
0.00608879
0.00710463
0.00841665
0.00975749
0.010788
0.0112277
0.0108545
0.0108622
0.0109447
0.0111451
0.0113511
0.0115228
0.0116566
0.0117381
0.0117108
0.0114141
0.0110898
0.0107472
0.0103927
0.0100298
0.00965955
0.00928089
0.00868302
0.00801233
0.00738038
0.0192658
0.0192538
0.0192441
0.0192375
0.0192349
0.0192378
0.019248
0.0192682
0.0193019
0.0180549
0.0155562
0.013364
0.0114786
0.00989486
0.00861037
0.00763663
0.00712058
0.00722738
0.00761163
0.00826908
0.00926147
0.0105863
0.0121217
0.0136308
0.0148818
0.0159028
0.0159448
0.0159689
0.0159876
0.0159983
0.0159994
0.0159735
0.0159183
0.0158326
0.0157159
0.0155674
0.0153859
0.0151701
0.0149176
0.0146251
0.0142879
0.0138894
0.0127872
0.0117184
0.0192635
0.0192507
0.01924
0.0192321
0.0192277
0.0192279
0.0192342
0.0192486
0.0192738
0.0193118
0.0175185
0.0153573
0.0134991
0.0119417
0.0106838
0.00973848
0.00915415
0.00900078
0.00927065
0.0099735
0.0110997
0.0125727
0.014287
0.0161671
0.0180031
0.0180141
0.0180177
0.0180168
0.0180124
0.0180045
0.0179942
0.0179779
0.0179532
0.0179196
0.0178766
0.0178232
0.0177579
0.0176787
0.0175829
0.0174667
0.0173254
0.0171525
0.0169406
0.0166804
0.0192611
0.0192476
0.019236
0.0192268
0.0192206
0.0192182
0.0192208
0.0192298
0.0192471
0.0192751
0.0193143
0.0176391
0.015813
0.0142876
0.013071
0.0121782
0.0116431
0.0115124
0.0118328
0.0125938
0.0137395
0.0151925
0.0169204
0.0189644
0.0190569
0.0190557
0.0190524
0.0190449
0.0190334
0.0190194
0.0190035
0.0189848
0.0189635
0.0189398
0.0189136
0.0188847
0.0188527
0.0188173
0.0187777
0.0187329
0.0186818
0.0186224
0.0185522
0.0184678
0.0192589
0.0192446
0.0192321
0.0192216
0.0192137
0.019209
0.0192082
0.0192125
0.0192231
0.0192415
0.0192694
0.0193068
0.0184035
0.0169344
0.015779
0.0149614
0.0145148
0.0144777
0.0148712
0.0156853
0.0168931
0.0184782
0.0194806
0.0194844
0.0194837
0.0194788
0.0194703
0.0194587
0.0194447
0.0194288
0.0194118
0.0193938
0.0193753
0.0193563
0.0193368
0.0193169
0.0192966
0.0192758
0.0192545
0.0192326
0.0192102
0.019187
0.0191629
0.0191377
0.0192567
0.0192418
0.0192284
0.0192168
0.0192073
0.0192005
0.0191968
0.0191971
0.019202
0.0192128
0.0192304
0.0192556
0.0192884
0.0193273
0.0187655
0.0180445
0.0177011
0.0177718
0.0182839
0.0192492
0.0195461
0.0195612
0.0195701
0.0195734
0.0195718
0.0195658
0.0195562
0.0195439
0.0195296
0.0195142
0.0194981
0.0194818
0.0194656
0.0194496
0.019434
0.0194187
0.0194038
0.0193894
0.0193754
0.0193621
0.0193496
0.019338
0.0193276
0.0193185
0.0192547
0.0192392
0.019225
0.0192124
0.0192015
0.0191928
0.0191867
0.0191836
0.0191841
0.0191888
0.0191983
0.0192132
0.0192337
0.0192596
0.0192899
0.0193226
0.0193557
0.0193873
0.0194157
0.0194398
0.0194586
0.0194719
0.0194797
0.0194824
0.0194807
0.0194751
0.0194663
0.0194553
0.0194426
0.0194291
0.0194151
0.0194012
0.0193875
0.0193742
0.0193614
0.0193493
0.0193377
0.0193269
0.0193168
0.0193076
0.0192993
0.0192921
0.0192862
0.0192818
0.0192529
0.0192369
0.019222
0.0192084
0.0191963
0.0191861
0.0191779
0.019172
0.019169
0.019169
0.0191724
0.0191795
0.0191904
0.0192049
0.0192227
0.0192426
0.0192635
0.019284
0.0193026
0.0193183
0.0193303
0.0193382
0.0193421
0.0193422
0.0193388
0.0193325
0.0193237
0.0193132
0.0193014
0.019289
0.0192763
0.0192637
0.0192513
0.0192394
0.0192281
0.0192174
0.0192073
0.019198
0.0191895
0.0191817
0.0191749
0.0191691
0.0191643
0.0191607
0.0192512
0.0192347
0.0192192
0.0192048
0.0191918
0.0191802
0.0191702
0.0191622
0.0191563
0.0191527
0.0191516
0.0191531
0.0191571
0.0191634
0.0191717