/*--------------------------------*- C++ -*----------------------------------*\
  =========                 |
  \\      /  F ield         | OpenFOAM: The Open Source CFD Toolbox
   \\    /   O peration     | Website:  https://openfoam.org
    \\  /    A nd           | Version:  13
     \\/     M anipulation  |
\*---------------------------------------------------------------------------*/
FoamFile
{
    format      ascii;
    class       volScalarField;
    location    "900";
    object      omega;
}
// * * * * * * * * * * * * * * * * * * * * * * * * * * * * * * * * * * * * * //

dimensions      [0 0 -1 0 0 0 0];

internalField   nonuniform List<scalar> 
171634
(
18.0618
17.9784
17.8959
17.8145
17.7338
17.654
17.575
17.4966
17.4189
17.3418
17.2654
17.1896
17.1145
17.04
16.9662
16.8931
16.8208
16.7491
16.6782
16.6081
16.5387
16.4701
18.0622
17.9789
17.8965
17.8151
17.7346
17.6548
17.5758
17.4975
17.4198
17.3427
17.2663
17.1905
17.1154
17.0409
16.9671
16.894
16.8216
16.7499
16.679
16.6088
16.5394
16.4708
18.0634
17.9802
17.898
17.8168
17.7364
17.6568
17.5779
17.4996
17.422
17.345
17.2686
17.1928
17.1176
17.0431
16.9692
16.8961
16.8236
16.7518
16.6808
16.6106
16.5411
16.4725
18.0651
17.9822
17.9002
17.8193
17.7391
17.6597
17.581
17.5029
17.4253
17.3484
17.272
17.1962
17.121
17.0464
16.9725
16.8992
16.8266
16.7548
16.6837
16.6133
16.5438
16.4751
18.0676
17.985
17.9035
17.8229
17.7431
17.664
17.5855
17.5076
17.4303
17.3534
17.2771
17.2013
17.126
17.0513
16.9773
16.9039
16.8312
16.7592
16.6879
16.6175
16.5478
16.479
18.071
17.989
17.908
17.8279
17.7485
17.6699
17.5918
17.5142
17.437
17.3603
17.2841
17.2083
17.133
17.0582
16.984
16.9104
16.8376
16.7654
16.694
16.6234
16.5536
16.4847
18.0755
17.9942
17.914
17.8346
17.7559
17.6778
17.6002
17.5231
17.4462
17.3698
17.2936
17.2179
17.1425
17.0677
16.9934
16.9196
16.8466
16.7742
16.7026
16.6319
16.5619
16.4928
18.0815
18.0012
17.9219
17.8435
17.7657
17.6885
17.6116
17.5351
17.4587
17.3826
17.3067
17.231
17.1557
17.0807
17.0063
16.9324
16.8591
16.7865
16.7148
16.6438
16.5737
16.5045
18.0894
18.0104
17.9325
17.8554
17.7789
17.7028
17.6269
17.5512
17.4756
17.4
17.3244
17.249
17.1737
17.0988
17.0242
16.9501
16.8767
16.8039
16.7319
16.6608
16.5906
16.5212
18.0997
18.0225
17.9465
17.8712
17.7965
17.722
17.6477
17.5732
17.4986
17.4238
17.3488
17.2738
17.1987
17.1238
17.0492
16.9751
16.9014
16.8285
16.7564
16.6851
16.6147
16.5453
18.1133
18.0386
17.9651
17.8924
17.8202
17.7482
17.676
17.6034
17.5303
17.4568
17.3828
17.3084
17.2338
17.1591
17.0846
17.0104
16.9367
16.8637
16.7914
16.72
16.6496
16.5801
18.1311
18.0599
17.9901
17.9212
17.8527
17.7842
17.7152
17.6454
17.5747
17.5031
17.4306
17.3574
17.2835
17.2094
17.1351
17.061
16.9874
16.9143
16.842
16.7705
16.7001
16.6307
18.1549
18.0886
18.0241
17.9607
17.8977
17.8344
17.7703
17.7049
17.6379
17.5694
17.4993
17.4278
17.3553
17.282
17.2082
17.1345
17.0609
16.9879
16.9156
16.8442
16.7738
16.7045
18.1865
18.1275
18.0708
18.0157
17.9611
17.906
17.8494
17.7907
17.7295
17.6656
17.5993
17.5307
17.4602
17.3883
17.3154
17.242
17.1687
17.0958
17.0235
16.9522
16.8819
16.8127
18.2291
18.1807
18.1359
18.0935
18.052
18.0096
17.9649
17.9169
17.8648
17.8084
17.748
17.6837
17.6163
17.5463
17.4746
17.4019
17.3288
17.2558
17.1836
17.1122
17.042
16.9731
18.2866
18.2539
18.2273
18.2048
18.1842
18.1626
18.1375
18.107
18.0699
18.0258
17.9747
17.9174
17.8546
17.7874
17.7171
17.6448
17.5717
17.4985
17.4259
17.3544
17.2843
17.2158
18.3642
18.3555
18.3576
18.3681
18.383
18.3974
18.4064
18.4063
18.395
18.3717
18.3363
18.2898
18.2337
18.1701
18.1011
18.0288
17.9548
17.8806
17.8072
17.7353
17.6652
17.5974
18.4695
18.4987
18.5488
18.6167
18.6959
18.7768
18.8491
18.9048
18.9395
18.9516
18.9419
18.9117
18.8643
18.8039
18.7346
18.6604
18.5841
18.508
18.4336
18.3618
18.2934
18.2288
18.6134
18.7037
18.8353
19.0071
19.2086
19.4196
19.6156
19.7774
19.8954
19.9674
19.9971
19.9894
19.9511
19.8913
19.8186
19.74
19.6604
19.5834
19.5111
19.4451
19.3865
19.3364
21.7421
21.6643
21.5928
21.533
21.4888
21.4635
21.4605
21.4836
25.3501
25.3286
25.3516
25.4343
25.5903
25.832
26.1704
26.6145
18.3743
18.2946
18.2374
18.217
18.5617
18.4689
18.3829
18.3122
18.2696
18.2716
18.3355
18.5628
18.4722
18.3905
18.3273
18.2972
18.319
18.4111
18.5639
18.4747
18.3955
18.3368
18.3141
18.3477
18.4567
18.6472
18.5639
18.4747
18.3955
18.3368
18.3141
18.3476
18.4567
18.6469
18.8483
18.7524
18.657
18.5628
18.4722
18.3905
18.3273
18.2972
18.3191
18.4111
18.5795
18.9454
18.8489
18.7528
18.657
18.5617
18.4689
18.3829
18.3122
18.2696
18.2718
18.3357
18.4684
18.9463
18.8498
18.7537
18.6573
18.5608
18.4653
18.3743
18.2946
18.2375
18.2172
18.2495
18.3439
18.9477
18.8515
18.7554
18.6587
18.5613
18.4635
18.3679
18.28
18.2093
18.1692
18.1745
18.2372
18.9497
18.8539
18.7582
18.6618
18.5641
18.4651
18.3663
18.2723
18.1915
18.1367
18.1233
18.166
18.2728
19.0485
18.9524
18.8574
18.7626
18.6671
18.5702
18.4714
18.3717
18.2747
18.1884
18.1256
18.1033
18.1397
18.2486
19.148
19.0511
18.9558
18.8619
18.7686
18.6749
18.5801
18.4835
18.3856
18.2898
18.2036
18.1407
18.1207
18.1666
18.2993
19.1503
19.0541
18.9599
18.8675
18.7763
18.6855
18.5943
18.5022
18.4097
18.3198
18.2407
18.1876
18.1846
18.2629
18.4549
19.1528
19.0574
18.9645
18.874
18.7856
18.6987
18.613
18.5282
18.4452
18.3677
18.305
18.2762
18.315
18.4712
18.7973
19.3539
20.1387
21.1542
22.3717
19.1554
19.0609
18.9695
18.8812
18.7961
18.7142
18.6357
18.5612
18.4927
18.4356
18.4029
18.4241
18.56
18.9188
19.6257
20.8614
22.2343
22.5432
24.0521
19.158
19.0645
18.9746
18.8886
18.8072
18.731
18.6612
18.5998
18.551
18.524
18.5412
18.6559
18.9996
19.9134
21.7065
22.22
24.5998
28.498
33.8421
39.5208
19.1605
19.0679
18.9793
18.8957
18.818
18.7478
18.6874
18.6408
18.6158
18.6285
18.7167
18.9723
19.6615
21.5396
22.3404
27.7668
40.0616
63.787
80.0286
90.969
97.5276
19.1628
19.0708
18.9835
18.9018
18.8275
18.7627
18.7111
18.679
18.6783
18.7332
18.8976
19.3036
20.3262
22.9418
24.6507
37.9628
84.1489
150.842
348.7
419.413
415.336
434.45
19.1646
19.0731
18.9866
18.9065
18.8346
18.7739
18.7291
18.7083
18.7267
18.8138
19.0325
19.5293
20.6814
23.3135
25.5551
38.9763
82.2003
163.922
686.762
855.782
716.687
856.722
19.166
19.0747
18.9886
18.9092
18.8386
18.78
18.7388
18.7239
18.7512
18.8509
19.083
19.5752
20.6223
22.8811
27.388
31.6091
53.2366
98.5247
183.379
346.205
514.705
598.72
650.982
573.185
544.147
19.1669
19.0756
18.9894
18.9099
18.8393
18.7809
18.7398
18.7244
18.7495
18.8413
19.0477
19.4612
20.2647
21.8312
24.6585
29.2315
34.1844
52.0378
78.4647
116.405
153.899
171.985
179.058
183.739
163.2
168.082
174.037
179.215
182.214
183.018
181.803
178.912
174.752
169.714
164.135
158.118
151.998
145.97
140.15
134.62
129.352
124.281
19.1675
19.0757
18.989
18.9088
18.8372
18.777
18.733
18.7123
18.7268
18.7966
18.9556
19.2624
19.8205
20.8154
22.5231
25.1317
28.668
31.7079
41.1353
51.5708
60.5895
66.3736
69.1972
64.1443
64.671
66.3606
69.2087
72.9252
77.3243
82.1227
87.0342
91.7458
96.021
99.7282
102.798
105.201
106.962
108.137
108.798
109.026
108.895
108.459
107.763
19.1676
19.0753
18.9878
18.9063
18.8327
18.7696
18.7207
18.6916
18.6914
18.7339
18.841
19.0476
19.4082
20.0099
20.9784
22.4118
24.2353
26.1682
28.2258
30.19
31.7204
32.6805
33.1448
33.3977
33.5214
33.7325
34.1429
34.8199
35.7986
37.1023
38.7307
40.6571
42.8359
45.2152
47.744
50.3769
53.0795
55.832
58.629
61.478
64.3949
67.3959
70.4703
19.2643
19.1675
19.0745
18.9859
18.9029
18.8269
18.76
18.7053
18.6669
18.651
18.6668
18.7277
18.8532
19.0707
19.4182
19.9436
20.6828
21.5998
22.5647
23.4974
24.3108
24.9299
25.3295
25.5362
25.604
25.5914
25.5528
25.5226
25.5244
25.5759
25.6928
25.8901
26.1805
26.5741
27.079
27.703
28.4543
29.3436
30.3865
31.6047
33.0284
34.6942
36.6422
38.9105
19.2646
19.1673
19.0734
18.9836
18.8989
18.8203
18.7495
18.6888
18.6412
18.6108
18.6033
18.6267
18.6914
18.8104
18.9992
19.2734
19.6408
20.0854
20.5601
21.0094
21.3876
21.6694
21.8509
21.9429
21.9652
21.9366
21.8791
21.8093
21.739
21.6761
21.6262
21.5935
21.5818
21.5946
21.636
21.7109
21.8254
21.9875
22.2078
22.5005
22.8843
23.3831
24.0231
24.8355
19.2648
19.1669
19.0722
18.9813
18.8947
18.8136
18.739
18.6727
18.6167
18.5739
18.5474
18.5418
18.5624
18.6152
18.7058
18.8381
19.0108
19.2138
19.4271
19.626
19.7911
19.9117
19.9862
20.0178
20.0118
19.9754
19.9178
19.8476
19.7718
19.6954
19.6219
19.5537
19.4923
19.4389
19.3946
19.3606
19.3387
19.3313
19.3416
19.3744
19.436
19.5345
19.6803
19.8848
19.2651
19.1666
19.0711
18.979
18.8908
18.8072
18.7292
18.6579
18.5947
18.5414
18.5001
18.473
18.4625
18.4713
18.5008
18.5513
18.6199
18.7
18.782
18.8556
18.9126
18.9483
18.9613
18.9521
18.9224
18.8756
18.8157
18.7473
18.674
18.599
18.5242
18.4513
18.3813
18.3149
18.2525
18.1947
18.1419
18.0949
18.0548
18.0228
18.0009
17.9913
17.9971
18.0215
19.2653
19.1663
19.07
18.9768
18.8871
18.8014
18.7204
18.6448
18.5757
18.514
18.4611
18.4181
18.3862
18.3659
18.3574
18.3598
18.3707
18.3862
18.4011
18.4107
18.4111
18.4003
18.3772
18.3419
18.2954
18.2393
18.1758
18.107
18.035
17.9615
17.8877
17.8149
17.7436
17.6743
17.6074
17.5431
17.4816
17.4233
17.3685
17.3177
17.2716
17.2309
17.1963
17.1688
19.2656
19.1661
19.0691
18.975
18.8839
18.7963
18.7127
18.6336
18.5597
18.4914
18.4297
18.375
18.3278
18.2881
18.2557
18.2292
18.2071
18.1867
18.1654
18.1406
18.1103
18.0733
18.0293
17.9782
17.9208
17.8578
17.7906
17.7202
17.648
17.5749
17.5018
17.4294
17.3582
17.2883
17.2201
17.1537
17.0893
17.0269
16.9668
16.9092
16.8542
16.8023
16.7535
16.7083
19.266
19.166
19.0684
18.9734
18.8812
18.792
18.7063
18.6243
18.5464
18.4731
18.4047
18.3414
18.2834
18.2305
18.1822
18.1376
18.0955
18.0541
18.0119
17.9674
17.9194
17.8674
17.811
17.7505
17.6862
17.6187
17.5486
17.4768
17.404
17.3308
17.2579
17.1857
17.1144
17.0443
16.9755
16.9082
16.8425
16.7784
16.716
16.6553
16.5966
16.5399
16.4854
16.433
19.2664
19.166
19.0679
18.9721
18.8789
18.7884
18.7009
18.6166
18.5357
18.4585
18.3851
18.3156
18.2499
18.1878
18.1289
18.0724
18.0175
17.963
17.908
17.8515
17.7928
17.7316
17.6678
17.6015
17.5328
17.4622
17.3902
17.3173
17.2439
17.1705
17.0976
17.0253
16.954
16.8838
16.8147
16.747
16.6805
16.6155
16.5519
16.4898
16.4292
16.3702
16.3128
16.257
19.2668
19.1661
19.0675
18.9711
18.8771
18.7855
18.6965
18.6103
18.5271
18.4468
18.3697
18.2956
18.2245
18.1561
18.0899
18.0255
17.9623
17.8994
17.8362
17.7721
17.7068
17.6399
17.5713
17.5012
17.4298
17.3572
17.2839
17.2101
17.1363
17.0628
16.9897
16.9174
16.8461
16.7757
16.7065
16.6384
16.5716
16.5061
16.4418
16.3788
16.3171
16.2568
16.1978
16.1401
19.2673
19.1663
19.0673
18.9704
18.8756
18.7831
18.693
18.6053
18.5202
18.4377
18.3577
18.2803
18.2052
18.1323
18.0612
17.9915
17.9226
17.8542
17.7858
17.7168
17.6472
17.5766
17.505
17.4325
17.3593
17.2854
17.2113
17.137
17.063
16.9893
16.9163
16.844
16.7726
16.7022
16.6329
16.5646
16.4976
16.4316
16.3669
16.3033
16.241
16.1798
16.1197
16.0608
19.2678
19.1666
19.0673
18.9699
18.8745
18.7813
18.6902
18.6014
18.5148
18.4304
18.3483
18.2684
18.1905
18.1144
18.0397
17.9663
17.8938
17.8217
17.7497
17.6775
17.605
17.5321
17.4586
17.3846
17.3102
17.2356
17.161
17.0865
17.0124
16.9387
16.8657
16.7935
16.7222
16.6518
16.5824
16.5141
16.4469
16.3808
16.3157
16.2518
16.1889
16.1271
16.0663
16.0066
19.2683
19.1669
19.0673
18.9696
18.8737
18.7799
18.688
18.5982
18.5105
18.4248
18.3411
18.2593
18.1792
18.1008
18.0237
17.9477
17.8725
17.7978
17.7234
17.6492
17.5748
17.5002
17.4255
17.3506
17.2756
17.2006
17.1257
17.0512
16.9771
16.9035
16.8306
16.7586
16.6873
16.6171
16.5477
16.4794
16.4121
16.3458
16.2806
16.2164
16.1531
16.0909
16.0296
15.9692
19.2689
19.1673
19.0674
18.9694
18.8732
18.7788
18.6864
18.5958
18.5072
18.4204
18.3354
18.2522
18.1706
18.0904
18.0115
17.9336
17.8566
17.7802
17.7041
17.6284
17.5527
17.4772
17.4016
17.3261
17.2507
17.1755
17.1006
17.0261
16.9521
16.8787
16.8061
16.7342
16.6631
16.5929
16.5237
16.4554
16.3881
16.3218
16.2564
16.192
16.1285
16.0659
16.0042
15.9433
19.2694
19.1676
19.0676
18.9693
18.8728
18.778
18.6851
18.5939
18.5046
18.417
18.3311
18.2468
18.164
18.0825
18.0023
17.9231
17.8447
17.767
17.6898
17.613
17.5365
17.4602
17.3842
17.3083
17.2327
17.1575
17.0826
17.0082
16.9344
16.8612
16.7887
16.717
16.6461
16.5761
16.507
16.4388
16.3715
16.3051
16.2396
16.1751
16.1114
16.0486
15.9865
15.9253
19.2698
19.168
19.0678
18.9693
18.8725
18.7775
18.6841
18.5925
18.5026
18.4143
18.3277
18.2426
18.1589
18.0765
17.9953
17.9151
17.8357
17.7571
17.6791
17.6016
17.5245
17.4477
17.3713
17.2953
17.2196
17.1443
17.0695
16.9952
16.9216
16.8486
16.7763
16.7048
16.6341
16.5643
16.4953
16.4271
16.3599
16.2935
16.228
16.1634
16.0995
16.0365
15.9742
15.9126
19.2703
19.1683
19.068
18.9694
18.8724
18.7771
18.6834
18.5914
18.5011
18.4123
18.3251
18.2394
18.155
18.0719
17.99
17.9091
17.829
17.7497
17.6711
17.5931
17.5155
17.4385
17.3618
17.2857
17.2099
17.1347
17.06
16.9859
16.9124
16.8396
16.7675
16.6962
16.6256
16.5559
16.4871
16.419
16.3518
16.2855
16.2199
16.1552
16.0913
16.0281
15.9656
15.9038
19.2706
19.1686
19.0682
18.9695
18.8723
18.7768
18.6829
18.5907
18.5
18.4109
18.3232
18.237
18.1522
18.0685
17.986
17.9046
17.824
17.7443
17.6652
17.5868
17.509
17.4317
17.3549
17.2786
17.2029
17.1277
17.0531
16.9791
16.9058
16.8331
16.7612
16.69
16.6197
16.5501
16.4813
16.4134
16.3462
16.2799
16.2143
16.1496
16.0855
16.0222
15.9596
15.8976
19.271
19.1689
19.0684
18.9695
18.8723
18.7766
18.6826
18.5901
18.4992
18.4098
18.3218
18.2353
18.15
18.066
17.9831
17.9013
17.8204
17.7403
17.6609
17.5822
17.5042
17.4268
17.3499
17.2736
17.1978
17.1227
17.0482
16.9743
16.9011
16.8285
16.7568
16.6857
16.6155
16.546
16.4773
16.4094
16.3423
16.276
16.2105
16.1457
16.0816
16.0182
15.9554
15.8933
19.2712
19.1691
19.0686
18.9696
18.8723
18.7765
18.6823
18.5897
18.4986
18.409
18.3209
18.2341
18.1486
18.0643
17.9812
17.8991
17.8179
17.7375
17.658
17.5791
17.501
17.4234
17.3465
17.2701
17.1944
17.1193
17.0448
16.971
16.8979
16.8255
16.7538
16.6829
16.6127
16.5433
16.4747
16.4069
16.3398
16.2735
16.2079
16.1431
16.079
16.0155
15.9527
15.8904
19.2714
19.1693
19.0687
18.9697
18.8723
18.7765
18.6822
18.5895
18.4983
18.4085
18.3202
18.2333
18.1476
18.0632
17.9799
17.8976
17.8162
17.7357
17.656
17.5771
17.4988
17.4212
17.3442
17.2678
17.1921
17.1171
17.0426
16.9689
16.8958
16.8235
16.7519
16.681
16.6109
16.5416
16.473
16.4052
16.3382
16.2719
16.2063
16.1415
16.0773
16.0138
15.9509
15.8886
19.2715
19.1694
19.0688
18.9698
18.8724
18.7765
18.6822
18.5895
18.4982
18.4084
18.32
18.233
18.1473
18.0628
17.9794
17.897
17.8155
17.735
17.6552
17.5762
17.4979
17.4203
17.3433
17.2669
17.1912
17.1161
17.0417
16.968
16.895
16.8227
16.7511
16.6802
16.6102
16.5409
16.4723
16.4045
16.3375
16.2712
16.2057
16.1408
16.0767
16.0131
15.9502
15.8879
18.0616
17.9781
17.8957
17.8142
17.7336
17.6538
17.5747
17.4963
17.4186
17.3416
17.2652
17.1894
17.1143
17.0398
16.9661
16.893
16.8206
16.749
16.6781
16.608
16.5387
16.4701
18.062
17.9786
17.8962
17.8148
17.7343
17.6545
17.5755
17.4972
17.4195
17.3425
17.2661
17.1903
17.1152
17.0407
16.9669
16.8938
16.8214
16.7498
16.6789
16.6087
16.5393
16.4707
18.0631
17.9799
17.8977
17.8165
17.7361
17.6565
17.5775
17.4993
17.4217
17.3447
17.2683
17.1925
17.1174
17.0429
16.969
16.8959
16.8234
16.7517
16.6807
16.6105
16.541
16.4724
18.0648
17.9818
17.8999
17.8189
17.7387
17.6593
17.5806
17.5025
17.425
17.348
17.2717
17.1959
17.1207
17.0461
16.9722
16.8989
16.8264
16.7545
16.6834
16.6131
16.5436
16.4749
18.0672
17.9846
17.9031
17.8225
17.7426
17.6635
17.585
17.5071
17.4298
17.3529
17.2766
17.2008
17.1256
17.0509
16.9769
16.9035
16.8308
16.7588
16.6876
16.6172
16.5475
16.4787
18.0705
17.9885
17.9074
17.8273
17.748
17.6693
17.5912
17.5135
17.4364
17.3597
17.2835
17.2077
17.1324
17.0576
16.9834
16.9099
16.837
16.7649
16.6935
16.6229
16.5532
16.4842
18.0749
17.9936
17.9133
17.8339
17.7552
17.6771
17.5995
17.5223
17.4455
17.369
17.2929
17.2171
17.1418
17.0669
16.9926
16.9189
16.8459
16.7735
16.702
16.6312
16.5613
16.4922
18.0809
18.0005
17.9212
17.8427
17.7649
17.6876
17.6107
17.5341
17.4578
17.3816
17.3057
17.2301
17.1547
17.0798
17.0054
16.9315
16.8582
16.7857
16.7139
16.643
16.5729
16.5038
18.0887
18.0096
17.9316
17.8545
17.7779
17.7018
17.6259
17.5502
17.4745
17.3988
17.3233
17.2478
17.1726
17.0976
17.0231
16.949
16.8756
16.8029
16.7309
16.6598
16.5896
16.5203
18.0989
18.0217
17.9455
17.8702
17.7954
17.7208
17.6464
17.5719
17.4972
17.4224
17.3474
17.2723
17.1973
17.1224
17.0478
16.9736
16.9001
16.8272
16.7551
16.6838
16.6135
16.5441
18.1124
18.0376
17.964
17.8912
17.8189
17.7467
17.6744
17.6017
17.5286
17.455
17.3809
17.3065
17.2319
17.1572
17.0827
17.0086
16.9349
16.8619
16.7897
16.7184
16.648
16.5786
18.1301
18.0588
17.9888
17.9198
17.8511
17.7824
17.7132
17.6433
17.5725
17.5008
17.4282
17.3549
17.2811
17.2069
17.1327
17.0587
16.985
16.912
16.8398
16.7685
16.6981
16.6288
18.1538
18.0873
18.0226
17.959
17.8957
17.8322
17.7677
17.7021
17.6349
17.5662
17.496
17.4245
17.3519
17.2787
17.205
17.1314
17.0579
16.9851
16.9129
16.8416
16.7714
16.7023
18.1853
18.126
18.0691
18.0137
17.9587
17.9031
17.846
17.7869
17.7253
17.6613
17.5948
17.5262
17.4558
17.384
17.3113
17.2382
17.1651
17.0925
17.0205
16.9494
16.8794
16.8106
18.2279
18.1792
18.1341
18.0912
18.0491
18.006
17.9606
17.9118
17.8592
17.8025
17.742
17.6778
17.6106
17.541
17.4697
17.3975
17.3249
17.2525
17.1807
17.1099
17.0402
16.9718
18.2857
18.2528
18.2258
18.2028
18.1813
18.1586
18.1323
18.1007
18.0628
18.0182
17.9671
17.9101
17.8478
17.7814
17.712
17.6407
17.5686
17.4964
17.4248
17.3542
17.285
17.2173
18.3642
18.3556
18.3577
18.3679
18.3819
18.3947
18.4018
18.3999
18.3874
18.3634
18.3281
18.2824
18.2276
18.1655
18.0982
18.0275
17.9553
17.8827
17.8109
17.7403
17.6716
17.605
18.472
18.5028
18.5545
18.6237
18.7031
18.7824
18.8519
18.9047
18.9373
18.9486
18.9393
18.9108
18.8659
18.8081
18.7416
18.67
18.5962
18.5223
18.4497
18.3794
18.3122
18.2485
18.6224
18.7184
18.8583
19.0393
19.2472
19.4591
19.6518
19.8092
19.9243
19.9954
20.026
20.0209
19.9859
19.9295
19.8648
19.7945
19.7209
19.6457
19.5723
19.5043
19.4426
19.388
21.9484
21.8804
21.8094
21.7395
21.672
21.618
21.5799
21.5591
26.1292
26.064
26.0044
25.9568
25.9366
25.9686
26.0541
26.196
18.3954
18.3246
18.2802
18.2795
18.5735
18.4859
18.4076
18.3481
18.3225
18.3522
18.4602
18.5756
18.4909
18.4179
18.368
18.3589
18.4157
18.5652
18.5772
18.4942
18.4244
18.3801
18.3807
18.4534
18.6276
18.9197
18.5772
18.4942
18.4244
18.3801
18.3807
18.4534
18.6275
18.9193
18.8524
18.7584
18.6657
18.5756
18.4908
18.4179
18.368
18.359
18.4158
18.5653
18.8219
18.948
18.8528
18.7585
18.6652
18.5735
18.4859
18.4076
18.3482
18.3227
18.3525
18.4605
18.6591
18.9487
18.8534
18.7589
18.6647
18.5713
18.4802
18.3954
18.3246
18.2804
18.2798
18.3427
18.4808
18.9499
18.8547
18.76
18.6653
18.5705
18.4762
18.3853
18.3038
18.242
18.2145
18.2385
18.3279
18.9517
18.8568
18.7623
18.6676
18.5719
18.4756
18.3803
18.2905
18.2152
18.1678
18.1648
18.2225
18.3488
19.0496
18.9542
18.8599
18.7661
18.6721
18.5768
18.48
18.3827
18.2886
18.2054
18.1465
18.1296
18.1741
18.2949
19.1487
19.052
18.9573
18.8641
18.7717
18.6792
18.5858
18.4908
18.3948
18.3008
18.2167
18.1565
18.1405
18.1932
18.3365
19.1508
19.0549
18.9612
18.8694
18.779
18.6892
18.5994
18.5088
18.418
18.3303
18.2541
18.2056
18.2111
18.3048
18.5209
19.1532
19.0581
18.9656
18.8756
18.7879
18.7021
18.6177
18.5347
18.4541
18.3803
18.3241
18.3082
18.3745
18.5839
19.0004
19.6553
20.52
21.6839
23.362
19.1558
19.0615
18.9704
18.8826
18.7982
18.7174
18.6404
18.5683
18.5038
18.4539
18.4363
18.4928
18.7146
19.2808
20.3301
20.6468
21.7814
23.5881
26.1857
19.1583
19.0649
18.9753
18.8898
18.8091
18.7341
18.6663
18.6082
18.5656
18.5521
18.6014
18.7998
19.3956
20.8828
21.3792
24.3699
30.5807
42.2608
57.6853
73.5258
19.1607
19.0682
18.9799
18.8967
18.8198
18.7509
18.6928
18.6507
18.6349
18.6698
18.8146
19.2358
20.5256
23.8567
26.2293
41.3404
65.6674
204.927
511.624
878.891
19.1628
19.071
18.9839
18.9027
18.8291
18.7657
18.7168
18.69
18.7015
18.7862
19.0298
19.6904
21.3965
22.7598
32.5056
85.7875
235.059
1035.31
19.1646
19.0732
18.987
18.9072
18.836
18.7766
18.7345
18.7195
18.7509
18.8702
19.1734
19.9254
21.7279
23.258
34.1034
60.4013
327.35
19.166
19.0748
18.9888
18.9097
18.8397
18.7824
18.7436
18.7339
18.773
18.9009
19.2042
19.891
21.5451
25.2822
29.3648
56.4864
135.127
769.678
799.734
531.693
19.1669
19.0755
18.9895
18.9103
18.8402
18.7827
18.7436
18.7325
18.7668
18.8793
19.1352
19.673
20.8267
23.2402
28.018
34.1579
66.4945
147.578
272.803
355.529
370.894
343.026
310.193
254.724
230.065
174.686
168.706
165.619
164.283
163.295
162.119
160.537
158.461
155.909
152.957
149.696
146.23
142.661
139.082
135.577
132.226
129.143
19.1673
19.0756
18.989
18.909
18.8377
18.7783
18.7357
18.7179
18.7388
18.8219
19.0103
19.3849
20.1095
21.5086
23.9914
27.9616
32.3461
48.5211
68.8719
86.0272
96.0951
98.8267
97.2238
94.2023
78.0067
76.4465
75.2427
74.4392
74.6652
75.7049
77.2489
79.0927
81.0817
83.1109
85.1116
86.9977
88.7392
90.3397
91.824
93.2181
94.5346
95.9121
97.4406
19.1675
19.0752
18.9877
18.9063
18.833
18.7703
18.7223
18.6952
18.6987
18.7489
18.8718
19.1112
19.5437
20.3052
21.5765
23.4056
25.5557
28.3235
31.3334
33.9549
35.7657
36.6749
36.8597
36.8588
36.8123
36.7274
36.6531
36.6172
36.6415
36.898
37.3935
38.0967
38.9815
40.0225
41.2016
42.5064
43.9342
45.4953
47.215
49.1321
51.2954
53.7711
56.6166
19.2641
19.1674
19.0743
18.9857
18.9027
18.8269
18.7603
18.7061
18.6688
18.655
18.6748
18.7435
18.8837
19.1302
19.5349
20.1633
21.0314
22.0358
23.1319
24.2198
25.1607
25.8538
26.2712
26.4456
26.4454
26.4268
26.3786
26.3189
26.2588
26.206
26.1684
26.1823
26.2525
26.3813
26.5707
26.8244
27.1481
27.5512
28.0474
28.6571
29.4087
30.3379
31.4875
32.9107
19.2644
19.1671
19.0732
18.9834
18.8987
18.8201
18.7495
18.6891
18.6421
18.6127
18.6072
18.6341
18.7049
18.8348
19.0427
19.3478
19.754
20.2278
20.7214
21.183
21.5697
21.8579
22.0431
22.1349
22.1521
22.1181
22.072
22.0145
21.9492
21.8814
21.814
21.7559
21.7136
21.6886
21.6821
21.6964
21.7344
21.8005
21.9006
22.0437
22.2415
22.5099
22.8668
23.3354
19.2647
19.1667
19.072
18.981
18.8945
18.8133
18.7388
18.6726
18.6169
18.5745
18.5489
18.5447
18.5677
18.6243
18.7207
18.8611
19.0433
19.253
19.4676
19.6637
19.8253
19.9434
20.0176
20.0502
20.0466
20.013
19.9581
19.8922
19.8209
19.7468
19.6729
19.6034
19.5397
19.4827
19.4332
19.3919
19.3598
19.3384
19.3296
19.3363
19.3624
19.4131
19.4948
19.6148
19.2649
19.1664
19.0708
18.9787
18.8905
18.8069
18.7289
18.6576
18.5945
18.5414
18.5003
18.4737
18.464
18.4738
18.5049
18.5571
18.627
18.7073
18.7877
18.8586
18.9127
18.9464
18.9586
18.9499
18.9218
18.8772
18.8199
18.754
18.683
18.61
18.5369
18.4655
18.3965
18.3308
18.2687
18.2108
18.1574
18.109
18.0664
18.0306
18.0028
17.9847
17.9783
17.9856
19.2651
19.1661
19.0698
18.9765
18.8868
18.801
18.72
18.6444
18.5752
18.5136
18.4607
18.4178
18.386
18.3659
18.3575
18.36
18.3705
18.385
18.3984
18.406
18.4046
18.3925
18.3687
18.3335
18.2877
18.2329
18.1708
18.1036
18.0331
17.9611
17.8889
17.8174
17.7474
17.6793
17.6134
17.5499
17.4891
17.4313
17.3766
17.3256
17.2787
17.2364
17.1995
17.1684
19.2654
19.1659
19.0689
18.9747
18.8836
18.796
18.7123
18.6332
18.5591
18.4908
18.429
18.3742
18.327
18.2872
18.2545
18.2277
18.205
18.1837
18.1613
18.1353
18.1039
18.0661
18.0215
17.9704
17.9132
17.8508
17.7843
17.7148
17.6435
17.5713
17.4992
17.4277
17.3573
17.2882
17.2208
17.1551
17.0913
17.0294
16.9698
16.9124
16.8576
16.8055
16.7564
16.7105
19.2658
19.1658
19.0682
18.9731
18.8808
18.7916
18.7058
18.6238
18.5459
18.4725
18.404
18.3406
18.2824
18.2293
18.1808
18.1358
18.0931
18.0512
18.0082
17.9629
17.9143
17.8617
17.805
17.7444
17.6801
17.6128
17.5431
17.4717
17.3993
17.3267
17.2542
17.1825
17.1117
17.0421
16.9738
16.907
16.8416
16.7779
16.7158
16.6554
16.5969
16.5403
16.4857
16.4333
19.2662
19.1658
19.0676
18.9718
18.8786
18.788
18.7005
18.6161
18.5351
18.4578
18.3843
18.3147
18.2489
18.1866
18.1275
18.0707
18.0154
17.9605
17.905
17.848
17.789
17.7274
17.6634
17.5969
17.5282
17.4577
17.3858
17.313
17.2399
17.1668
17.0941
17.0221
16.951
16.8811
16.8123
16.7448
16.6786
16.6138
16.5504
16.4884
16.428
16.3691
16.3117
16.256
19.2666
19.1659
19.0673
18.9709
18.8767
18.7851
18.6961
18.6099
18.5265
18.4462
18.369
18.2948
18.2236
18.155
18.0887
18.0241
17.9605
17.8974
17.8339
17.7696
17.7039
17.6368
17.5681
17.4979
17.4264
17.3538
17.2805
17.2068
17.1331
17.0597
16.9868
16.9147
16.8434
16.7732
16.7041
16.6362
16.5695
16.5041
16.4399
16.377
16.3154
16.2552
16.1962
16.1386
19.2671
19.1661
19.0671
18.9701
18.8753
18.7828
18.6926
18.6049
18.5197
18.4371
18.357
18.2795
18.2044
18.1313
18.0601
17.9902
17.9212
17.8526
17.784
17.7149
17.645
17.5743
17.5026
17.43
17.3567
17.2829
17.2087
17.1345
17.0605
16.9869
16.9139
16.8417
16.7704
16.7001
16.6309
16.5627
16.4957
16.4299
16.3652
16.3017
16.2394
16.1782
16.1182
16.0593
19.2676
19.1664
19.067
18.9696
18.8742
18.781
18.6898
18.6009
18.5143
18.4299
18.3477
18.2677
18.1897
18.1135
18.0388
17.9653
17.8926
17.8203
17.7482
17.676
17.6034
17.5303
17.4567
17.3827
17.3083
17.2337
17.1591
17.0846
17.0105
16.9369
16.8639
16.7918
16.7205
16.6502
16.5809
16.5126
16.4454
16.3793
16.3143
16.2504
16.1875
16.1258
16.065
16.0053
19.2681
19.1667
19.0671
18.9693
18.8735
18.7796
18.6877
18.5978
18.51
18.4243
18.3405
18.2586
18.1785
18.1
18.0228
17.9467
17.8714
17.7967
17.7223
17.6479
17.5735
17.4988
17.4241
17.3491
17.2741
17.1991
17.1243
17.0497
16.9756
16.9021
16.8293
16.7572
16.686
16.6158
16.5465
16.4782
16.4109
16.3447
16.2795
16.2152
16.152
16.0898
16.0285
15.9681
19.2687
19.1671
19.0672
18.9691
18.8729
18.7785
18.686
18.5954
18.5067
18.4199
18.3349
18.2516
18.1699
18.0897
18.0107
17.9328
17.8557
17.7792
17.7032
17.6273
17.5516
17.476
17.4005
17.325
17.2496
17.1744
17.0995
17.025
16.951
16.8776
16.805
16.7331
16.6621
16.5919
16.5227
16.4545
16.3872
16.3208
16.2555
16.1911
16.1276
16.065
16.0033
15.9424
19.2692
19.1674
19.0674
18.9691
18.8725
18.7777
18.6848
18.5936
18.5042
18.4165
18.3306
18.2462
18.1634
18.0819
18.0016
17.9223
17.8439
17.7662
17.689
17.6121
17.5356
17.4593
17.3832
17.3074
17.2318
17.1565
17.0817
17.0073
16.9335
16.8603
16.7878
16.7161
16.6453
16.5753
16.5062
16.438
16.3707
16.3044
16.2389
16.1744
16.1107
16.0479
15.9858
15.9246
19.2697
19.1678
19.0676
18.9691
18.8723
18.7772
18.6838
18.5922
18.5022
18.414
18.3273
18.2421
18.1584
18.076
17.9947
17.9144
17.8351
17.7564
17.6784
17.6008
17.5237
17.447
17.3705
17.2945
17.2188
17.1435
17.0688
16.9945
16.9209
16.8479
16.7756
16.7042
16.6335
16.5636
16.4947
16.4265
16.3593
16.293
16.2275
16.1628
16.099
16.036
15.9737
15.9121
19.2701
19.1682
19.0679
18.9692
18.8722
18.7769
18.6832
18.5912
18.5008
18.412
18.3248
18.239
18.1546
18.0715
17.9895
17.9085
17.8285
17.7492
17.6705
17.5925
17.5149
17.4379
17.3612
17.285
17.2093
17.1341
17.0594
16.9853
16.9118
16.839
16.767
16.6957
16.6252
16.5555
16.4866
16.4186
16.3514
16.2851
16.2195
16.1548
16.0909
16.0277
15.9652
15.9034
19.2706
19.1685
19.0681
18.9693
18.8722
18.7767
18.6828
18.5905
18.4998
18.4106
18.323
18.2367
18.1518
18.0682
17.9857
17.9042
17.8236
17.7438
17.6648
17.5863
17.5085
17.4312
17.3544
17.2782
17.2024
17.1273
17.0527
16.9787
16.9054
16.8327
16.7608
16.6897
16.6193
16.5498
16.481
16.4131
16.3459
16.2796
16.2141
16.1493
16.0853
16.022
15.9593
15.8973
19.2709
19.1688
19.0684
18.9695
18.8722
18.7765
18.6825
18.59
18.499
18.4096
18.3216
18.2351
18.1498
18.0658
17.9829
17.901
17.82
17.7399
17.6606
17.5819
17.5038
17.4264
17.3495
17.2732
17.1975
17.1224
17.0478
16.974
16.9008
16.8283
16.7565
16.6855
16.6153
16.5458
16.4771
16.4093
16.3422
16.2759
16.2103
16.1455
16.0814
16.018
15.9553
15.8932
19.2712
19.1691
19.0685
18.9696
18.8722
18.7765
18.6823
18.5896
18.4985
18.4089
18.3207
18.2339
18.1484
18.0641
17.9809
17.8988
17.8176
17.7372
17.6577
17.5788
17.5007
17.4231
17.3462
17.2698
17.1941
17.119
17.0446
16.9708
16.8977
16.8253
16.7536
16.6827
16.6126
16.5432
16.4746
16.4068
16.3397
16.2734
16.2079
16.143
16.0789
16.0155
15.9526
15.8904
19.2714
19.1692
19.0687
18.9697
18.8723
18.7764
18.6821
18.5894
18.4982
18.4084
18.3201
18.2331
18.1474
18.063
17.9796
17.8973
17.816
17.7355
17.6558
17.5768
17.4985
17.4209
17.344
17.2676
17.1919
17.1168
17.0424
16.9687
16.8957
16.8233
16.7517
16.6809
16.6108
16.5415
16.4729
16.4051
16.3381
16.2718
16.2063
16.1414
16.0773
16.0138
15.9509
15.8886
19.2715
19.1694
19.0688
18.9698
18.8723
18.7765
18.6821
18.5894
18.4981
18.4083
18.3199
18.2329
18.1471
18.0626
17.9791
17.8967
17.8153
17.7347
17.655
17.576
17.4976
17.42
17.343
17.2667
17.191
17.1159
17.0415
16.9678
16.8948
16.8225
16.7509
16.6801
16.6101
16.5408
16.4722
16.4045
16.3375
16.2712
16.2057
16.1408
16.0766
16.0131
15.9502
15.8879
18.0613
17.9778
17.8953
17.8138
17.7332
17.6533
17.5743
17.4959
17.4182
17.3412
17.2648
17.1891
17.114
17.0396
16.9658
16.8928
16.8205
16.7489
16.678
16.6079
16.5386
16.47
18.0616
17.9782
17.8958
17.8144
17.7338
17.6541
17.5751
17.4967
17.4191
17.3421
17.2657
17.1899
17.1149
17.0404
16.9667
16.8936
16.8212
16.7496
16.6787
16.6086
16.5392
16.4706
18.0627
17.9794
17.8972
17.8159
17.7355
17.6559
17.577
17.4988
17.4212
17.3442
17.2678
17.1921
17.1169
17.0425
16.9686
16.8955
16.8231
16.7514
16.6804
16.6103
16.5408
16.4722
18.0642
17.9812
17.8992
17.8182
17.738
17.6586
17.5798
17.5017
17.4242
17.3473
17.2709
17.1952
17.12
17.0455
16.9716
16.8983
16.8258
16.754
16.683
16.6127
16.5432
16.4745
18.0663
17.9837
17.9021
17.8214
17.7416
17.6624
17.5839
17.506
17.4287
17.3518
17.2755
17.1997
17.1245
17.0499
16.9758
16.9025
16.8298
16.7579
16.6867
16.6163
16.5467
16.4779
18.0692
17.9871
17.906
17.8259
17.7465
17.6677
17.5896
17.512
17.4348
17.3581
17.2819
17.2061
17.1308
17.0561
16.9819
16.9084
16.8356
16.7635
16.6921
16.6216
16.5519
16.4829
18.0733
17.9919
17.9116
17.8321
17.7533
17.6751
17.5975
17.5203
17.4434
17.3669
17.2908
17.2151
17.1397
17.0649
16.9906
16.9169
16.8439
16.7716
16.7001
16.6294
16.5595
16.4905
18.079
17.9986
17.9192
17.8406
17.7627
17.6853
17.6084
17.5317
17.4553
17.3792
17.3032
17.2276
17.1523
17.0774
17.0029
16.9291
16.8559
16.7834
16.7117
16.6408
16.5707
16.5016
18.0866
18.0075
17.9294
17.8521
17.7754
17.6992
17.6232
17.5474
17.4716