/*--------------------------------*- C++ -*----------------------------------*\
  =========                 |
  \\      /  F ield         | OpenFOAM: The Open Source CFD Toolbox
   \\    /   O peration     | Website:  https://openfoam.org
    \\  /    A nd           | Version:  13
     \\/     M anipulation  |
\*---------------------------------------------------------------------------*/
FoamFile
{
    format      ascii;
    class       volScalarField;
    location    "900";
    object      p;
}
// * * * * * * * * * * * * * * * * * * * * * * * * * * * * * * * * * * * * * //

dimensions      [0 2 -2 0 0 0 0];

internalField   nonuniform List<scalar> 
171634
(
8.3658
7.85866
7.34329
6.82263
6.29965
5.77717
5.25773
4.74347
4.23613
3.73692
3.24652
2.76505
2.29217
1.82707
1.36857
0.915179
0.465206
0.0168572
-0.431638
-0.881932
-1.33547
-1.79345
8.36597
7.85511
7.33601
6.81173
6.28537
5.75987
5.23787
4.72161
4.21289
3.71294
3.22244
2.74147
2.26961
1.80596
1.34924
0.897851
0.449992
0.00377378
-0.442671
-0.891082
-1.34299
-1.79965
8.36878
7.8504
7.32372
6.79206
6.25878
5.72706
5.19977
4.67935
4.16771
3.66614
3.1753
2.69522
2.22533
1.76455
1.31138
0.864016
0.420421
-0.0215027
-0.463821
-0.908448
-1.35707
-1.81109
8.37295
7.8429
7.30444
6.76131
6.21726
5.67588
5.1404
4.61356
4.09745
3.59346
3.10222
2.62364
2.15695
1.70078
1.25329
0.812318
0.375477
-0.0596723
-0.495502
-0.934201
-1.37769
-1.82756
8.37897
7.83271
7.27786
6.71871
6.15963
5.60479
5.05794
4.52223
4.00002
3.49284
3.00127
2.52505
2.06309
1.61361
1.17429
0.742471
0.315248
-0.110295
-0.536964
-0.967323
-1.40361
-1.84766
8.38662
7.81899
7.24244
6.66205
6.08302
5.51033
4.94847
4.40115
3.87111
3.36002
2.86842
2.39577
1.94054
1.50039
1.07235
0.653045
0.238894
-0.173666
-0.588013
-1.0072
-1.43385
-1.87012
8.3961
7.80112
7.19666
6.58888
5.98411
5.38845
4.80735
4.2453
3.70555
3.18994
2.69892
2.23157
1.78574
1.35832
0.945447
0.542822
0.145956
-0.249554
-0.647814
-1.05248
-1.46665
-1.89285
8.40767
7.77827
7.13849
6.49592
5.85843
5.23361
4.62824
4.04784
3.4963
2.97572
2.48634
2.02669
1.59381
1.18352
0.790776
0.410048
0.0356663
-0.337842
-0.71549
-1.10165
-1.49999
-1.91341
8.42196
7.74966
7.06557
6.37915
5.70034
5.03877
4.40302
3.79998
3.2344
2.7086
2.22254
1.77398
1.35879
0.97137
0.60511
0.252859
-0.0925829
-0.438037
-0.789625
-1.15257
-1.53112
-1.9286
8.44015
7.71464
6.97512
6.23356
5.50268
4.79489
4.12122
3.49041
2.90825
2.37736
1.89718
1.46436
1.07321
0.716197
0.3846
0.0691513
-0.239322
-0.549331
-0.868324
-1.20247
-1.55666
-1.93455
8.46425
7.67288
6.86405
6.05307
5.25645
4.49042
3.76937
3.10453
2.50303
1.96768
1.49717
1.08656
0.727953
0.411237
0.124873
-0.143208
-0.404723
-0.670285
-0.948897
-1.24775
-1.5723
-1.92648
8.4976
7.62471
6.72902
5.83031
4.9503
4.11054
3.3301
2.62353
1.99965
1.46135
1.00603
0.626514
0.311886
0.0485098
-0.178934
-0.386228
-0.588381
-0.798599
-1.02766
-1.28377
-1.57279
-1.89869
8.54554
7.57167
6.56673
5.55648
4.56993
3.63614
2.78076
2.0229
1.37344
0.834985
0.402937
0.0668329
-0.188382
-0.381138
-0.531869
-0.661324
-0.78878
-0.930604
-1.0995
-1.30454
-1.55166
-1.84444
8.61654
7.51737
6.3743
5.22122
4.09733
3.04255
2.09193
1.27081
0.592464
0.0585913
-0.338603
-0.614219
-0.789058
-0.888131
-0.938887
-0.96879
-1.00267
-1.06066
-1.15741
-1.3024
-1.50105
-1.75591
8.72363
7.46878
6.14994
4.81198
3.50881
2.29646
1.2239
0.324978
-0.384739
-0.905924
-1.25145
-1.44294
-1.5089
-1.48344
-1.4038
-1.30665
-1.22402
-1.18038
-1.19194
-1.26773
-1.41162
-1.62414
8.88672
7.43887
5.89603
4.31706
2.77663
1.35483
0.122355
-0.873712
-1.6158
-2.11023
-2.37856
-2.452
-2.36948
-2.17751
-1.92723
-1.66819
-1.44169
-1.27672
-1.18993
-1.18834
-1.27263
-1.43989
9.1398
7.45546
5.62637
3.72997
1.87171
0.168885
-1.27562
-2.39656
-3.17357
-3.6213
-3.7753
-3.68179
-3.39504
-2.97926
-2.50538
-2.0409
-1.63863
-1.33125
-1.13356
-1.04799
-1.06971
-1.19044
9.53521
7.56077
5.36241
3.04147
0.749037
-1.33858
-3.06667
-4.34353
-5.15076
-5.5218
-5.50979
-5.17859
-4.60669
-3.88638
-3.11893
-2.39677
-1.7852
-1.31745
-1.00178
-0.831761
-0.793745
-0.87156
10.1422
7.81407
5.13606
2.23696
-0.664389
-3.29251
-5.40343
-6.86892
-7.6871
-7.9281
-7.67309
-7.00557
-6.03292
-4.89309
-3.73678
-2.69192
-1.83468
-1.19101
-0.755087
-0.505901
-0.416719
-0.460271
-4.28534
-2.86455
-1.74466
-0.929142
-0.387921
-0.0790918
0.0417919
0.0162822
-4.57202
-2.73605
-1.36387
-0.407458
0.199901
0.528171
0.644222
0.606636
32.4359
32.4936
32.188
31.4202
31.7229
32.2369
32.5426
32.5615
32.2001
31.3565
29.941
31.8313
32.3374
32.6296
32.6271
32.2334
31.3449
29.869
31.8844
32.3871
32.6733
32.6608
32.2516
31.3417
29.8352
27.6627
31.8819
32.3841
32.6698
32.6566
32.2466
31.3354
29.8276
27.6534
29.6187
30.4222
31.1707
31.8235
32.3284
32.619
32.6145
32.2182
31.3264
29.8466
27.7115
28.6792
29.5037
30.3053
31.054
31.71
32.222
32.5252
32.5409
32.1754
31.3268
29.9052
27.8479
28.5164
29.3372
30.138
30.8901
31.5551
32.0834
32.4123
32.4659
32.1552
31.381
30.0523
28.1086
28.3055
29.1234
29.9266
30.688
31.3716
31.9303
32.3046
32.4216
32.1965
31.5333
30.3356
28.5369
28.0497
28.8669
29.6772
30.4563
31.1714
31.7794
32.2245
32.4376
32.3362
31.8255
30.8009
29.1766
26.9023
26.9497
27.7508
28.5698
29.3926
30.1987
30.9602
31.6392
32.185
32.5327
32.6008
32.2909
31.4862
30.0696
27.9509
25.8521
26.6133
27.4085
28.231
29.0708
29.9127
30.735
31.5067
32.1847
32.7094
33.0002
32.9506
32.4245
31.2621
29.3076
25.4859
26.2325
27.02
27.8457
28.7043
29.5873
30.4808
31.3635
32.2023
32.9465
33.519
33.8054
33.6414
32.8088
31.0485
25.0766
25.8045
26.5804
27.4054
28.2799
29.2027
30.1699
31.172
32.1906
33.1896
34.1023
34.8157
35.1367
34.7649
33.2951
30.2807
25.5249
18.9119
11.0104
24.6231
25.3262
26.0832
26.899
27.7797
28.7317
29.7618
30.8752
32.0719
33.3382
34.634
35.8659
36.8313
37.151
36.2169
33.2095
27.7843
20.9947
11.5221
24.1246
24.7946
25.5221
26.3152
27.1844
28.1432
29.2082
30.3989
31.7361
33.2358
34.9008
36.6891
38.45
39.8155
39.9965
37.5547
32.0492
22.1958
8.96594
-5.75807
23.5813
24.2083
24.8928
25.6449
26.4777
27.4088
28.4611
29.6647
31.0559
32.6764
34.5729
36.7764
39.2589
41.8057
42.7871
42.2333
37.3394
25.4928
9.87417
-14.4949
-35.7294
22.9958
23.5689
24.1954
24.8853
25.6518
26.5122
27.4899
28.6154
29.9254
31.4662
33.2907
35.445
37.9303
40.629
42.9214
44.0431
40.7439
32.2907
9.56277
-26.788
-75.7195
-71.1918
22.3731
22.8817
23.4356
24.0425
24.7125
25.4581
26.2962
27.2456
28.3249
29.5496
30.9174
32.3814
33.7808
34.7126
36.5697
34.0529
23.5064
6.53311
-44.5968
-154.789
-85.2558
-44.7919
21.7208
22.1564
22.6254
23.1321
23.681
24.2766
24.923
25.6206
26.357
27.0939
27.7418
28.108
27.7855
25.9272
21.1865
17.6747
-0.434463
-31.282
-62.0754
-99.7872
-107.314
-63.8207
-42.9755
-22.6556
-9.47597
21.0489
21.4057
21.782
22.1776
22.5909
23.0169
23.4454
23.8581
24.213
24.4256
24.3438
23.6961
22.0087
18.4903
12.0094
1.42317
-9.40322
-29.306
-45.6201
-54.4399
-52.0313
-43.4141
-33.0948
-22.268
-11.2816
-5.74416
-2.06403
0.116105
1.43347
2.13786
2.35863
2.24717
1.94531
1.55766
1.15714
0.79799
0.522962
0.364856
0.343828
0.46083
0.684579
0.927709
20.3688
20.6445
20.9252
21.2066
21.4809
21.7353
21.9478
22.086
22.091
21.8583
21.2214
19.9234
17.583
13.6852
7.65423
-0.801544
-11.0022
-20.9005
-29.8945
-34.2318
-34.2863
-30.9808
-25.8008
-17.4877
-12.1161
-7.40919
-3.76812
-1.26898
0.328723
1.26924
1.7262
1.84277
1.7404
1.51166
1.22361
0.927126
0.66119
0.45202
0.309755
0.221176
0.139686
-0.0320295
-0.465096
19.6918
19.8877
20.075
20.2459
20.3882
20.4836
20.5035
20.4065
20.1311
19.5779
18.5991
16.9951
14.5139
10.88
5.8862
-0.425139
-7.3757
-13.678
-18.4795
-21.022
-21.501
-20.3442
-17.9907
-14.8496
-11.184
-7.59681
-4.58618
-2.33097
-0.774433
0.224732
0.797813
1.05304
1.08332
0.965146
0.757669
0.505867
0.242415
-0.0133136
-0.257935
-0.50911
-0.813306
-1.25823
-1.97949
18.8956
19.0289
19.1492
19.2492
19.3187
19.3429
19.3008
19.1617
18.8819
18.4044
17.6478
16.4965
14.8098
12.4361
9.24405
5.18886
0.406467
-4.67051
-9.31208
-12.8863
-14.9292
-15.5675
-15.0949
-13.7672
-11.7919
-9.381
-6.881
-4.62379
-2.79612
-1.44083
-0.511604
0.0645685
0.360829
0.444682
0.375275
0.200516
-0.0431809
-0.330433
-0.647809
-0.996039
-1.39341
-1.87992
-2.52202
-3.41396
18.3172
18.3893
18.4403
18.4619
18.4424
18.3661
18.2115
17.949
17.539
16.9304
16.0611
14.8505
13.2058
11.0409
8.30393
5.01721
1.32731
-2.4573
-5.894
-8.5685
-10.2696
-11.0411
-11.0281
-10.3726
-9.2019
-7.66803
-5.97712
-4.34652
-2.9401
-1.83693
-1.04353
-0.528296
-0.247085
-0.154472
-0.208482
-0.373537
-0.621994
-0.935026
-1.30376
-1.7309
-2.23272
-2.84095
-3.60218
-4.57727
17.7637
17.7804
17.77
17.7233
17.6286
17.4704
17.2283
16.876
16.3797
15.6976
14.7818
13.5804
12.0383
10.1115
7.78832
5.11499
2.21892
-0.683004
-3.31667
-5.4375
-6.914
-7.73944
-7.97989
-7.71959
-7.04933
-6.08154
-4.95359
-3.81203
-2.78211
-1.9414
-1.31751
-0.90426
-0.679318
-0.615073
-0.683881
-0.861049
-1.12688
-1.46812
-1.87912
-2.36296
-2.93242
-3.61039
-4.42886
-5.42561
17.2399
17.2077
17.1439
17.0397
16.8835
16.661
16.3541
15.9403
15.3923
14.678
13.7621
12.6104
11.1939
9.49559
7.52375
5.32756
3.00761
0.713945
-1.37776
-3.11242
-4.39662
-5.20956
-5.58277
-5.57056
-5.24044
-4.67371
-3.96291
-3.20776
-2.49941
-1.90325
-1.45304
-1.15695
-1.00786
-0.991574
-1.0916
-1.2921
-1.58
-1.94648
-2.38805
-2.90734
-3.51346
-4.22174
-5.05225
-6.0267
16.7491
16.6746
16.5657
16.4141
16.2091
15.9381
15.5855
15.1327
14.5587
13.8397
12.9514
11.8717
10.586
9.09275
7.4094
5.58088
3.68421
1.82426
0.118015
-1.3314
-2.45785
-3.2397
-3.69083
-3.84738
-3.75725
-3.47624
-3.06903
-2.60603
-2.15404
-1.76574
-1.4741
-1.29372
-1.22654
-1.2674
-1.40777
-1.63839
-1.95117
-2.34055
-2.80442
-3.34468
-3.96716
-4.68127
-5.49875
-6.43073
16.2935
16.183
16.0367
15.847
15.6044
15.2981
14.915
14.4406
13.8587
13.1524
12.3058
11.3061
10.1471
8.83352
7.38554
5.84221
4.26212
2.71964
1.2947
0.0581061
-0.942568
-1.68915
-2.18768
-2.45997
-2.53806
-2.4617
-2.27782
-2.03741
-1.78974
-1.57597
-1.42506
-1.35351
-1.36809
-1.46921
-1.65373
-1.91708
-2.25481
-2.66374
-3.14267
-3.69279
-4.31755
-5.0222
-5.81255
-6.69305
15.8739
15.7333
15.5566
15.3369
15.0663
14.7353
14.3337
13.8501
13.2724
12.5892
11.7903
10.8691
9.82483
8.66537
7.40961
6.08954
4.74988
3.44438
2.22895
1.15263
0.249488
-0.464643
-0.9903
-1.34051
-1.5373
-1.60965
-1.59194
-1.52144
-1.43471
-1.36364
-1.33259
-1.35768
-1.44778
-1.60652
-1.83425
-2.12956
-2.49053
-2.91558
-3.40411
-3.95671
-4.5751
-5.26159
-6.01819
-6.84523
15.4904
15.325
15.124
14.8813
14.5903
14.2432
13.8319
13.3477
12.7819
12.1269
11.3767
10.5286
9.58474
8.55405
7.45343
6.30863
5.15345
4.02698
2.96907
2.01479
1.18956
0.506813
-0.0317106
-0.433928
-0.715147
-0.896418
-1.00295
-1.06223
-1.10168
-1.14604
-1.21537
-1.3242
-1.48189
-1.69369
-1.96194
-2.28723
-2.66925
-3.10752
-3.60176
-4.15213
-4.75908
-5.42305
-6.14369
-6.91905
15.1424
14.9569
14.7367
14.4769
14.1716
13.8148
13.4001
12.921
12.3715
11.7466
11.0431
10.2608
9.40339
8.47952
7.50379
6.49674
5.48409
4.49475
3.55774
2.69869
1.93676
1.28289
0.739677
0.30247
-0.0393196
-0.300894
-0.500801
-0.659517
-0.797767
-0.934771
-1.08682
-1.26654
-1.48288
-1.74163
-2.04619
-2.39829
-2.79862
-3.24734
-3.74438
-4.28957
-4.88259
-5.52266
-6.20809
-6.93569
14.829
14.6272
14.3923
14.1198
13.8051
13.4433
13.0295
12.559
12.0277
11.4327
10.7724
10.0482
9.26424
8.42859
7.55355
6.65548
5.75413
4.87116
4.02808
3.24393
2.53328
1.90497
1.36188
0.90138
0.516205
0.195365
-0.074848
-0.309781
-0.525203
-0.736079
-0.955552
-1.19432
-1.46051
-1.75983
-2.09608
-2.47154
-2.88746
-3.34434
-3.84222
-4.38073
-4.95902
-5.57563
-6.22814
-6.91279
14.5487
14.3341
14.0879
13.8064
13.4858
13.1224
12.7123
12.2524
11.7398
11.1729
10.5516
9.87778
9.15575
8.39274
7.59899
6.78756
5.97376
5.17404
4.40459
3.67979
3.01085
2.40491
1.86479
1.38913
0.972952
0.608326
0.285088
-0.00831056
-0.283926
-0.553438
-0.827405
-1.11476
-1.42262
-1.7563
-2.11957
-2.51491
-2.94379
-3.40689
-3.90426
-4.4354
-4.99919
-5.59378
-6.21642
-6.8632
14.3
14.0754
13.8208
13.5331
13.2093
12.8465
12.4419
11.9932
11.4986
10.9576
10.3707
9.74005
9.06989
8.36653
7.63846
6.89619
6.15167
5.41758
4.70628
4.0288
3.39388
2.8073
2.27166
1.7864
1.34816
0.951189
0.587959
0.249743
-0.0727126
-0.388545
-0.706217
-1.03311
-1.37533
-1.73762
-2.12351
-2.53544
-2.9749
-3.44262
-3.93864
-4.46235
-5.01249
-5.58706
-6.18322
-6.79711
14.0814
13.8491
13.5882
13.2965
12.9714
12.6106
12.2123
11.7748
11.2971
10.7792
10.2221
9.62808
9.00108
8.34656
7.67158
6.98461
6.29512
5.613
4.94786
4.30827
3.70111
3.13112
2.60063
2.10959
1.65573
1.23493
0.841586
0.469082
0.11029
-0.241954
-0.594427
-0.953188
-1.32338
-1.70917
-2.1137
-2.53923
-2.98718
-3.45823
-3.95239
-4.46898
-5.00669
-5.56348
-6.13655
-6.72224
13.8914
13.6531
13.3878
13.0936
12.7684
12.4106
12.0187
11.5917
11.1293
10.6316
10.1
9.53681
8.94548
8.33077
7.69859
7.05585
6.41012
5.76925
5.14081
4.53157
3.94705
3.39114
2.86592
2.37165
1.90686
1.46857
1.05261
0.653955
0.267093
-0.113609
-0.49358
-0.877775
-1.2705
-1.6753
-2.09495
-2.53146
-2.98611
-3.45948
-3.95153
-4.46155
-4.98822
-5.52953
-6.0828
-6.64461
13.7286
13.4858
13.2174
12.9217
12.5972
12.2427
11.857
11.4397
10.9906
10.5104
10.0003
9.46257
8.90043
8.31795
7.72012
7.11262
6.50162
5.89343
5.29412
4.70914
4.14298
3.59888
3.0787
2.58289
2.11051
1.65946
1.2266
0.808112
0.399703
-0.00307367
-0.404576
-0.808851
-1.21948
-1.63947
-2.07122
-2.51645
-2.97628
-3.4512
-3.94109
-4.44523
-4.96231
-5.4904
-6.02696
-6.56882
13.5916
13.3455
13.0749
12.7786
12.4552
12.104
11.724
11.3152
10.8775
10.4119
9.91954
9.40267
8.86412
8.30744
7.7369
7.15725
6.5736
5.99111
5.41477
4.84902
4.2976
3.76325
3.24765
2.75134
2.27379
1.81349
1.36811
0.934702
0.509906
0.0901858
-0.327975
-0.747895
-1.17255
-1.60449
-2.04572
-2.49776
-2.96154
-3.43743
-3.92525
-4.42429
-4.93325
-5.45029
-5.97301
-6.49848
13.4793
13.2307
12.9588
12.6622
12.3402
11.992
11.617
11.2153
10.7872
10.3334
9.85544
9.35522
8.83533
8.29894
7.74973
7.19175
6.62932
6.06677
5.50825
4.95752
4.41773
3.89125
3.3796
2.8834
2.40239
1.93549
1.48095
1.03647
0.599395
0.166877
-0.263952
-0.695837
-1.13127
-1.57239
-2.02094
-2.47817
-2.94488
-3.42134
-3.90732
-4.40207
-4.90435
-5.4124
-5.92395
-6.43626
13.3907
13.1404
12.8676
12.5711
12.2503
11.9047
11.5339
11.1379
10.7173
10.2729
9.80613
9.31875
8.81318
8.29225
7.75922
7.21762
6.67119
6.12366
5.57861
5.03926
4.50835
3.98799
3.47958
2.98378
2.50049
2.02898
1.56788
1.11538
0.669341
0.227415
-0.21278
-0.653549
-1.09701
-1.54499
-1.99897
-2.46005
-2.92887
-3.40562
-3.89003
-4.38135
-4.87835
-5.37935
-5.88219
-6.38431
13.3251
13.0737
12.8003
12.504
12.1843
11.8407
11.4731
11.0815
10.6666
10.2291
9.7705
9.2925
8.79733
8.28758
7.7662
7.23637
6.70142
6.16467
5.62927
5.09811
4.57364
4.05777
3.55182
3.05646
2.57174
2.09711
1.63151
1.17345
0.721143
0.272609
-0.174191
-0.621247
-1.0704
-1.52325
-1.98109
-2.44488
-2.91516
-3.39204
-3.87523
-4.36397
-4.85706
-5.35286
-5.84933
-6.344
13.2818
13.0296
12.7559
12.4599
12.141
11.7988
11.4333
11.0446
10.6334
10.2005
9.74727
9.27539
8.78696
8.28444
7.77058
7.24833
6.72076
6.19093
5.66175
5.13587
4.61557
4.10263
3.59833
3.10334
2.61778
2.14125
1.67285
1.21131
0.755056
0.302344
-0.148644
-0.599696
-1.05247
-1.50842
-1.96872
-2.43422
-2.9054
-3.38233
-3.86468
-4.3517
-4.8422
-5.33459
-5.82687
-6.31668
13.2606
13.0082
12.7344
12.4385
12.1201
11.7787
11.4143
11.0272
10.618
10.1874
9.7369
9.26809
8.78305
8.28413
7.77399
7.25547
6.73153
6.20507
5.67891
5.15558
4.63727
4.12573
3.62217
3.12731
2.6413
2.16378
1.69397
1.23067
0.772448
0.317655
-0.135416
-0.588451
-1.04302
-1.50051
-1.96202
-2.42836
-2.89998
-3.37692
-3.85885
-4.34501
-4.83423
-5.32492
-5.81513
-6.30253
8.37145
7.86519
7.35068
6.83084
6.30864
5.78687
5.26805
4.75434
4.24744
3.74857
3.25841
2.77708
2.30423
1.83907
1.3804
0.92677
0.476486
0.0277749
-0.421126
-0.871852
-1.32584
-1.78428
8.37173
7.86178
7.34356
6.82014
6.29457
5.7698
5.24843
4.73273
4.22446
3.72485
3.23457
2.75373
2.28189
1.81816
1.36126
0.90961
0.461418
0.0148101
-0.432067
-0.880939
-1.33332
-1.79046
8.37475
7.85732
7.33158
6.80082
6.26837
5.73742
5.2108
4.69096
4.17977
3.67855
3.18794
2.70796
2.23807
1.77718
1.3238
0.87613
0.432158
-0.0102022
-0.453001
-0.89814
-1.34729
-1.80183
8.37924
7.85021
7.31276
6.77059
6.22745
5.68689
5.15214
4.62591
4.11028
3.60664
3.11563
2.63714
2.1704
1.71407
1.26631
0.824972
0.387684
-0.0479744
-0.48436
-0.923647
-1.36774
-1.8182
8.38568
7.84055
7.2868
6.72871
6.17063
5.6167
5.07065
4.5356
4.01392
3.5071
3.01574
2.53958
2.07752
1.6278
1.18814
0.755858
0.328091
-0.0980642
-0.525393
-0.956443
-1.39343
-1.83817
8.39386
7.82749
7.25217
6.67298
6.09507
5.52342
4.96245
4.41586
3.88639
3.37568
2.88428
2.41164
1.95624
1.51577
1.08726
0.667375
0.252549
-0.160758
-0.575901
-0.995911
-1.42339
-1.86049
8.40397
7.81041
7.20736
6.60095
5.99748
5.403
4.82292
4.26171
3.72258
3.20738
2.71654
2.24913
1.80304
1.37516
0.961683
0.558317
0.160607
-0.235821
-0.635051
-1.04071
-1.45588
-1.88306
8.41626
7.78849
7.15035
6.50937
5.87339
5.24994
4.64576
4.06633
3.51551
2.99536
2.50612
2.04634
1.61307
1.20216
0.808617
0.426945
0.0515096
-0.323131
-0.701961
-1.08933
-1.48888
-1.90347
8.43135
7.76094
7.07874
6.39419
5.71716
5.05722
4.4229
3.82102
3.25626
2.73093
2.24497
1.79616
1.3804
0.992154
0.624856
0.271408
-0.0753473
-0.422194
-0.775223
-1.13963
-1.51964
-1.91854
8.45038
7.72705
6.98975
6.2504
5.52165
4.81583
4.1439
3.51449
2.93332
2.40294
1.9228
1.48958
1.09762
0.739501
0.406563
0.0896047
-0.220493
-0.532204
-0.852943
-1.18886
-1.54479
-1.92439
8.47531
7.68644
6.88019
6.07183
5.27778
4.51419
3.79531
3.13223
2.53195
1.9972
1.52663
1.11537
0.755644
0.437446
0.149356
-0.120609
-0.384111
-0.651727
-0.932436
-1.2334
-1.56005
-1.91628
8.50936
7.63931
6.74661
5.85098
4.9741
4.13741
3.35977
2.6555
2.0332
1.49559
1.04007
0.659552
0.343331
0.0779721
-0.151675
-0.361286
-0.565826
-0.778483
-1.01002
-1.26864
-1.56015
-1.8885
8.55772
7.58698
6.5854
5.57876
4.59605
3.66621
2.81459
2.05989
1.41256
0.874947
0.442418
0.10474
-0.152775
-0.348202
-0.501719
-0.633959
-0.764197
-0.908836
-1.08061
-1.28856
-1.53861
-1.8343
8.62857
7.53267
6.39321
5.24423
4.12506
3.07552
2.1302
1.31365
0.638359
0.105522
-0.292659
-0.570839
-0.749102
-0.851815
-0.906041
-0.939159
-0.976117
-1.03722
-1.13719
-1.28552
-1.48757
-1.74584
8.73457
7.48274
6.16739
4.83384
3.5365
2.33141
1.26678
0.374855
-0.33034
-0.850361
-1.19795
-1.39376
-1.46498
-1.44452
-1.36904
-1.2753
-1.19575
-1.15529
-1.17029
-1.2498
-1.39756
-1.61404
8.89502
7.44906
5.90857
4.33356
2.80008
1.38883
0.169225
-0.815057
-1.54994
-2.04332
-2.31619
-2.39746
-2.32338
-2.13838
-1.89274
-1.6366
-1.41243
-1.25017
-1.16678
-1.16917
-1.25779
-1.4296
9.14321
7.4579
5.62791
3.73324
1.88276
0.195756
-1.22718
-2.32739
-3.09178
-3.5388
-3.70269
-3.62418
-3.35164
-2.94544
-2.4757
-2.01187
-1.60958
-1.30345
-1.10861
-1.02705
-1.05348
-1.17938
9.5308
7.54931
5.34253
3.01701
0.731931
-1.3308
-3.02035
-4.25896
-5.04416
-5.4166
-5.42576
-5.12418
-4.57726
-3.86993
-3.10346
-2.37605
-1.75955
-1.29023
-0.976204
-0.809866
-0.776746
-0.860285
10.1265
7.77927
5.07614
2.1562
-0.741981
-3.32703
-5.36447
-6.75817
-7.5393
-7.7895
-7.57965
-6.96929
-6.04008
-4.91565
-3.74947
-2.68516
-1.81297
-1.16306
-0.727146
-0.481131
-0.396928
-0.446749
-4.35294
-2.88419
-1.73233
-0.903562
-0.360328
-0.0543813
0.0607147
0.0277125
-4.72219
-2.77787
-1.34751
-0.370778
0.240251
0.564916
0.672842
0.624376
32.6993
32.8103
32.5505
31.8112
31.9051
32.4727
32.8379
32.9166
32.6083
31.7961
30.3624
32.0277
32.5921
32.9493
33.013
32.6793
31.8243
30.3236
32.0883
32.6516
33.0056
33.063
32.7173
31.8412
30.3062
28.0101
32.0858
32.6487
33.0021
33.0588
32.7121
31.8348
30.2982
28.0001
29.6944
30.5295
31.3179
32.02
32.5831
32.9387
33.0003
32.6639
31.8053
30.3002
28.0515
28.7265
29.5738
30.4047
31.1906
31.8922
32.4579
32.8206
32.896
32.5834
31.7658
30.3253
28.1737
28.558
29.3993
30.2267
31.0122
31.7181
32.2941
32.6759
32.7826
32.5175
31.7714
30.4336
28.4227
28.3403
29.1763
30.0027
30.7934
31.5126
32.1129
32.5331
32.6968
32.5125
31.8762
30.6815
28.8463
28.077
28.9098
29.74
30.5441
31.2898
31.9338
32.4191
32.6743
32.6125
32.1321
31.1237
29.4936
27.1851
26.9595
27.7705
28.6026
29.4422
30.2697
31.0577
31.7682
32.3506
32.7384
32.848
32.5768
31.8043
30.4106
28.2993
25.8505
26.6177
27.421
28.2544
29.1085
29.9688
30.8144
31.6153
32.3288
32.8954
33.234
33.2361
32.7627
31.6508
29.7361
25.4805
26.2318
27.026
27.8607
28.7316
29.631
30.5464
31.458
32.3347
33.1276
33.7609
34.1205
34.039
33.2869
31.5848
25.0679
25.7994
26.5807
27.4133
28.2987
29.237
30.2261
31.2595
32.3225
33.3835
34.3812
35.2065
35.6596
35.415
34.0064
30.8962
26.1713
19.8101
11.9378
24.6115
25.3174
26.0787
26.9013
27.7921
28.7594
29.8129
30.9621
32.2138
33.564
34.986
36.397
37.5915
38.1536
37.3193
33.7426
28.7917
21.6901
12.615
24.1107
24.7828
25.5139
26.3129
27.1919
28.1664
29.2568
30.4893
31.8953
33.5086
35.3573
37.4305
39.6102
41.5293
40.3642
38.7801
31.9766
21.6682
9.52015
-3.93909
23.5657
24.1942
24.8817
25.6392
26.4813
27.4284
28.508
29.7587
31.2312
32.9935
35.1335
37.7496
40.9119
44.6165
45.3543
45.1847
37.9124
24.7885
6.07863
-8.51826
22.979
23.5531
24.1821
24.8768
25.652
26.5278
27.533
28.7073
30.1038
31.7989
33.8964
36.5283
39.7811
42.6285
47.1824
48.949
45.9776
53.7003
22.3555
22.8649
23.4207
24.0317
24.7094
25.4689
26.3321
27.3263
28.4846
29.8469
31.4518
33.3154
35.3024
37.8301
40.5042
38.7509
28.7304
21.703
22.139
22.6094
23.1194
23.6747
24.2818
24.9486
25.6821
26.4791
27.3149
28.1182
28.7111
28.6412
26.9671
26.7038
16.5661
-0.192511
-75.2087
-25.3417
-8.12189
21.0312
21.3881
21.7654
22.1635
22.5816
23.0163
23.4598
23.8976
24.2921
24.5625
24.5565
23.985
22.3007
18.5
11.28
4.25677
-15.6661
-37.5861
-53.3794
-55.8424
-53.532
-45.8211
-37.5132
-25.2232
-14.7763
-6.58519
-1.91763
0.589438
1.86245
2.48298
2.6406
2.47498
2.12472
1.69405
1.25585
0.866288
0.570962
0.405856
0.395202
0.546067
0.83823
1.19211
20.3515
20.6271
20.9085
21.1916
21.4693
21.7298
21.9523
22.1064
22.1343
21.9301
21.3208
20.028
17.6201
13.4724
6.89413
-2.40968
-11.1531
-23.4928
-30.6481
-33.2529
-32.6695
-29.9542
-26.2215
-20.9785
-13.314
-8.32473
-4.13223
-1.24743
0.496055
1.4623
1.89852
1.97539
1.82939
1.56131
1.24125
0.92077
0.639039
0.423572
0.287141
0.221845
0.184373
0.0736212
-0.295908
19.6753
19.871
20.0587
20.2307
20.3753
20.4747
20.5009
20.4134
20.1504
19.6099
18.6376
17.0198
14.4779
10.6935
5.41081
-1.22958
-8.33316
-14.5374
-18.6005
-20.5094
-20.7853
-19.8817
-18.0589
-15.3137
-11.9013
-8.19279
-4.88083
-2.39412
-0.732791
0.295139
0.86575
1.10741
1.12052
0.984556
0.759997
0.492684
0.215997
-0.0505348
-0.303223
-0.558576
-0.862534
-1.30369
-2.02464
18.8804
19.0133
19.1334
19.2336
19.3038
19.3297
19.2902
19.1551
18.8807
18.4098
17.6588
16.5073
14.8068
12.3927
9.11785
4.92554
-0.0209347
-5.1692
-9.7137
-12.9102
-14.6267
-15.1542
-14.789
-13.7018
-11.9612
-9.67828
-7.13733
-4.7594
-2.82697
-1.41492
-0.464812
0.115044
0.40678
0.481575
0.400433
0.213042
-0.0435941
-0.343934
-0.674353
-1.03555
-1.44596
-1.94649
-2.60431
-3.5166
18.3031
18.3748
18.4257
18.4473
18.4284
18.3533
18.2005
17.9407
17.534
16.9291
16.0626
14.851
13.1969
11.0088
8.22929
4.88078
1.12679
-2.67517
-6.03098
-8.54324
-10.0999
-10.8147
-10.8405
-10.287
-9.22877
-7.76603
-6.07929
-4.40841
-2.95516
-1.82095
-1.01424
-0.49644
-0.218125
-0.131401
-0.193009
-0.366822
-0.62482
-0.947956
-1.32728
-1.76556
-2.27932
-2.90097
-3.67849
-4.67413
17.7508
17.7672
17.7566
17.71
17.6158
17.4585
17.2178
16.8675
16.3736
15.694
14.7801
13.5785
12.0318
10.0936
7.75096
5.05224
2.13523
-0.763517
-3.35405
-5.40144
-6.80642
-7.59526
-7.84442
-7.62784
-7.01313
-6.08748
-4.9742
-3.82281
-2.77399
-1.91872
-1.28841
-0.874658
-0.652608
-0.593286
-0.66841
-0.852868
-1.12662
-1.4762
-1.89595
-2.3891
-2.96862
-3.65776
-4.48892
-5.50066
17.2281
17.1957
17.1319
17.0277
16.872
16.6504
16.3447
15.9326
15.3866
14.6745
13.7604
12.6095
11.1919
9.48946
7.51029
5.30548
2.98086
0.694577
-1.37214
-3.06818
-4.31409
-5.10499
-5.47945
-5.48781
-5.18651
-4.64416
-3.94594
-3.19151
-2.47793
-1.87692
-1.42513
-1.1306
-0.985114
-0.973684
-1.07938
-1.2861
-1.58057
-1.95389
-2.40259
-2.92936
-3.54346
-4.26033
-5.10018
-6.08483
16.7385
16.6639
16.555
16.4036
16.1991
15.9289
15.5774
15.1262
14.554
13.8371
12.951
11.873
10.5883
9.09482
7.4103
5.58076
3.68574
1.83359
0.143263
-1.28446
-2.39005
-3.15917
-3.60948
-3.77569
-3.70023
-3.43316
-3.0353
-2.57632
-2.12504
-1.73686
-1.44642
-1.26876
-1.20547
-1.25092
-1.39631
-1.63225
-1.95056
-2.34562
-2.81531
-3.36155
-3.99029
-4.71103
-5.53536
-6.47429
16.2839
16.1734
16.0272
15.8378
15.5958
15.2902
14.9083
14.4354
13.8553
13.1511
12.3068
11.3094
10.1525
8.84078
7.39457
5.85349
4.27732
2.74181
1.32749
0.103879
-0.884897
-1.62419
-2.12157
-2.3983
-2.48408
-2.41603
-2.23899
-2.00316
-1.75837
-1.54691
-1.39865
-1.33042
-1.34888
-1.45422
-1.64316
-1.91106
-2.25343
-2.66703
-3.15066
-3.70552
-4.33507
-5.04452
-5.83965
-6.72475
15.8653
15.7248
15.5483
15.329
15.0589
14.7288
14.3283
13.8461
13.2703
12.5891
11.7925
10.8738
9.83223
8.67551
7.42269
6.10605
4.77078
3.47112
2.263
1.19468
0.298617
-0.410924
-0.935354
-1.28756
-1.48861
-1.56615
-1.55337
-1.48698
-1.4036
-1.33555
-1.30764
-1.33611
-1.42984
-1.59237
-1.82395
-2.12315
-2.48799
-2.9169
-3.40924
-3.96559
-4.58762
-5.27762
-6.03756
-6.86768
15.4828
15.3175
15.1168
14.8745
14.5841
14.2379
13.8277
13.3448
12.7808
12.1278
11.3798
10.5343
9.59319
8.56547
7.46807
6.32683
5.17574
4.05399
3.00136
2.05242
1.23182
0.552173
0.014715
-0.388445
-0.672182
-0.856837
-0.966964
-1.02967
-1.0723
-1.11969
-1.19208
-1.30407
-1.46502
-1.68013
-1.9517
-2.28027
-2.66554
-3.10698
-3.60429
-4.15761
-4.76738
-5.43396
-6.157
-6.93444
15.1357
14.9503
14.7305
14.471
14.1664
13.8104
13.3968
12.919
12.3711
11.7481
11.0468
10.267
9.4122
8.49122
7.51859
6.51487
5.50582
4.52032
3.58727
2.73202
1.97329
1.32158
0.77924
0.341582
-0.00175367
-0.265602
-0.46815
-0.629618
-0.770616
-0.910359
-1.06518
-1.24771
-1.4669
-1.7285
-2.03589
-2.39076
-2.79378
-3.2451
-3.74462
-4.29216
-4.88735
-5.52939
-6.21654
-6.94556
14.823
14.6215
14.3869
14.1148
13.8007
13.4398
13.027
12.5578
12.028
11.4347
10.7765
10.0545
9.27298
8.43999
7.56776
6.67265
5.77438
4.89454
4.05453
3.27321
2.56488
1.93818
1.3958
0.935119
0.548967
0.226554
-0.0456188
-0.282728
-0.500437
-0.713662
-0.93553
-1.17673
-1.44535
-1.7471
-2.08574
-2.46352
-2.88167
-3.34068
-3.84057
-4.38094
-4.96092
-5.57903
-6.2328
-6.91844
14.5433
14.3291
14.0832
13.8022
13.4822
13.1196
12.7105
12.2518
11.7405
11.1753
10.5558
9.88399
9.16416
8.40351
7.61224
6.80339
5.99219
5.19505
4.42804
3.70542
3.03826
2.43356
1.89405
1.41835
1.00155
0.63581
0.311109
0.0160065
-0.261466
-0.532932
-0.808915
-1.09832
-1.40823
-1.74396
-2.10922
-2.5065
-2.93722
-3.40207
-3.90107
-4.4337
-4.99882
-5.59456
-6.21814
-6.86563
14.2953
14.0709
13.8167
13.5295
13.2063
12.8443
12.4406
11.993
11.4997
10.9602
10.3749
9.74602
9.07782
8.37653
7.65063
6.91056
6.16825
5.43628
4.72697
4.05124
3.41773
2.83216
2.29705
1.81184
1.37319
0.975439
0.611114
0.271574
-0.0523671
-0.369796
-0.689135
-1.01774
-1.36166
-1.72566
-2.11321
-2.52675
-2.96774
-3.43689
-3.93423
-4.45914
-5.01034
-5.5858
-6.18267
-6.7971
14.0772
13.8451
13.5847
13.2934
12.9689
12.6089
12.2114
11.7749
11.2984
10.7818
10.2261
9.63375
9.00847
8.35576
7.68266
6.99758
6.30996
5.62963
4.96612
4.32796
3.72197
3.15282
2.62281
2.13187
1.67777
1.25642
0.862254
0.488727
0.128758
-0.224775
-0.57861
-0.938777
-1.31039
-1.69758
-2.10349
-2.53035
-2.97957
-3.4518
-3.94704
-4.4646
-5.00316
-5.56066
-6.13428
-6.72038
13.8876
13.6496
13.3847
13.0909
12.7663
12.4092
12.0181
11.5921
11.1307
10.6342
10.1039
9.54215
8.95233
8.33921
7.70865
7.06754
6.42341
5.78405
5.15699
4.54895
3.96541
3.41022
2.88545
2.39133
1.9264
1.48772
1.07116
0.671719
0.283931
-0.0978041
-0.478881
-0.864225
-1.25812
-1.66409
-2.08488
-2.52249
-2.97819
-3.45253
-3.94547
-4.45628
-4.98364
-5.52552
-6.07924
-6.64137
13.7251
13.4826
13.2146
12.9194
12.5955
12.2416
11.8567
11.4402
10.9921
10.5129
10.004
9.46758
8.90678
8.3257
7.72928
7.12319
6.51357
5.90667
5.30854
4.7246
4.15928
3.61582
3.09605
2.60041
2.12799
1.67668
1.24338
0.824291
0.415156
0.0115545
-0.390842
-0.796057
-1.20765
-1.62861
-2.0613
-2.50745
-2.96815
-3.44387
-3.9345
-4.4393
-4.95694
-5.4855
-6.02243
-6.56455
13.5884
13.3426
13.0724
12.7765
12.4537
12.1031
11.7239
11.3158
10.879
10.4144
9.9231
9.40737
8.87001
8.31458
7.74528
7.16688
6.58443
6.00307
5.42775
4.86291
4.31223
3.77846
3.26324
2.76713
2.2896
1.82914
1.38344
0.949573
0.524207
0.103829
-0.315057
-0.735747
-1.1612
-1.59393
-2.03596
-2.48877
-2.95327
-3.42984
-3.91828
-4.41787
-4.9273
-5.44473
-5.96776
-6.49345
13.4764
13.2281
12.9565
12.6604
12.3389
11.9912
11.617
11.216
10.7887
10.3358
9.85883
9.35965
8.84084
8.30557
7.75747
7.2006
6.63923
6.07769
5.52009
4.97016
4.43104
3.90509
3.39381
2.89783
2.41687
1.94988
1.49511
1.05029
0.612763
0.179717
-0.251705
-0.684225
-1.12032
-1.56212
-2.01133
-2.46921
-2.93653
-3.41357
-3.90007
-4.39529
-4.89798
-5.40636
-5.91817
-6.43068
13.388
13.138
12.8655
12.5695
12.2492
11.9041
11.5339
11.1387
10.7189
10.2753
9.80939
9.32297
8.81839
8.29847
7.76645
7.22586
6.6804
6.13378
5.58955
5.05094
4.52065
4.00078
3.49273
2.99715
2.51396
2.0424
1.58115
1.12839
0.681985
0.239626
-0.20106
-0.642363
-1.08638
-1.53494
-1.98949
-2.45113
-2.92048
-3.39773
-3.88259
-4.37432
-4.87167
-5.37296
-5.87604
-6.37834
13.3225
13.0713
12.7983
12.5025
12.1833
11.8402
11.4732
11.0823
10.6681
10.2314
9.77364
9.29654
8.80229
8.29349
7.77305
7.24416
6.7101
6.17419
5.63956
5.10908
4.58519
4.06979
3.56419
3.06907
2.58446
2.10983
1.64412
1.18585
0.733253
0.284356
-0.162863
-0.61038
-1.06002
-1.51337
-1.97172
-2.436
-2.90675
-3.38408
-3.86767
-4.35677
-4.85018
-5.34624
-5.84292
-6.33776
13.2792
13.0274
12.7541
12.4584
12.14
11.7983
11.4334
11.0454
10.6349
10.2028
9.75035
9.27932
8.79177
8.29015
7.77718
7.25582
6.7291
6.20006
5.67162
5.14639
4.62664
4.11416
3.61021
3.11545
2.63003
2.15351
1.68504
1.22332
0.766817
0.313786
-0.137576
-0.589042
-1.04226
-1.49866
-1.95942
-2.42537
-2.89698
-3.37432
-3.85705
-4.3444
-4.8352
-5.32783
-5.8203
-6.31026
13.2581
13.006
12.7325
12.4371
12.1191
11.7783
11.4145