/*--------------------------------*- C++ -*----------------------------------*\
  =========                 |
  \\      /  F ield         | OpenFOAM: The Open Source CFD Toolbox
   \\    /   O peration     | Website:  https://openfoam.org
    \\  /    A nd           | Version:  13
     \\/     M anipulation  |
\*---------------------------------------------------------------------------*/
FoamFile
{
    format      ascii;
    class       volScalarField;
    location    "800";
    object      omega;
}
// * * * * * * * * * * * * * * * * * * * * * * * * * * * * * * * * * * * * * //

dimensions      [0 0 -1 0 0 0 0];

internalField   nonuniform List<scalar> 
171634
(
18.0622
17.9788
17.8964
17.8149
17.7343
17.6545
17.5755
17.4971
17.4194
17.3424
17.266
17.1902
17.1151
17.0406
16.9668
16.8937
16.8214
16.7497
16.6788
16.6087
16.5393
16.4707
18.0627
17.9793
17.897
17.8156
17.7351
17.6553
17.5763
17.498
17.4204
17.3433
17.2669
17.1912
17.116
17.0416
16.9678
16.8946
16.8222
16.7506
16.6796
16.6095
16.5401
16.4714
18.0638
17.9806
17.8985
17.8173
17.7369
17.6573
17.5784
17.5002
17.4226
17.3456
17.2692
17.1935
17.1183
17.0438
16.9699
16.8967
16.8243
16.7525
16.6815
16.6113
16.5418
16.4732
18.0655
17.9826
17.9007
17.8198
17.7396
17.6602
17.5815
17.5034
17.4259
17.349
17.2727
17.1969
17.1217
17.0471
16.9732
16.8999
16.8273
16.7555
16.6844
16.6141
16.5445
16.4758
18.068
17.9855
17.904
17.8234
17.7436
17.6645
17.5861
17.5082
17.4309
17.354
17.2777
17.2019
17.1267
17.052
16.978
16.9046
16.8319
16.7599
16.6887
16.6183
16.5486
16.4798
18.0714
17.9894
17.9084
17.8284
17.7491
17.6704
17.5923
17.5147
17.4376
17.3609
17.2847
17.2089
17.1337
17.0589
16.9847
16.9112
16.8383
16.7662
16.6948
16.6242
16.5545
16.4855
18.0759
17.9947
17.9144
17.8351
17.7564
17.6784
17.6008
17.5236
17.4469
17.3704
17.2943
17.2186
17.1433
17.0684
16.9941
16.9204
16.8474
16.7751
16.7035
16.6328
16.5628
16.4938
18.0819
18.0017
17.9224
17.844
17.7663
17.689
17.6122
17.5356
17.4593
17.3832
17.3073
17.2317
17.1564
17.0815
17.0071
16.9332
16.86
16.7875
16.7157
16.6448
16.5747
16.5056
18.0898
18.0108
17.9329
17.8559
17.7794
17.7033
17.6275
17.5518
17.4762
17.4006
17.3251
17.2497
17.1745
17.0996
17.0251
16.951
16.8776
16.8049
16.733
16.6619
16.5917
16.5224
18.1001
18.023
17.9469
17.8717
17.797
17.7226
17.6482
17.5738
17.4993
17.4245
17.3496
17.2746
17.1996
17.1247
17.0502
16.976
16.9025
16.8296
16.7575
16.6863
16.616
16.5467
18.1136
18.039
17.9655
17.8929
17.8207
17.7487
17.6765
17.604
17.531
17.4575
17.3835
17.3092
17.2347
17.1601
17.0856
17.0115
16.9378
16.8649
16.7927
16.7214
16.651
16.5816
18.1315
18.0603
17.9905
17.9217
17.8532
17.7847
17.7157
17.646
17.5754
17.5039
17.4314
17.3582
17.2845
17.2104
17.1362
17.0622
16.9886
16.9156
16.8434
16.7721
16.7017
16.6324
18.1552
18.089
18.0245
17.9612
17.8982
17.835
17.7709
17.7055
17.6386
17.5701
17.5001
17.4287
17.3562
17.283
17.2094
17.1357
17.0623
16.9893
16.9172
16.8459
16.7756
16.7064
18.1869
18.1278
18.0712
18.0162
17.9616
17.9065
17.8499
17.7913
17.7301
17.6664
17.6001
17.5316
17.4612
17.3894
17.3166
17.2434
17.1702
17.0974
17.0252
16.954
16.8838
16.8148
18.2294
18.181
18.1363
18.0939
18.0524
18.0101
17.9654
17.9174
17.8654
17.8091
17.7488
17.6846
17.6173
17.5475
17.4759
17.4033
17.3303
17.2575
17.1854
17.1142
17.0441
16.9753
18.2869
18.2542
18.2276
18.2052
18.1845
18.163
18.1379
18.1075
18.0704
18.0264
17.9755
17.9182
17.8555
17.7884
17.7183
17.6462
17.5732
17.5002
17.4278
17.3565
17.2865
17.2181
18.3644
18.3557
18.3578
18.3683
18.3832
18.3976
18.4066
18.4066
18.3953
18.3721
18.3368
18.2904
18.2344
18.171
18.1022
18.0301
17.9563
17.8823
17.8091
17.7373
17.6673
17.5996
18.4696
18.4989
18.5488
18.6167
18.6959
18.7767
18.849
18.9047
18.9394
18.9516
18.942
18.912
18.8647
18.8045
18.7354
18.6614
18.5854
18.5095
18.4352
18.3636
18.2952
18.2307
18.6135
18.7036
18.8352
19.0069
19.2082
19.4191
19.615
19.7767
19.8947
19.9667
19.9965
19.989
19.9509
19.8913
19.8189
19.7406
19.6613
19.5844
19.5123
19.4463
19.3877
19.3373
21.7411
21.6638
21.5928
21.5333
21.4893
21.464
21.4606
21.4828
25.3477
25.3275
25.3518
25.4354
25.5918
25.8334
26.1704
26.6113
18.3743
18.2947
18.2375
18.2171
18.5617
18.4688
18.3829
18.3122
18.2696
18.2716
18.3353
18.5628
18.4722
18.3905
18.3273
18.2972
18.3189
18.4108
18.5638
18.4746
18.3955
18.3367
18.314
18.3475
18.4563
18.6466
18.5638
18.4746
18.3954
18.3367
18.3139
18.3473
18.4561
18.6461
18.8482
18.7523
18.6569
18.5627
18.4721
18.3904
18.3272
18.297
18.3187
18.4104
18.5785
18.9453
18.8488
18.7527
18.6568
18.5615
18.4687
18.3827
18.312
18.2694
18.2713
18.3349
18.4673
18.9462
18.8497
18.7535
18.6571
18.5606
18.4651
18.374
18.2943
18.2371
18.2167
18.2487
18.3427
18.9476
18.8513
18.7552
18.6585
18.561
18.4633
18.3677
18.2797
18.2089
18.1687
18.1737
18.236
18.9496
18.8538
18.758
18.6616
18.5638
18.4648
18.366
18.272
18.1911
18.1362
18.1225
18.1649
18.2711
19.0484
18.9523
18.8572
18.7624
18.6669
18.5699
18.4711
18.3713
18.2744
18.188
18.1251
18.1026
18.1386
18.247
19.148
19.051
18.9557
18.8617
18.7684
18.6747
18.5798
18.4831
18.3853
18.2894
18.2031
18.1402
18.12
18.1655
18.2975
19.1503
19.054
18.9598
18.8673
18.7761
18.6852
18.594
18.5019
18.4093
18.3194
18.2402
18.187
18.1838
18.2616
18.4527
19.1528
19.0573
18.9644
18.8739
18.7854
18.6985
18.6127
18.5278
18.4448
18.3672
18.3045
18.2755
18.3141
18.4695
18.7946
19.3495
20.1325
21.1465
22.3646
19.1554
19.0609
18.9694
18.8811
18.7959
18.7139
18.6353
18.5608
18.4923
18.4351
18.4023
18.4234
18.5588
18.9165
19.6213
20.8539
22.2286
22.5402
24.0536
19.158
19.0645
18.9745
18.8885
18.807
18.7307
18.6609
18.5994
18.5505
18.5234
18.5405
18.6551
18.998
19.9098
21.7038
22.2167
24.5942
28.4958
33.8512
39.546
19.1605
19.0678
18.9792
18.8956
18.8178
18.7475
18.687
18.6404
18.6152
18.6278
18.7159
18.9712
19.6594
21.5343
22.3357
27.7568
40.0431
63.7758
80.0577
91.063
97.6656
19.1628
19.0708
18.9834
18.9017
18.8273
18.7624
18.7108
18.6785
18.6777
18.7325
18.8966
19.3021
20.3234
22.9362
24.6409
37.9474
84.135
150.874
348.848
419.559
415.58
434.761
19.1646
19.0731
18.9866
18.9063
18.8344
18.7736
18.7287
18.7078
18.7261
18.813
19.0314
19.5275
20.6781
23.3079
25.5468
38.9641
82.1922
163.95
686.84
855.901
718.805
857.25
19.166
19.0747
18.9886
18.9091
18.8384
18.7798
18.7385
18.7234
18.7506
18.85
19.0817
19.5732
20.6188
22.875
27.3792
31.5997
53.2263
98.5353
183.399
346.064
514.424
598.519
651.202
573.248
544.506
19.167
19.0756
18.9894
18.9098
18.8392
18.7807
18.7395
18.724
18.7489
18.8404
19.0464
19.4592
20.2615
21.8258
24.6502
29.2235
34.1762
52.0263
78.4519
116.363
153.808
171.883
178.994
183.674
163.149
168.081
174.068
179.264
182.27
183.073
181.852
178.954
174.786
169.741
164.157
158.139
152.019
145.991
140.176
134.65
129.387
124.325
19.1675
19.0757
18.989
18.9088
18.837
18.7768
18.7327
18.7119
18.7263
18.7958
18.9544
19.2606
19.8178
20.8111
22.5165
25.1232
28.6606
31.7003
41.1228
51.5491
60.554
66.3264
69.1442
64.1017
64.632
66.3246
69.1781
72.8919
77.2868
82.078
86.9788
91.6803
95.9428
99.636
102.691
105.082
106.831
107.995
108.65
108.875
108.744
108.315
107.632
19.1677
19.0753
18.9878
18.9063
18.8326
18.7694
18.7205
18.6913
18.6909
18.7332
18.84
19.0461
19.4061
20.0066
20.9736
22.4052
24.2275
26.1603
28.2178
30.1817
31.7118
32.6719
33.136
33.3888
33.5119
33.7218
34.1302
34.805
35.7804
37.0796
38.7015
40.6191
42.7866
45.1515
47.6626
50.2747
52.9536
55.6796
58.4481
61.2672
64.1543
67.1267
70.1751
19.2644
19.1676
19.0745
18.9859
18.9028
18.8268
18.7599
18.7051
18.6666
18.6506
18.6662
18.727
18.8521
19.0691
19.4159
19.9403
20.6783
21.5941
22.5583
23.4906
24.3039
24.9229
25.3225
25.5292
25.5972
25.5847
25.5462
25.516
25.5177
25.5687
25.6846
25.8803
26.1682
26.5582
27.0579
27.6748
28.4167
29.2939
30.3214
31.5206
32.921
34.5588
36.4741
38.7046
19.2647
19.1674
19.0735
18.9837
18.8989
18.8203
18.7494
18.6887
18.641
18.6105
18.6029
18.6262
18.6906
18.8092
18.9976
19.2713
19.638
20.0818
20.556
21.005
21.383
21.6649
21.8464
21.9387
21.9613
21.9331
21.8759
21.8065
21.7365
21.6738
21.6239
21.591
21.5787
21.5906
21.6306
21.7034
21.815
21.973
22.1879
22.4734
22.8479
23.3342
23.9584
24.7502
19.265
19.167
19.0723
18.9813
18.8948
18.8136
18.739
18.6726
18.6166
18.5737
18.5471
18.5414
18.5619
18.6144
18.7048
18.8367
19.0091
19.2118
19.4248
19.6235
19.7885
19.9092
19.9837
20.0156
20.0099
19.9738
19.9166
19.8468
19.7713
19.6952
19.622
19.5539
19.4926
19.4391
19.3944
19.3599
19.3372
19.3285
19.3372
19.3677
19.4261
19.5205
19.6608
19.8578
19.2652
19.1667
19.0712
18.979
18.8908
18.8072
18.7292
18.6579
18.5946
18.5413
18.4999
18.4727
18.4622
18.4708
18.5002
18.5506
18.6189
18.6989
18.7808
18.8542
18.9112
18.9471
18.9602
18.9512
18.9218
18.8752
18.8157
18.7476
18.6747
18.5999
18.5254
18.4528
18.383
18.3166
18.2542
18.1963
18.1433
18.096
18.0553
18.0226
17.9996
17.9887
17.9926
18.0146
19.2654
19.1664
19.0701
18.9769
18.8872
18.8015
18.7204
18.6448
18.5757
18.514
18.461
18.418
18.386
18.3656
18.3571
18.3594
18.3703
18.3857
18.4006
18.4102
18.4106
18.3998
18.3769
18.3418
18.2955
18.2397
18.1764
18.1078
18.0361
17.9629
17.8894
17.8168
17.7457
17.6765
17.6097
17.5455
17.484
17.4256
17.3707
17.3197
17.2731
17.232
17.1968
17.1684
19.2657
19.1662
19.0693
18.9751
18.884
18.7964
18.7128
18.6337
18.5597
18.4914
18.4296
18.3749
18.3277
18.288
18.2555
18.2291
18.2069
18.1865
18.1652
18.1405
18.1103
18.0734
18.0295
17.9786
17.9213
17.8585
17.7915
17.7213
17.6493
17.5764
17.5036
17.4314
17.3603
17.2906
17.2226
17.1563
17.092
17.0297
16.9696
16.9119
16.8568
16.8047
16.7557
16.7101
19.2661
19.1662
19.0686
18.9735
18.8813
18.7921
18.7064
18.6244
18.5465
18.4732
18.4048
18.3415
18.2834
18.2305
18.1822
18.1376
18.0954
18.0541
18.0119
17.9675
17.9196
17.8677
17.8114
17.751
17.6869
17.6195
17.5496
17.478
17.4053
17.3324
17.2596
17.1875
17.1164
17.0465
16.9779
16.9107
16.8451
16.781
16.7187
16.6581
16.5994
16.5427
16.488
16.4355
19.2665
19.1662
19.068
18.9723
18.879
18.7885
18.701
18.6167
18.5358
18.4586
18.3852
18.3156
18.25
18.1879
18.129
18.0725
18.0175
17.9631
17.9081
17.8517
17.7931
17.732
17.6683
17.6021
17.5335
17.4631
17.3912
17.3184
17.2452
17.172
17.0991
17.027
16.9559
16.8858
16.8168
16.7492
16.6829
16.618
16.5545
16.4924
16.4319
16.3729
16.3154
16.2596
19.267
19.1663
19.0677
18.9713
18.8772
18.7856
18.6967
18.6105
18.5272
18.447
18.3698
18.2958
18.2246
18.1562
18.0901
18.0257
17.9624
17.8996
17.8364
17.7724
17.7071
17.6403
17.5718
17.5018
17.4305
17.358
17.2848
17.2112
17.1375
17.064
16.9911
16.919
16.8477
16.7775
16.7084
16.6404
16.5737
16.5082
16.444
16.3811
16.3195
16.2592
16.2002
16.1425
19.2675
19.1665
19.0675
18.9706
18.8758
18.7833
18.6932
18.6055
18.5204
18.4378
18.3579
18.2804
18.2054
18.1324
18.0613
17.9916
17.9229
17.8545
17.7861
17.7172
17.6475
17.577
17.5055
17.4331
17.3599
17.2862
17.2121
17.138
17.064
16.9904
16.9175
16.8453
16.774
16.7037
16.6345
16.5664
16.4994
16.4336
16.3689
16.3054
16.2431
16.1819
16.1219
16.063
19.268
19.1668
19.0674
18.9701
18.8747
18.7815
18.6904
18.6015
18.5149
18.4306
18.3485
18.2686
18.1907
18.1146
18.04
17.9666
17.894
17.8219
17.75
17.6779
17.6054
17.5325
17.4591
17.3851
17.3109
17.2363
17.1618
17.0874
17.0133
16.9397
16.8668
16.7947
16.7234
16.6531
16.5839
16.5156
16.4485
16.3824
16.3174
16.2535
16.1907
16.129
16.0682
16.0085
19.2685
19.1671
19.0675
18.9698
18.8739
18.7801
18.6882
18.5984
18.5107
18.425
18.3413
18.2595
18.1794
18.101
18.0239
17.9479
17.8727
17.7981
17.7238
17.6495
17.5752
17.5007
17.426
17.3511
17.2762
17.2012
17.1264
17.052
16.9779
16.9044
16.8316
16.7596
16.6884
16.6182
16.549
16.4807
16.4135
16.3473
16.2821
16.2179
16.1547
16.0925
16.0312
15.9708
19.269
19.1675
19.0676
18.9696
18.8734
18.779
18.6866
18.596
18.5074
18.4206
18.3356
18.2524
18.1708
18.0907
18.0118
17.9339
17.8569
17.7805
17.7045
17.6288
17.5531
17.4776
17.4021
17.3266
17.2513
17.1762
17.1013
17.0268
16.9529
16.8796
16.8069
16.7351
16.6641
16.594
16.5248
16.4566
16.3893
16.323
16.2577
16.1933
16.1298
16.0672
16.0055
15.9447
19.2695
19.1678
19.0678
18.9695
18.873
18.7782
18.6853
18.5941
18.5048
18.4172
18.3313
18.247
18.1642
18.0828
18.0025
17.9233
17.845
17.7673
17.6902
17.6134
17.5369
17.4607
17.3846
17.3088
17.2333
17.158
17.0832
17.0089
16.9351
16.8619
16.7895
16.7178
16.647
16.577
16.5079
16.4398
16.3725
16.3062
16.2407
16.1762
16.1125
16.0497
15.9877
15.9264
19.27
19.1682
19.068
18.9695
18.8727
18.7777
18.6843
18.5927
18.5028
18.4146
18.3279
18.2428
18.1591
18.0768
17.9956
17.9154
17.836
17.7575
17.6795
17.602
17.5249
17.4482
17.3718
17.2957
17.2201
17.1449
17.0701
16.9959
16.9222
16.8493
16.777
16.7056
16.6349
16.5651
16.4961
16.428
16.3608
16.2945
16.229
16.1643
16.1005
16.0375
15.9752
15.9136
19.2705
19.1685
19.0682
18.9696
18.8726
18.7773
18.6836
18.5917
18.5013
18.4126
18.3254
18.2397
18.1553
18.0722
17.9903
17.9094
17.8293
17.7501
17.6715
17.5935
17.5159
17.4389
17.3623
17.2861
17.2104
17.1352
17.0605
16.9865
16.913
16.8402
16.7682
16.6969
16.6264
16.5567
16.4878
16.4198
16.3526
16.2863
16.2208
16.1561
16.0921
16.0289
15.9664
15.9046
19.2708
19.1688
19.0684
18.9697
18.8725
18.777
18.6831
18.5909
18.5002
18.4111
18.3235
18.2373
18.1524
18.0688
17.9863
17.9049
17.8243
17.7446
17.6656
17.5872
17.5094
17.4321
17.3553
17.2791
17.2034
17.1282
17.0536
16.9797
16.9064
16.8337
16.7618
16.6907
16.6203
16.5508
16.482
16.4141
16.3469
16.2806
16.2151
16.1503
16.0863
16.023
15.9603
15.8983
19.2712
19.1691
19.0686
18.9698
18.8725
18.7769
18.6828
18.5903
18.4994
18.41
18.3221
18.2355
18.1503
18.0663
17.9834
17.9016
17.8207
17.7406
17.6613
17.5826
17.5046
17.4272
17.3503
17.274
17.1983
17.1232
17.0487
16.9748
16.9016
16.8291
16.7574
16.6863
16.6161
16.5466
16.478
16.4101
16.343
16.2767
16.2111
16.1463
16.0822
16.0188
15.9561
15.8939
19.2714
19.1693
19.0688
18.9699
18.8725
18.7768
18.6826
18.59
18.4989
18.4093
18.3211
18.2344
18.1489
18.0646
17.9815
17.8994
17.8182
17.7379
17.6583
17.5795
17.5013
17.4238
17.3469
17.2706
17.1949
17.1198
17.0453
16.9715
16.8984
16.826
16.7544
16.6835
16.6133
16.5439
16.4753
16.4075
16.3404
16.2741
16.2086
16.1437
16.0796
16.0161
15.9532
15.891
19.2716
19.1695
19.0689
18.9699
18.8725
18.7767
18.6824
18.5897
18.4985
18.4088
18.3205
18.2336
18.1479
18.0635
17.9802
17.8979
17.8165
17.736
17.6564
17.5774
17.4992
17.4216
17.3446
17.2683
17.1926
17.1175
17.0431
16.9694
16.8963
16.824
16.7524
16.6815
16.6115
16.5421
16.4736
16.4058
16.3387
16.2724
16.2069
16.142
16.0779
16.0143
15.9514
15.8891
19.2717
19.1696
19.069
18.97
18.8726
18.7768
18.6825
18.5897
18.4984
18.4087
18.3203
18.2333
18.1476
18.0631
17.9797
17.8973
17.8159
17.7353
17.6556
17.5766
17.4983
17.4207
17.3437
17.2673
17.1916
17.1166
17.0422
16.9685
16.8955
16.8232
16.7516
16.6808
16.6107
16.5414
16.4729
16.4051
16.3381
16.2718
16.2062
16.1413
16.0771
16.0136
15.9506
15.8882
18.0621
17.9786
17.8962
17.8147
17.7341
17.6543
17.5752
17.4969
17.4192
17.3422
17.2658
17.19
17.1149
17.0405
16.9667
16.8936
16.8213
16.7497
16.6788
16.6087
16.5393
16.4707
18.0625
17.9791
17.8968
17.8154
17.7349
17.6551
17.5761
17.4978
17.4202
17.3431
17.2668
17.191
17.1159
17.0414
16.9676
16.8945
16.8222
16.7505
16.6796
16.6095
16.5401
16.4715
18.0636
17.9804
17.8983
17.817
17.7366
17.657
17.5782
17.4999
17.4224
17.3454
17.269
17.1932
17.1181
17.0436
16.9698
16.8966
16.8242
16.7524
16.6815
16.6112
16.5418
16.4732
18.0653
17.9823
17.9004
17.8194
17.7393
17.6599
17.5812
17.5031
17.4256
17.3487
17.2724
17.1966
17.1214
17.0468
16.9729
16.8997
16.8271
16.7553
16.6842
16.6139
16.5444
16.4757
18.0677
17.9851
17.9036
17.823
17.7432
17.6641
17.5856
17.5078
17.4304
17.3536
17.2773
17.2015
17.1263
17.0517
16.9776
16.9043
16.8316
16.7596
16.6884
16.618
16.5484
16.4796
18.071
17.989
17.908
17.8278
17.7485
17.6698
17.5917
17.5142
17.437
17.3604
17.2841
17.2084
17.1331
17.0584
16.9842
16.9107
16.8379
16.7658
16.6944
16.6238
16.5541
16.4852
18.0754
17.9941
17.9138
17.8344
17.7558
17.6777
17.6001
17.5229
17.4461
17.3697
17.2936
17.2178
17.1425
17.0677
16.9934
16.9198
16.8467
16.7744
16.7029
16.6322
16.5623
16.4933
18.0813
18.001
17.9217
17.8433
17.7655
17.6882
17.6113
17.5348
17.4584
17.3823
17.3064
17.2308
17.1555
17.0806
17.0062
16.9324
16.8592
16.7867
16.715
16.6441
16.574
16.5049
18.0891
18.0101
17.9321
17.855
17.7785
17.7024
17.6265
17.5508
17.4751
17.3995
17.324
17.2486
17.1734
17.0985
17.024
16.95
16.8766
16.8039
16.732
16.661
16.5908
16.5216
18.0993
18.0221
17.946
17.8707
17.7959
17.7214
17.647
17.5725
17.4979
17.4231
17.3482
17.2731
17.1981
17.1233
17.0488
16.9747
16.9011
16.8283
16.7563
16.6851
16.6148
16.5455
18.1128
18.038
17.9645
17.8917
17.8194
17.7473
17.675
17.6024
17.5293
17.4557
17.3817
17.3073
17.2328
17.1582
17.0838
17.0097
16.9361
16.8632
16.791
16.7198
16.6495
16.5802
18.1305
18.0592
17.9893
17.9203
17.8516
17.7829
17.7138
17.6439
17.5732
17.5015
17.429
17.3557
17.282
17.2079
17.1338
17.0598
16.9863
16.9134
16.8412
16.77
16.6997
16.6305
18.1541
18.0877
18.0231
17.9594
17.8962
17.8327
17.7683
17.7027
17.6355
17.5669
17.4968
17.4253
17.3529
17.2797
17.2062
17.1326
17.0593
16.9865
16.9145
16.8433
16.7732
16.7042
18.1857
18.1264
18.0695
18.0141
17.9591
17.9036
17.8465
17.7874
17.726
17.662
17.5956
17.5271
17.4567
17.385
17.3124
17.2395
17.1665
17.094
17.0221
16.9512
16.8814
16.8127
18.2282
18.1795
18.1344
18.0916
18.0495
18.0064
17.961
17.9124
17.8598
17.8032
17.7427
17.6786
17.6115
17.542
17.4709
17.3988
17.3263
17.2541
17.1825
17.1118
17.0423
16.9741
18.286
18.2531
18.2261
18.2031
18.1816
18.1589
18.1327
18.1011
18.0632
18.0187
17.9677
17.9108
17.8487
17.7824
17.7132
17.642
17.5701
17.4981
17.4266
17.3562
17.2872
17.2196
18.3644
18.3558
18.3579
18.368
18.382
18.3949
18.402
18.4001
18.3876
18.3637
18.3285
18.2829
18.2283
18.1664
18.0992
18.0288
17.9568
17.8844
17.8128
17.7424
17.6739
17.6074
18.4722
18.5029
18.5545
18.6237
18.703
18.7823
18.8518
18.9046
18.9372
18.9486
18.9395
18.9111
18.8663
18.8088
18.7425
18.6712
18.5976
18.5239
18.4515
18.3815
18.3145
18.2509
18.6225
18.7184
18.8581
19.039
19.2468
19.4585
19.6512
19.8086
19.9237
19.995
20.0257
20.0208
19.986
19.9299
19.865
19.7946
19.7209
19.6457
19.573
19.5057
19.4445
19.3902
21.9475
21.8798
21.809
21.7392
21.6719
21.619
21.5818
21.5613
26.1269
26.0619
26.0023
25.9548
25.9386
25.9728
26.0599
26.2024
18.3957
18.325
18.2806
18.2799
18.5737
18.4861
18.4079
18.3485
18.3229
18.3525
18.4604
18.5757
18.4911
18.4182
18.3683
18.3592
18.4159
18.5654
18.5773
18.4944
18.4247
18.3804
18.381
18.4536
18.6276
18.9196
18.5773
18.4944
18.4246
18.3803
18.3809
18.4534
18.6273
18.9189
18.8524
18.7584
18.6658
18.5757
18.491
18.4181
18.3682
18.3591
18.4157
18.5649
18.8213
18.948
18.8528
18.7585
18.6652
18.5735
18.486
18.4077
18.3482
18.3227
18.3523
18.46
18.6583
18.9487
18.8534
18.7588
18.6647
18.5713
18.4802
18.3954
18.3246
18.2803
18.2796
18.3421
18.4798
18.9499
18.8547
18.76
18.6653
18.5704
18.4762
18.3853
18.3037
18.2419
18.2142
18.2379
18.3269
18.9517
18.8568
18.7623
18.6675
18.5719
18.4755
18.3802
18.2904
18.2151
18.1675
18.1643
18.2216
18.3474
19.0496
18.9541
18.8598
18.7661
18.672
18.5767
18.4799
18.3826
18.2884
18.2052
18.1462
18.1292
18.1733
18.2935
19.1487
19.0521
18.9573
18.864
18.7716
18.6791
18.5857
18.4907
18.3946
18.3007
18.2166
18.1562
18.1401
18.1924
18.3352
19.1509
19.0549
18.9611
18.8693
18.7789
18.6891
18.5992
18.5086
18.4179
18.3302
18.2539
18.2053
18.2106
18.3038
18.5193
19.1533
19.0581
18.9656
18.8756
18.7878
18.702
18.6175
18.5345
18.4539
18.3802
18.3239
18.3079
18.3739
18.5825
18.9979
19.6509
20.5138
21.6781
23.3588
19.1558
19.0615
18.9704
18.8825
18.7981
18.7172
18.6402
18.5681
18.5036
18.4536
18.436
18.4924
18.7136
19.2783
20.3262
20.6435
21.7785
23.5882
26.1931
19.1583
19.0649
18.9753
18.8898
18.809
18.734
18.6661
18.608
18.5654
18.5518
18.6011
18.7992
19.3941
20.8791
21.3752
24.3649
30.5833
42.2909
57.7577
73.6376
19.1607
19.0682
18.9799
18.8967
18.8197
18.7507
18.6926
18.6504
18.6346
18.6694
18.8141
19.235
20.5233
23.8517
26.2247
41.332
65.6873
205.114
511.968
879.457
19.1629
19.071
18.9839
18.9027
18.829
18.7655
18.7165
18.6897
18.7011
18.7857
19.0291
19.6892
21.3936
22.7548
32.4985
85.7879
235.124
1035.45
19.1647
19.0733
18.9869
18.9071
18.8358
18.7764
18.7343
18.7191
18.7505
18.8695
19.1725
19.9238
21.7247
23.2541
34.0968
60.3965
327.383
19.166
19.0748
18.9888
18.9097
18.8396
18.7822
18.7434
18.7336
18.7725
18.9001
19.203
19.889
21.5414
25.2764
29.3582
56.4799
135.151
769.839
800.218
532.122
19.1669
19.0756
18.9895
18.9102
18.8401
18.7825
18.7433
18.7321
18.7662
18.8785
19.1339
19.6709
20.8231
23.2339
28.0113
34.1511
66.4889
147.583
272.802
355.514
370.87
343.011
310.181
254.702
230.019
174.638
168.649
165.564
164.215
163.225
162.049
160.468
158.393
155.842
152.891
149.631
146.168
142.601
139.026
135.523
132.177
129.097
19.1674
19.0757
18.989
18.909
18.8376
18.7781
18.7354
18.7176
18.7382
18.8211
19.0092
19.3831
20.1064
21.5035
23.984
27.9556
32.3395
48.5098
68.8508
85.9934
96.0513
98.7778
97.1727
94.1482
77.9685
76.4071
75.2074
74.3983
74.6311
75.6668
77.2049
79.0405
81.019
83.0352
85.0203
86.8914
88.6167
90.2002
91.6675
93.0444
94.3477
95.715
97.2331
19.1675
19.0752
18.9877
18.9063
18.8329
18.7702
18.7221
18.6948
18.6982
18.7482
18.8707
19.1096
19.5413
20.3014
21.5708
23.3986
25.5485
28.3156
31.3245
33.9449
35.7551
36.6642
36.8497
36.8496
36.8027
36.717
36.6419
36.6049
36.6277
36.8902
37.3869
38.0895
38.9715
40.0071
41.178
42.4715
43.8845
45.4275
47.1252
49.0163
51.1496
53.5915
56.399
19.2642
19.1674
19.0743
18.9858
18.9027
18.8268
18.7602
18.7059
18.6685
18.6546
18.6743
18.7426
18.8825
19.1283
19.5322
20.1595
21.0263
22.0298
23.1253
24.2128
25.1535
25.8465
26.2639
26.4383
26.4383
26.4202
26.3725
26.3133
26.2535
26.2008
26.1632
26.1785
26.2495
26.3784
26.567
26.8186
27.139
27.537
28.026
28.6259
29.3645
30.2767
31.4047
32.8004
19.2645
19.1672
19.0733
18.9835
18.8987
18.8201
18.7494
18.6889
18.6418
18.6124
18.6067
18.6334
18.704
18.8335
19.0408
19.3453
19.7508
20.224
20.7171
21.1785
21.5652
21.8535
22.039
22.131
22.1486
22.115
22.0693
22.0125
21.9476
21.8803
21.8128
21.7556
21.7139
21.6892
21.6827
21.6966
21.7338
21.7982
21.896
22.0355
22.2285
22.4903
22.8383
23.2948
19.2648
19.1668
19.0721
18.9811
18.8945
18.8133
18.7388
18.6725
18.6167
18.5742
18.5485
18.5442
18.567
18.6234
18.7195
18.8596
19.0413
19.2507
19.4651
19.6611
19.8227
19.941
20.0154
20.0483
20.0451
20.0118
19.9574
19.8917
19.8208
19.747
19.6737
19.6047
19.5415
19.4848
19.4354
19.3941
19.3618
19.3399
19.3303
19.3358
19.3603
19.4086
19.4871
19.6027
19.265
19.1665
19.0709
18.9787
18.8905
18.8069
18.7288
18.6575
18.5944
18.5412
18.5001
18.4734
18.4636
18.4733
18.5041
18.5561
18.6258
18.7059
18.7863
18.8571
18.9114
18.9452
18.9575
18.9491
18.9213
18.877
18.8201
18.7545
18.6839
18.6112
18.5385
18.4673
18.3986
18.3331
18.2712
18.2134
18.1599
18.1114
18.0686
18.0324
18.004
17.9851
17.9775
17.9832
19.2652
19.1662
19.0699
18.9766
18.8869
18.8011
18.72
18.6444
18.5752
18.5135
18.4606
18.4176
18.3857
18.3655
18.3571
18.3594
18.3699
18.3843
18.3977
18.4053
18.404
18.392
18.3684
18.3334
18.2878
18.2332
18.1715
18.1045
18.0343
17.9626
17.8906
17.8194
17.7497
17.6817
17.616
17.5527
17.492
17.4341
17.3795
17.3283
17.2812
17.2386
17.2012
17.1696
19.2655
19.166
19.069
18.9748
18.8836
18.796
18.7124
18.6332
18.5591
18.4908
18.4289
18.3741
18.3268
18.287
18.2543
18.2275
18.2047
18.1834
18.161
18.1351
18.1037
18.066
18.0216
17.9706
17.9136
17.8515
17.7852
17.7159
17.6448
17.5729
17.5009
17.4297
17.3595
17.2906
17.2234
17.1578
17.0941
17.0324
16.9728
16.9154
16.8606
16.8084
16.7591
16.713
19.2659
19.1659
19.0683
18.9732
18.8809
18.7917
18.7059
18.6238
18.5459
18.4725
18.404
18.3405
18.2824
18.2292
18.1807
18.1357
18.093
18.051
18.0081
17.9629
17.9144
17.8619
17.8053
17.7448
17.6807
17.6135
17.5439
17.4727
17.4006
17.3281
17.2559
17.1843
17.1137
17.0443
16.9762
16.9095
16.8443
16.7806
16.7186
16.6584
16.5999
16.5433
16.4887
16.4362
19.2663
19.1659
19.0678
18.972
18.8787
18.7881
18.7006
18.6162
18.5352
18.4579
18.3844
18.3147
18.2489
18.1866
18.1275
18.0707
18.0154
17.9605
17.9051
17.8481
17.7891
17.7277
17.6638
17.5974
17.5288
17.4584
17.3867
17.3141
17.241
17.1681
17.0956
17.0237
16.9528
16.883
16.8144
16.747
16.681
16.6163
16.553
16.4912
16.4308
16.3719
16.3146
16.2588
19.2668
19.1661
19.0674
18.971
18.8769
18.7852
18.6962
18.61
18.5266
18.4463
18.3691
18.2949
18.2236
18.155
18.0887
18.0241
17.9606
17.8975
17.834
17.7698
17.7042
17.6371
17.5685
17.4984
17.427
17.3545
17.2813
17.2078
17.1342
17.0609
16.9881
16.9161
16.845
16.775
16.706
16.6382
16.5717
16.5063
16.4423
16.3795
16.318
16.2578
16.1989
16.1412
19.2673
19.1663
19.0673
18.9703
18.8755
18.7829
18.6927
18.605
18.5198
18.4372
18.3572
18.2796
18.2045
18.1314
18.0602
17.9903
17.9214
17.8528
17.7842
17.7151
17.6453
17.5746
17.503
17.4305
17.3573
17.2836
17.2095
17.1354
17.0615
16.988
16.9151
16.843
16.7718
16.7016
16.6325
16.5645
16.4976
16.4318
16.3672
16.3038
16.2416
16.1805
16.1205
16.0617
19.2678
19.1665
19.0672
18.9698
18.8744
18.7811
18.69
18.6011
18.5144
18.43
18.3479
18.2679
18.1899
18.1136
18.0389
17.9654
17.8928
17.8206
17.7485
17.6763
17.6037
17.5307
17.4572
17.3832
17.3089
17.2344
17.1598
17.0854
17.0114
16.9379
16.865
16.7929
16.7217
16.6515
16.5823
16.5141
16.447
16.381
16.3161
16.2522
16.1894
16.1277
16.067
16.0073
19.2683
19.1669
19.0672
18.9695
18.8736
18.7797
18.6878
18.598
18.5102
18.4244
18.3407
18.2588
18.1787
18.1002
18.023
17.9469
17.8717
17.797
17.7225
17.6482
17.5738
17.4993
17.4245
17.3496
17.2747
17.1997
17.1249
17.0505
16.9764
16.903
16.8302
16.7582
16.6871
16.6169
16.5477
16.4795
16.4123
16.3461
16.281
16.2168
16.1537
16.0915
16.0302
15.9699
19.2688
19.1672
19.0674
18.9693
18.8731
18.7787
18.6862
18.5956
18.5069
18.4201
18.3351
18.2518
18.1701
18.0899
18.011
17.9331
17.856
17.7795
17.7035
17.6277
17.552
17.4764
17.4009
17.3254
17.2501
17.175
17.1001
17.0257
16.9517
16.8784
16.8058
16.734
16.663
16.5929
16.5238
16.4556
16.3884
16.3221
16.2568
16.1924
16.129
16.0665
16.0048
15.9439
19.2694
19.1676
19.0676
18.9693
18.8727
18.7779
18.6849
18.5938
18.5044
18.4167
18.3308
18.2464
18.1636
18.0821
18.0018
17.9226
17.8442
17.7665
17.6893
17.6125
17.536
17.4597
17.3837
17.3078
17.2323
17.1571
17.0823
17.0079
16.9341
16.861
16.7886
16.717
16.6461
16.5762
16.5071
16.439
16.3718
16.3055
16.2401
16.1756
16.1119
16.0491
15.9871
15.9258
19.2699
19.168
19.0678
18.9693
18.8725
18.7774
18.684
18.5924
18.5024
18.4142
18.3275
18.2423
18.1586
18.0762
17.9949
17.9147
17.8354
17.7567
17.6787
17.6012
17.5241
17.4474
17.371
17.2949
17.2193
17.1441
17.0693
16.9951
16.9215
16.8486
16.7763
16.7049
16.6343
16.5644
16.4955
16.4274
16.3602
16.2939
16.2285
16.1638
16.1
16.037
15.9747
15.9132
19.2703
19.1684
19.0681
18.9694
18.8724
18.7771
18.6834
18.5914
18.501
18.4122
18.325
18.2392
18.1549
18.0717
17.9898
17.9088
17.8288
17.7495
17.6709
17.5928
17.5153
17.4383
17.3616
17.2855
17.2098
17.1346
17.0599
16.9859
16.9124
16.8397
16.7676
16.6963
16.6259
16.5562
16.4874
16.4194
16.3522
16.2859
16.2204
16.1557
16.0918
16.0286
15.9661
15.9043
19.2708
19.1688
19.0683
18.9696
18.8724
18.7769
18.683
18.5907
18.5
18.4108
18.3232
18.237
18.1521
18.0684
17.9859
17.9044
17.8239
17.7441
17.6651
17.5867
17.5089
17.4316
17.3548
17.2786
17.2029
17.1277
17.0532
16.9792
16.9059
16.8333
16.7615
16.6903
16.62
16.5505
16.4817
16.4138
16.3467
16.2804
16.2149
16.1501
16.0861
16.0228
15.9601
15.8981
19.2711
19.1691
19.0686
18.9697
18.8724
18.7767
18.6827
18.5902
18.4992
18.4098
18.3219
18.2353
18.15
18.066
17.9831
17.9013
17.8203
17.7402
17.6609
17.5822
17.5042
17.4268
17.3499
17.2736
17.1979
17.1228
17.0483
16.9745
16.9013
16.8288
16.7571
16.6861
16.6159
16.5464
16.4778
16.4099
16.3429
16.2766
16.211
16.1463
16.0822
16.0188
15.956
15.8938
19.2714
19.1693
19.0688
18.9698
18.8725
18.7767
18.6825
18.5898
18.4987
18.4091
18.3209
18.2341
18.1486
18.0644
17.9812
17.8991
17.8179
17.7376
17.658
17.5792
17.501
17.4235
17.3466
17.2703
17.1946
17.1195
17.0451
16.9713
16.8982
16.8258
16.7542
16.6833
16.6132
16.5438
16.4752
16.4074
16.3404
16.2741
16.2085
16.1437
16.0796
16.0161
15.9533
15.891
19.2716
19.1695
19.0689
18.9699
18.8725
18.7766
18.6824
18.5896
18.4984
18.4087
18.3203
18.2334
18.1477
18.0632
17.9799
17.8976
17.8163
17.7358
17.6561
17.5771
17.4989
17.4213
17.3443
17.268
17.1923
17.1173
17.0429
16.9692
16.8961
16.8238
16.7523
16.6814
16.6113
16.542
16.4735
16.4057
16.3387
16.2724
16.2069
16.142
16.0779
16.0144
15.9515
15.8891
19.2717
19.1696
19.069
18.97
18.8725
18.7767
18.6824
18.5896
18.4983
18.4085
18.3201
18.2331
18.1474
18.0628
17.9794
17.897
17.8156
17.7351
17.6553
17.5763
17.498
17.4204
17.3434
17.2671
17.1914
17.1164
17.042
16.9683
16.8953
16.823
16.7515
16.6807
16.6106
16.5413
16.4728
16.4051
16.338
16.2718
16.2062
16.1414
16.0772
16.0136
15.9507
15.8883
18.0617
17.9782
17.8958
17.8143
17.7337
17.6539
17.5748
17.4965
17.4188
17.3418
17.2654
17.1897
17.1146
17.0402
16.9665
16.8934
16.8211
16.7495
16.6787
16.6086
16.5393
16.4707
18.0621
17.9787
17.8964
17.8149
17.7344
17.6547
17.5757
17.4973
17.4197
17.3427
17.2663
17.1906
17.1155
17.0411
16.9673
16.8943
16.8219
16.7503
16.6795
16.6093
16.54
16.4714
18.0632
17.98
17.8978
17.8165
17.7361
17.6565
17.5776
17.4994
17.4218
17.3448
17.2685
17.1928
17.1176
17.0432
16.9694
16.8962
16.8238
16.7521
16.6812
16.611
16.5416
16.473
18.0647
17.9817
17.8998
17.8187
17.7386
17.6592
17.5804
17.5023
17.4249
17.348
17.2716
17.1959
17.1207
17.0462
16.9723
16.8991
16.8266
16.7548
16.6837
16.6135
16.544
16.4753
18.0668
17.9842
17.9026
17.822
17.7421
17.663
17.5845
17.5066
17.4293
17.3525
17.2762
17.2004
17.1252
17.0506
16.9766
16.9033
16.8306
16.7587
16.6875
16.6171
16.5476
16.4788
18.0697
17.9876
17.9066
17.8264
17.747
17.6683
17.5902
17.5126
17.4354
17.3588
17.2825
17.2068
17.1315
17.0568
16.9827
16.9092
16.8364
16.7643
16.693
16.6225
16.5528
16.4839
18.0738
17.9924
17.9121
17.8326
17.7538
17.6757
17.5981
17.5209
17.4441
17.3676
17.2915
17.2158
17.1405
17.0657
16.9914
16.9178
16.8448
16.7725
16.701
16.6303
16.5605
16.4915
18.0795
17.999
17.9197
17.8411
17.7632
17.6859
17.609
17.5323
17.456
17.3798
17.3039
17.2283
17.153
17.0782
17.0038
16.93
16.8568
16.7843
16.7126
16.6418
16.5718
16.5027
18.0871
18.008
17.9299
17.8526
17.776
17.6997
17.6238
17.548
17.4723
17.3966
17.3211