/*--------------------------------*- C++ -*----------------------------------*\
  =========                 |
  \\      /  F ield         | OpenFOAM: The Open Source CFD Toolbox
   \\    /   O peration     | Website:  https://openfoam.org
    \\  /    A nd           | Version:  13
     \\/     M anipulation  |
\*---------------------------------------------------------------------------*/
FoamFile
{
    format      ascii;
    class       volScalarField;
    location    "500";
    object      p;
}
// * * * * * * * * * * * * * * * * * * * * * * * * * * * * * * * * * * * * * //

dimensions      [0 2 -2 0 0 0 0];

internalField   nonuniform List<scalar> 
172290
(
16.1067
16.107
16.1077
16.1088
16.1104
16.1123
16.1145
16.1171
16.1201
16.1234
16.127
16.131
16.1353
16.14
16.1449
16.1501
16.1556
16.1614
16.1673
16.1735
16.1799
16.1863
16.1929
16.1996
16.2062
16.2128
16.2193
16.2257
16.2318
16.2376
16.2429
16.2477
16.2519
16.2554
16.2579
16.2593
16.2595
16.2583
16.2554
16.2505
16.2436
16.2342
16.2221
16.2068
16.1881
16.1655
16.1386
16.1069
16.0698
16.0267
15.9771
15.9203
15.8555
15.782
15.699
15.6056
15.5008
15.3837
15.2533
15.1085
14.9483
14.7716
14.5773
14.3643
14.1318
13.8786
13.6041
13.3075
12.9882
12.6459
12.2806
11.8924
11.482
11.0503
10.5986
10.1286
9.64246
16.107
16.1073
16.108
16.1092
16.1107
16.1126
16.1149
16.1175
16.1205
16.1238
16.1275
16.1315
16.1359
16.1405
16.1455
16.1508
16.1563
16.1621
16.1682
16.1744
16.1808
16.1874
16.194
16.2008
16.2075
16.2143
16.2209
16.2274
16.2336
16.2395
16.2451
16.2501
16.2545
16.2581
16.2609
16.2625
16.263
16.262
16.2595
16.255
16.2484
16.2394
16.2277
16.2129
16.1947
16.1726
16.1462
16.1151
16.0786
16.0363
15.9874
15.9313
15.8673
15.7946
15.7124
15.6199
15.516
15.3998
15.2702
15.1263
14.9669
14.791
14.5974
14.385
14.1529
13.9
13.6255
13.3287
13.0089
12.6658
12.2993
11.9096
11.4972
11.0632
10.6087
10.1356
9.64605
16.1077
16.108
16.1087
16.1099
16.1114
16.1134
16.1157
16.1183
16.1214
16.1247
16.1285
16.1325
16.1369
16.1417
16.1467
16.1521
16.1577
16.1636
16.1698
16.1762
16.1827
16.1894
16.1963
16.2032
16.2101
16.2171
16.224
16.2307
16.2372
16.2435
16.2493
16.2547
16.2595
16.2635
16.2667
16.2689
16.2699
16.2696
16.2676
16.2638
16.2579
16.2497
16.2389
16.225
16.2078
16.1867
16.1615
16.1315
16.0963
16.0553
16.0079
15.9533
15.8909
15.8198
15.7394
15.6485
15.5464
15.4321
15.3044
15.1623
15.0046
14.8303
14.6382
14.4271
14.196
13.9438
13.6696
13.3725
13.052
12.7074
12.3388
11.9461
11.5299
11.0912
10.6314
10.1521
9.65575
16.1087
16.109
16.1097
16.1109
16.1125
16.1145
16.1168
16.1195
16.1226
16.1261
16.1299
16.134
16.1385
16.1434
16.1486
16.154
16.1598
16.1659
16.1722
16.1788
16.1856
16.1925
16.1996
16.2068
16.2141
16.2213
16.2286
16.2357
16.2426
16.2493
16.2557
16.2616
16.267
16.2717
16.2756
16.2785
16.2803
16.2808
16.2798
16.277
16.2722
16.2652
16.2556
16.2431
16.2273
16.2079
16.1843
16.1562
16.1229
16.0839
16.0386
15.9863
15.9262
15.8577
15.7798
15.6917
15.5923
15.4807
15.3558
15.2164
15.0614
14.8897
14.6998
14.4908
14.2613
14.0102
13.7365
13.4392
13.1175
12.7709
12.399
12.0019
11.58
11.1343
10.6662
10.1774
9.67059
16.11
16.1103
16.1111
16.1123
16.1139
16.1159
16.1183
16.1211
16.1243
16.1278
16.1317
16.136
16.1406
16.1456
16.151
16.1566
16.1626
16.1689
16.1755
16.1823
16.1893
16.1966
16.204
16.2116
16.2192
16.2269
16.2346
16.2423
16.2498
16.2571
16.2641
16.2707
16.2769
16.2824
16.2872
16.2912
16.294
16.2957
16.2959
16.2945
16.2912
16.2858
16.2778
16.2672
16.2533
16.236
16.2147
16.1889
16.1582
16.1219
16.0795
16.0302
15.9734
15.9082
15.8337
15.7492
15.6535
15.5457
15.4246
15.289
15.1377
14.9694
14.7828
14.5766
14.3495
14.1001
13.8272
13.5298
13.2068
12.8574
12.4813
12.0784
11.6489
11.1937
10.7143
10.2127
9.69137
16.1117
16.112
16.1127
16.114
16.1157
16.1177
16.1202
16.1231
16.1263
16.13
16.134
16.1384
16.1432
16.1484
16.1539
16.1598
16.1661
16.1726
16.1795
16.1866
16.194
16.2016
16.2095
16.2175
16.2256
16.2339
16.2422
16.2504
16.2587
16.2667
16.2745
16.2821
16.2892
16.2958
16.3017
16.3069
16.3111
16.3142
16.316
16.3162
16.3148
16.3113
16.3055
16.297
16.2857
16.2709
16.2524
16.2296
16.2021
16.1692
16.1304
16.085
16.0321
15.9712
15.9012
15.8212
15.7302
15.6272
15.5109
15.3802
15.2336
15.0699
14.8876
14.6852
14.4612
14.2142
13.9427
13.6454
13.321
12.9686
12.5874
12.1772
11.7381
11.2709
10.777
10.2586
9.71846
16.1136
16.1139
16.1147
16.116
16.1177
16.1199
16.1224
16.1254
16.1288
16.1326
16.1368
16.1413
16.1463
16.1517
16.1575
16.1636
16.1701
16.177
16.1842
16.1917
16.1995
16.2076
16.216
16.2245
16.2333
16.2421
16.2511
16.2602
16.2692
16.2781
16.287
16.2955
16.3038
16.3116
16.3189
16.3255
16.3313
16.3362
16.3398
16.3421
16.3428
16.3416
16.3383
16.3326
16.3242
16.3126
16.2974
16.2783
16.2546
16.2258
16.1913
16.1505
16.1025
16.0467
15.982
15.9076
15.8224
15.7253
15.615
15.4903
15.3497
15.1917
15.0148
14.8173
14.5976
14.3539
14.0844
13.7877
13.4621
13.1063
12.7193
12.3004
11.8498
11.3678
10.856
10.3166
9.75272
16.1158
16.1162
16.117
16.1183
16.1201
16.1224
16.125
16.1281
16.1316
16.1355
16.1399
16.1447
16.1499
16.1555
16.1616
16.168
16.1748
16.1821
16.1897
16.1976
16.2059
16.2145
16.2234
16.2326
16.242
16.2516
16.2614
16.2714
16.2813
16.2913
16.3013
16.3111
16.3206
16.3299
16.3388
16.3471
16.3547
16.3615
16.3673
16.3719
16.3751
16.3767
16.3763
16.3738
16.3687
16.3608
16.3495
16.3346
16.3153
16.2914
16.262
16.2266
16.1843
16.1345
16.0762
16.0084
15.9301
15.8401
15.737
15.6196
15.4862
15.3353
15.1652
14.9739
14.7597
14.5204
14.254
13.9586
13.6321
13.273
12.8796
12.451
11.9868
11.4873
10.9538
10.3886
9.79535
16.1184
16.1187
16.1196
16.121
16.1228
16.1251
16.1279
16.1311
16.1348
16.1389
16.1434
16.1484
16.1539
16.1598
16.1661
16.1729
16.1801
16.1878
16.1958
16.2043
16.2131
16.2223
16.2318
16.2417
16.2519
16.2624
16.2731
16.284
16.295
16.3062
16.3174
16.3286
16.3396
16.3505
16.3612
16.3714
16.3811
16.3902
16.3984
16.4056
16.4117
16.4163
16.4193
16.4203
16.4191
16.4153
16.4086
16.3984
16.3843
16.3658
16.3423
16.3131
16.2774
16.2346
16.1837
16.1236
16.0533
15.9716
15.8771
15.7683
15.6437
15.5014
15.3395
15.1561
14.9488
14.7154
14.4534
14.1603
13.8339
13.4716
13.0717
12.6323
12.1527
11.6328
11.0736
10.4774
9.84816
16.1212
16.1215
16.1224
16.1239
16.1258
16.1282
16.1311
16.1344
16.1383
16.1426
16.1474
16.1526
16.1583
16.1645
16.1712
16.1784
16.186
16.1941
16.2026
16.2116
16.221
16.2309
16.2411
16.2518
16.2628
16.2742
16.2859
16.2979
16.3102
16.3226
16.3352
16.3479
16.3607
16.3734
16.386
16.3983
16.4103
16.4219
16.4328
16.443
16.4522
16.4603
16.467
16.472
16.4752
16.476
16.4742
16.4694
16.4611
16.4488
16.4319
16.4097
16.3816
16.3468
16.3042
16.253
16.192
16.1199
16.0353
15.9367
15.8224
15.6904
15.5387
15.3648
15.1664
14.9407
14.6848
14.3957
14.0704
13.706
13.2996
12.8489
12.3522
11.8089
11.2196
10.5865
9.91378
16.1242
16.1246
16.1255
16.127
16.129
16.1316
16.1346
16.1381
16.1421
16.1466
16.1516
16.1571
16.1631
16.1697
16.1767
16.1843
16.1924
16.2009
16.21
16.2196
16.2297
16.2402
16.2513
16.2628
16.2747
16.2871
16.2999
16.3131
16.3267
16.3405
16.3547
16.3691
16.3837
16.3983
16.4131
16.4277
16.4423
16.4566
16.4705
16.4839
16.4966
16.5085
16.5192
16.5287
16.5366
16.5426
16.5463
16.5475
16.5456
16.5401
16.5306
16.5163
16.4966
16.4707
16.4376
16.3964
16.346
16.2849
16.2118
16.1251
16.0229
15.9031
15.7635
15.6014
15.414
15.1982
14.9506
14.6676
14.3454
13.9802
13.5682
13.106
12.591
12.0216
11.3977
10.721
9.99604
16.1275
16.1278
16.1288
16.1304
16.1325
16.1351
16.1383
16.142
16.1462
16.1509
16.1562
16.162
16.1683
16.1752
16.1827
16.1907
16.1992
16.2083
16.218
16.2282
16.239
16.2503
16.2622
16.2746
16.2876
16.301
16.315
16.3295
16.3445
16.3599
16.3757
16.3919
16.4084
16.4252
16.4423
16.4595
16.4768
16.494
16.5112
16.5281
16.5446
16.5605
16.5758
16.59
16.6031
16.6147
16.6245
16.6322
16.6373
16.6395
16.638
16.6325
16.6221
16.6061
16.5836
16.5537
16.5151
16.4666
16.4066
16.3335
16.2453
16.1399
16.0147
15.8668
15.6932
15.4901
15.2537
14.9796
14.663
14.2993
13.8833
13.4104
12.8765
12.2785
11.6153
10.8878
10.1005
16.1309
16.1313
16.1324
16.134
16.1362
16.139
16.1423
16.1461
16.1506
16.1555
16.1611
16.1672
16.1739
16.1811
16.189
16.1975
16.2065
16.2162
16.2265
16.2374
16.2489
16.2611
16.2738
16.2872
16.3012
16.3159
16.3311
16.347
16.3634
16.3805
16.3981
16.4162
16.4348
16.454
16.4735
16.4934
16.5136
16.5341
16.5547
16.5753
16.5959
16.6163
16.6363
16.6557
16.6744
16.6921
16.7085
16.7232
16.736
16.7464
16.7538
16.7578
16.7576
16.7526
16.7418
16.7244
16.6991
16.6646
16.6195
16.5619
16.4899
16.4012
16.293
16.1622
16.0054
15.8184
15.5967
15.335
15.0278
14.6689
14.2517
13.7699
13.2175
12.5894
11.8824
11.0965
10.2351
16.1346
16.135
16.1361
16.1378
16.1401
16.143
16.1465
16.1505
16.1552
16.1604
16.1662
16.1726
16.1797
16.1873
16.1957
16.2046
16.2142
16.2245
16.2354
16.2471
16.2594
16.2724
16.2861
16.3005
16.3157
16.3315
16.3481
16.3654
16.3835
16.4022
16.4217
16.4419
16.4628
16.4843
16.5065
16.5293
16.5526
16.5764
16.6007
16.6254
16.6503
16.6754
16.7005
16.7255
16.7502
16.7743
16.7978
16.8201
16.8411
16.8604
16.8774
16.8917
16.9027
16.9097
16.9117
16.908
16.8974
16.8786
16.8501
16.8101
16.7566
16.6871
16.5988
16.4884
16.352
16.1851
15.9823
15.7378
15.4447
15.0952
14.6812
14.194
13.625
12.9664
12.2122
11.3598
10.4114
16.1384
16.1388
16.14
16.1418
16.1442
16.1472
16.1509
16.1551
16.16
16.1654
16.1716
16.1783
16.1858
16.1939
16.2026
16.2121
16.2223
16.2332
16.2448
16.2572
16.2703
16.2842
16.2989
16.3144
16.3308
16.3479
16.3659
16.3848
16.4045
16.425
16.4465
16.4688
16.4921
16.5161
16.5411
16.5669
16.5935
16.6209
16.6491
16.678
16.7075
16.7375
16.7681
16.7989
16.83
16.8611
16.892
16.9225
16.9523
16.981
17.0084
17.0338
17.0568
17.0767
17.0928
17.1041
17.1096
17.1081
17.098
17.0777
17.0451
16.9976
16.9324
16.846
16.7341
16.5918
16.4133
16.1916
15.9187
15.5852
15.1807
14.6937
14.1124
13.4251
12.6217
11.6955
10.6459
16.1424
16.1428
16.144
16.1459
16.1484
16.1516
16.1554
16.1598
16.1649
16.1707
16.1771
16.1842
16.1921
16.2006
16.2099
16.2199
16.2306
16.2422
16.2545
16.2677
16.2817
16.2966
16.3123
16.3289
16.3464
16.3649
16.3844
16.4048
16.4263
16.4487
16.4723
16.4968
16.5225
16.5493
16.5771
16.6061
16.6361
16.6673
16.6995
16.7328
16.7671
16.8024
16.8386
16.8757
16.9134
16.9518
16.9906
17.0297
17.0688
17.1077
17.146
17.1833
17.2192
17.253
17.2841
17.3117
17.3348
17.3522
17.3625
17.364
17.3548
17.3323
17.2935
17.235
17.1522
17.04
16.8918
16.6998
16.4548
16.1457
15.7594
15.2814
14.6954
13.9845
13.1328
12.1273
10.962
16.1464
16.1469
16.1482
16.1501
16.1528
16.1561
16.1601
16.1647
16.1701
16.1761
16.1829
16.1903
16.1986
16.2075
16.2173
16.2279
16.2393
16.2515
16.2646
16.2785
16.2934
16.3092
16.326
16.3438
16.3626
16.3825
16.4035
16.4255
16.4488
16.4732
16.4989
16.5258
16.554
16.5835
16.6143
16.6466
16.6802
16.7152
16.7517
16.7896
16.8289
16.8696
16.9118
16.9553
17.0001
17.0461
17.0932
17.1413
17.1902
17.2398
17.2897
17.3396
17.3891
17.4378
17.485
17.53
17.572
17.61
17.6425
17.6681
17.6848
17.6902
17.6815
17.655
17.6064
17.53
17.419
17.265
17.0574
16.7833
16.4272
15.9706
15.3919
14.6678
13.7736
12.6873
11.3941
16.1506
16.1511
16.1524
16.1545
16.1572
16.1607
16.1649
16.1697
16.1753
16.1816
16.1887
16.1966
16.2052
16.2147
16.2249
16.2361
16.2481
16.261
16.2748
16.2896
16.3054
16.3222
16.3401
16.3591
16.3792
16.4005
16.423
16.4468
16.4718
16.4983
16.5261
16.5554
16.5862
16.6186
16.6525
16.6881
16.7254
16.7645
16.8053
16.848
16.8925
16.9388
16.9871
17.0373
17.0894
17.1433
17.1991
17.2567
17.3158
17.3765
17.4386
17.5017
17.5656
17.63
17.6943
17.7579
17.8202
17.8802
17.9367
17.9885
18.0336
18.07
18.0949
18.1048
18.0955
18.0614
17.9954
17.8886
17.7296
17.5039
17.1933
16.7751
16.222
15.502
14.5794
13.4199
11.9945
16.1548
16.1554
16.1567
16.1589
16.1617
16.1654
16.1697
16.1748
16.1806
16.1873
16.1947
16.2029
16.212
16.2219
16.2327
16.2444
16.257
16.2706
16.2852
16.3009
16.3176
16.3354
16.3544
16.3746
16.396
16.4188
16.4429
16.4684
16.4953
16.5238
16.5539
16.5857
16.6191
16.6544
16.6915
16.7306
16.7716
16.8148
16.8601
16.9076
16.9574
17.0096
17.0642
17.1213
17.1809
17.2431
17.3078
17.3751
17.4449
17.5172
17.5919
17.6688
17.7478
17.8286
17.9109
17.9942
18.0779
18.1614
18.2436
18.3235
18.3995
18.4697
18.5317
18.5824
18.6177
18.6324
18.6195
18.5702
18.4726
18.3109
18.0648
17.7078
17.206
16.5174
15.5941
14.3836
12.8308
16.1591
16.1596
16.1611
16.1633
16.1663
16.1701
16.1746
16.1799
16.186
16.1929
16.2007
16.2093
16.2188
16.2292
16.2405
16.2528
16.266
16.2804
16.2958
16.3123
16.3299
16.3488
16.3689
16.3903
16.4131
16.4373
16.463
16.4902
16.5191
16.5497
16.582
16.6163
16.6524
16.6906
16.731
16.7736
16.8185
16.8658
16.9157
16.9682
17.0234
17.0815
17.1426
17.2068
17.2741
17.3447
17.4186
17.4959
17.5767
17.6609
17.7487
17.8399
17.9346
18.0325
18.1335
18.2373
18.3436
18.4518
18.5612
18.671
18.78
18.8866
18.989
19.0844
19.1695
19.2394
19.288
19.3068
19.2842
19.2043
19.0454
18.7779
18.3619
17.7463
16.8683
15.6473
13.9898
16.1634
16.1639
16.1654
16.1677
16.1709
16.1748
16.1795
16.1851
16.1914
16.1986
16.2067
16.2157
16.2256
16.2365
16.2483
16.2612
16.2751
16.2901
16.3063
16.3237
16.3423
16.3622
16.3834
16.4061
16.4302
16.4559
16.4832
16.5122
16.543
16.5757
16.6103
16.647
16.6859
16.7271
16.7707
16.8169
16.8656
16.9172
16.9717
17.0293
17.09
17.1542
17.2218
17.2932
17.3683
17.4475
17.5308
17.6183
17.7103
17.8068
17.908
18.014
18.1247
18.2403
18.3607
18.4858
18.6154
18.7494
18.8872
19.0284
19.1722
19.3176
19.4631
19.6068
19.7461
19.8772
19.9949
20.0921
20.1583
20.1787
20.1321
19.9877
19.7017
19.2164
18.4504
17.2871
15.5854
16.1676
16.1682
16.1698
16.1722
16.1754
16.1795
16.1844
16.1902
16.1968
16.2043
16.2127
16.2221
16.2324
16.2438
16.2561
16.2696
16.2842
16.2999
16.3169
16.3351
16.3546
16.3755
16.3979
16.4218
16.4473
16.4744
16.5033
16.5341
16.5669
16.6016
16.6386
16.6778
16.7195
16.7637
16.8105
16.8602
16.9129
16.9687
17.0279
17.0905
17.1569
17.2271
17.3014
17.3799
17.463
17.5509
17.6436
17.7416
17.845
17.954
18.0689
18.1898
18.317
18.4506
18.5908
18.7378
18.8915
19.052
19.2192
19.393
19.573
19.7588
19.9496
20.1443
20.3413
20.5382
20.7315
20.9159
21.0833
21.2218
21.3125
21.327
21.2234
20.94
20.3766
19.3845
17.763
16.1719
16.1725
16.1741
16.1766
16.1799
16.1842
16.1893
16.1952
16.2021
16.2099
16.2187
16.2284
16.2392
16.251
16.2639
16.2779
16.2931
16.3096
16.3273
16.3464
16.3669
16.3888
16.4123
16.4374
16.4642
16.4929
16.5234
16.5559
16.5906
16.6274
16.6667
16.7084
16.7528
16.8
16.8501
16.9034
16.9599
17.02
17.0838
17.1516
17.2234
17.2997
17.3807
17.4666
17.5576
17.6542
17.7565
17.865
17.9798
18.1014
18.2301
18.3662
18.51
18.6619
18.8223
18.9914
19.1696
19.3572
19.5544
19.7614
19.9785
20.2057
20.4431
20.6905
20.9475
21.2132
21.4863
21.764
22.0419
22.3122
22.562
22.7691
22.9006
22.8975
22.6543
22.0035
16.176
16.1766
16.1783
16.1809
16.1844
16.1887
16.194
16.2002
16.2074
16.2155
16.2245
16.2347
16.2458
16.2581
16.2715
16.2861
16.302
16.3191
16.3376
16.3575
16.3789
16.4019
16.4265
16.4528
16.4809
16.511
16.5431
16.5774
16.6139
16.6529
16.6944
16.7386
16.7857
16.8358
16.8892
16.946
17.0064
17.0707
17.1392
17.212
17.2894
17.3717
17.4593
17.5524
17.6515
17.7567
17.8686
17.9875
18.1139
18.2481
18.3906
18.5419
18.7024
18.8728
19.0534
19.2448
19.4477
19.6625
19.8898
20.1304
20.3848
20.6538
20.9381
21.2386
21.5561
21.8914
22.2455
22.6187
23.0108
23.4201
23.8415
24.2646
24.671
25.0181
25.2207
25.1255
16.1801
16.1807
16.1824
16.1851
16.1887
16.1932
16.1987
16.2051
16.2125
16.2209
16.2303
16.2407
16.2523
16.2651
16.279
16.2941
16.3106
16.3284
16.3477
16.3684
16.3907
16.4147
16.4403
16.4679
16.4973
16.5288
16.5625
16.5985
16.6369
16.6779
16.7216
16.7682
16.818
16.871
16.9276
16.9879
17.0521
17.1206
17.1936
17.2713
17.3542
17.4426
17.5367
17.637
17.7439
17.8578
17.9792
18.1085
18.2462
18.393
18.5492
18.7157
18.8929
19.0815
19.2823
19.496
19.7233
19.9652
20.2226
20.4964
20.7878
21.0981
21.4287
21.7813
22.158
22.5613
22.9941
23.4599
23.9631
24.5081
25.0992
25.7404
26.4321
27.1615
27.8898
28.5264
16.184
16.1847
16.1864
16.1892
16.1929
16.1976
16.2032
16.2098
16.2174
16.2261
16.2358
16.2467
16.2586
16.2718
16.2862
16.3019
16.319
16.3375
16.3575
16.379
16.4022
16.4271
16.4538
16.4825
16.5132
16.5461
16.5813
16.619
16.6592
16.7022
16.7481
16.7971
16.8494
16.9053
16.965
17.0287
17.0966
17.1692
17.2466
17.3293
17.4176
17.5118
17.6123
17.7197
17.8344
17.9567
18.0874
18.227
18.376
18.535
18.7049
18.8862
19.0798
19.2866
19.5072
19.7428
19.9943
20.2629
20.5497
20.8561
21.1836
21.5339
21.9091
22.3116
22.7445
23.2114
23.7172
24.2679
24.8713
25.5374
26.2787
27.1119
28.0559
29.1292
30.347
31.7066
16.1878
16.1885
16.1903
16.1931
16.197
16.2018
16.2076
16.2144
16.2222
16.2312
16.2412
16.2524
16.2647
16.2783
16.2932
16.3094
16.3271
16.3462
16.3669
16.3892
16.4132
16.4391
16.4669
16.4967
16.5286
16.5628
16.5995
16.6387
16.6807
16.7256
16.7736
16.825
16.8798
16.9385
17.0012
17.0682
17.1397
17.2163
17.2981
17.3855
17.4789
17.5789
17.6857
17.8
17.9221
18.0528
18.1926
18.3421
18.5021
18.6732
18.8564
19.0523
19.262
19.4863
19.7264
19.9834
20.2584
20.5529
20.8682
21.206
21.5681
21.9566
22.374
22.8231
23.3076
23.832
24.4021
25.0254
25.7118
26.4744
27.3305
28.3036
29.4243
30.7292
32.2647
34.084
16.1914
16.1921
16.194
16.1969
16.2008
16.2058
16.2117
16.2187
16.2268
16.236
16.2463
16.2578
16.2705
16.2845
16.2999
16.3166
16.3348
16.3546
16.3759
16.399
16.4238
16.4506
16.4793
16.5102
16.5433
16.5789
16.6169
16.6577
16.7014
16.7481
16.7982
16.8517
16.909
16.9703
17.0359
17.1061
17.1811
17.2615
17.3475
17.4395
17.538
17.6434
17.7563
17.8772
18.0067
18.1454
18.2939
18.4531
18.6237
18.8066
19.0025
19.2126
19.4378
19.6792
19.9381
20.2157
20.5135
20.8328
21.1755
21.5432
21.9381
22.3624
22.8187
23.3103
23.841
24.4153
25.0392
25.7204
26.4689
27.2979
28.2248
29.2726
30.4717
31.8584
33.4748
35.368
16.1948
16.1956
16.1975
16.2004
16.2045
16.2095
16.2157
16.2228
16.2311
16.2406
16.2512
16.263
16.276
16.2904
16.3062
16.3234
16.3422
16.3625
16.3845
16.4083
16.4339
16.4615
16.4912
16.5231
16.5573
16.5941
16.6335
16.6757
16.721
16.7695
16.8215
16.8771
16.9367
17.0006
17.0689
17.1421
17.2205
17.3045
17.3945
17.4909
17.5942
17.7049
17.8236
17.9509
18.0873
18.2337
18.3907
18.5592
18.74
18.934
19.1423
19.3659
19.606
19.8638
20.1406
20.438
20.7573
21.1003
21.4688
21.8647
22.2902
22.7476
23.2395
23.7691
24.3399
24.9562
25.6231
26.3471
27.1366
28.0019
28.9565
30.0171
31.2033
32.5362
34.032
35.6937
16.198
16.1988
16.2007
16.2038
16.2079
16.2131
16.2194
16.2267
16.2352
16.2448
16.2557
16.2678
16.2812
16.296
16.3122
16.3298
16.3491
16.37
16.3926
16.417
16.4433
16.4717
16.5023
16.5351
16.5705
16.6084
16.649
16.6927
16.7395
16.7897
16.8434
16.9011
16.9629
17.0291
17.1001
17.1761
17.2577
17.3451
17.4389
17.5394
17.6473
17.763
17.8872
18.0204
18.1635
18.3172
18.4822
18.6595
18.8499
19.0546
19.2746
19.511
19.7652
20.0385
20.3324
20.6484
20.9881
21.3533
21.746
22.1681
22.6218
23.1094
23.6334
24.1965
24.8017
25.4523
26.1521
26.9056
27.7176
28.5942
29.542
30.5676
31.6763
32.8685
34.1305
35.4222
16.201
16.2018
16.2038
16.2069
16.2111
16.2164
16.2228
16.2303
16.239
16.2488
16.2599
16.2723
16.286
16.3011
16.3177
16.3358
16.3555
16.3769
16.4
16.4251
16.4521
16.4813
16.5126
16.5464
16.5827
16.6217
16.6635
16.7084
16.7567
16.8084
16.8639
16.9234
16.9872
17.0556
17.1291
17.2078
17.2923
17.383
17.4802
17.5847
17.6968
17.8172
17.9465
18.0854
18.2347
18.3952
18.5677
18.7532
18.9528
19.1674
19.3984
19.6469
19.9143
20.2021
20.5119
20.8452
21.2039
21.5898
22.0048
22.4511
22.9305
23.4455
23.998
24.5904
25.2248
25.9033
26.6278
27.3999
28.221
29.0913
30.0096
30.9721
31.9694
32.9831
33.977
34.8846
16.2037
16.2045
16.2065
16.2097
16.214
16.2194
16.2259
16.2336
16.2424
16.2525
16.2638
16.2764
16.2904
16.3058
16.3227
16.3412
16.3613
16.3832
16.4069
16.4325
16.4602
16.49
16.5221
16.5567
16.5939
16.6339
16.6768
16.7229
16.7724
16.8256
16.8826
16.9439
17.0096
17.0801
17.1557
17.237
17.3242
17.4178
17.5183
17.6264
17.7424
17.8671
18.0012
18.1453
18.3004
18.4672
18.6466
18.8398
19.0477
19.2716
19.5127
19.7723
20.052
20.3532
20.6776
21.027
21.4032
21.808
22.2435
22.7117
23.2145
23.7539
24.3317
24.9496
25.6088
26.3099
27.0529
27.8366
28.6582
29.5124
30.3907
31.2792
32.1566
32.99
33.7286
34.2951
16.2062
16.207
16.209
16.2123
16.2166
16.2221
16.2287
16.2365
16.2455
16.2558
16.2673
16.2801
16.2944
16.3101
16.3273
16.3461
16.3666
16.3889
16.4131
16.4392
16.4674
16.4979
16.5307
16.566
16.604
16.6449
16.6888
16.736
16.7867
16.8412
16.8996
16.9624
17.0298
17.1022
17.1799
17.2634
17.353
17.4494
17.5529
17.6642
17.7838
17.9124
18.0508
18.1997
18.36
18.5325
18.7183
18.9184
19.134
19.3663
19.6166
19.8864
20.1772
20.4906
20.8284
21.1923
21.5843
22.0063
22.4603
22.9481
23.4718
24.033
24.6332
25.2732
25.9535
26.6734
27.4309
28.222
29.0402
29.8754
30.7123
31.5292
32.2953
32.9674
33.4859
33.7701
16.2083
16.2092
16.2112
16.2145
16.2189
16.2245
16.2312
16.2391
16.2483
16.2587
16.2704
16.2834
16.2979
16.3138
16.3313
16.3505
16.3713
16.394
16.4186
16.4452
16.4739
16.5049
16.5383
16.5743
16.613
16.6547
16.6995
16.7477
16.7994
16.855
16.9147
16.9789
17.0478
17.1218
17.2014
17.2869
17.3787
17.4775
17.5836
17.6978
17.8207
17.9528
18.0951
18.2482
18.4131
18.5908
18.7822
18.9886
19.211
19.4508
19.7094
19.9882
20.289
20.6133
20.963
21.3399
21.746
22.1832
22.6535
23.1589
23.701
24.2813
24.901
25.5604
26.259
26.9949
27.7643
28.5612
29.3757
30.1935
30.9943
31.7501
32.423
32.9624
33.3034
33.3643
16.2102
16.211
16.2131
16.2165
16.2209
16.2266
16.2334
16.2414
16.2506
16.2612
16.273
16.2862
16.3009
16.3171
16.3348
16.3542
16.3754
16.3984
16.4233
16.4503
16.4795
16.5109
16.5449
16.5815
16.6208
16.6632
16.7088
16.7578
16.8104
16.867
16.9278
16.9932
17.0634
17.1389
17.2201
17.3073
17.401
17.5019
17.6104
17.7271
17.8527
17.9879
18.1335
18.2904
18.4594
18.6416
18.8379
19.0497
19.278
19.5244
19.7902
20.077
20.3864
20.7202
21.0803
21.4685
21.8868
22.3373
22.8219
23.3424
23.9005
24.4975
25.134
25.8101
26.5245
27.2743
28.0545
28.8569
29.6693
30.4743
31.2478
31.9568
32.5583
32.9965
33.2023
33.0931
16.2117
16.2126
16.2147
16.2181
16.2226
16.2283
16.2352
16.2433
16.2526
16.2632
16.2752
16.2886
16.3034
16.3198
16.3377
16.3574
16.3788
16.402
16.4273
16.4546
16.4841
16.516
16.5504
16.5875
16.6274
16.6703
16.7165
16.7662
16.8197
16.8771
16.9389
17.0052
17.0766
17.1533
17.2358
17.3245
17.4198
17.5225
17.6329
17.7517
17.8797
18.0175
18.166
18.326
18.4984
18.6844
18.8849
19.1012
19.3347
19.5866
19.8585
20.1519
20.4687
20.8105
21.1794
21.5771
22.0059
22.4675
22.9641
23.4974
24.069
24.68
25.3308
26.0211
26.7491
27.5111
28.301
29.1094
29.9222
30.7199
31.4753
32.1525
32.7042
33.071
33.1801
32.9464
16.213
16.2138
16.2159
16.2193
16.2239
16.2296
16.2366
16.2447
16.2542
16.2649
16.277
16.2905
16.3054
16.322
16.3401
16.3599
16.3815
16.405
16.4305
16.458
16.4879
16.5201
16.5548
16.5923
16.6326
16.676
16.7228
16.773
16.8271
16.8852
16.9477
17.0149
17.0872
17.1648
17.2484
17.3383
17.435
17.539
17.651
17.7716
17.9015
18.0414
18.1922
18.3547
18.5299
18.7189
18.9228
19.1429
19.3804
19.6368
19.9136
20.2125
20.5352
20.8835
21.2595
21.665
22.1021
22.5728
23.0791
23.6228
24.2053
24.8276
25.4901
26.1921
26.9313
27.7037
28.5024
29.317
30.1324
30.9273
31.6731
32.3312
32.852
16.2138
16.2147
16.2168
16.2203
16.2249
16.2306
16.2376
16.2458
16.2553
16.2661
16.2783
16.2919
16.3069
16.3235
16.3418
16.3617
16.3835
16.4071
16.4328
16.4606
16.4907
16.5231
16.5581
16.5959
16.6365
16.6803
16.7274
16.7781
16.8326
16.8913
16.9543
17.0221
17.0951
17.1735
17.2579
17.3487
17.4463
17.5515
17.6647
17.7866
17.9179
18.0594
18.2119
18.3763
18.5536
18.7449
18.9514
19.1743
19.4148
19.6746
19.9552
20.2582
20.5853
20.9386
21.3199
21.7312
22.1747
22.6522
23.1659
23.7174
24.3082
24.9391
25.6105
26.3214
27.0694
27.85
28.656
29.4764
30.2953
31.0907
31.8326
16.2144
16.2153
16.2174
16.2208
16.2255
16.2313
16.2383
16.2465
16.256
16.2669
16.2791
16.2927
16.3079
16.3246
16.3429
16.3629
16.3848
16.4085
16.4343
16.4623
16.4925
16.5251
16.5603
16.5982
16.6391
16.6831
16.7305
16.7814
16.8363
16.8953
16.9587
17.0269
17.1003
17.1792
17.2641
17.3555
17.4538
17.5597
17.6737
17.7964
17.9287
18.0713
18.2249
18.3906
18.5694
18.7622
18.9704
19.1951
19.4378
19.6998
19.9829
20.2886
20.6188
20.9753
21.3602
21.7754
22.2231
22.7052
23.2238
23.7805
24.3768
25.0136
25.691
26.4079
27.1619
27.9483
28.7596
29.5844
30.4066
31.2036
31.9449
16.2146
16.2155
16.2176
16.2211
16.2257
16.2315
16.2385
16.2468
16.2563
16.2672
16.2794
16.2931
16.3083
16.325
16.3433
16.3634
16.3853
16.4092
16.435
16.463
16.4933
16.526
16.5612
16.5993
16.6403
16.6844
16.7319
16.783
16.838
16.8971
16.9607
17.0292
17.1028
17.1819
17.2671
17.3588
17.4574
17.5636
17.678
17.8012
17.934
18.077
18.2312
18.3976
18.577
18.7706
18.9796
19.2053
19.449
19.7121
19.9964
20.3035
20.6351
20.9933
21.3799
21.797
22.2468
22.7312
23.2521
23.8114
24.4104
25.05
25.7302
26.4501
27.207
27.9961
28.8099
29.6369
30.4607
31.2586
31.9998
16.2145
16.2153
16.2175
16.2209
16.2255
16.2314
16.2384
16.2466
16.2562
16.267
16.2793
16.2929
16.3081
16.3248
16.3432
16.3633
16.3852
16.409
16.4348
16.4628
16.4931
16.5258
16.561
16.5991
16.64
16.6842
16.7316
16.7828
16.8377
16.8969
16.9605
17.0289
17.1025
17.1816
17.2668
17.3585
17.4571
17.5633
17.6777
17.8008
17.9336
18.0766
18.2308
18.3971
18.5766
18.7702
18.9791
19.2048
19.4484
19.7116
19.9958
20.3028
20.6345
20.9926
21.3792
21.7963
22.246
22.7303
23.2512
23.8105
24.4094
25.0489
25.7291
26.449
27.2058
27.9948
28.8085
29.6354
30.4591
31.2569
31.9979
16.214
16.2148
16.217
16.2204
16.225
16.2308
16.2378
16.2461
16.2556
16.2664
16.2786
16.2923
16.3074
16.3241
16.3424
16.3624
16.3843
16.408
16.4338
16.4617
16.4919
16.5245
16.5597
16.5976
16.6384
16.6824
16.7298
16.7807
16.8355
16.8945
16.9579
17.0261
17.0994
17.1783
17.2632
17.3545
17.4528
17.5587
17.6726
17.7953
17.9275
18.07
18.2236
18.3893
18.568
18.7608
18.9689
19.1935
19.4361
19.6981
19.9811
20.2867
20.6168
20.9732
21.358
21.7731
22.2207
22.7027
23.2212
23.7777
24.3739
25.0105
25.6877
26.4045
27.1583
27.9444
28.7554
29.5799
16.2132
16.214
16.2162
16.2196
16.2242
16.2299
16.2369
16.2451
16.2546
16.2654
16.2775
16.2911
16.3061
16.3227
16.341
16.3609
16.3826
16.4063
16.4319
16.4597
16.4897
16.5221
16.5571
16.5948
16.6355
16.6792
16.7263
16.7769
16.8314
16.89
16.953
17.0208
17.0936
17.172
17.2563
17.3471
17.4447
17.5497
17.6629
17.7847
17.9159
18.0573
18.2097
18.3741
18.5513
18.7425
18.9489
19.1716
19.4121
19.6717
19.9522
20.255
20.582
20.9351
21.3162
21.7274
22.1707
22.648
23.1615
23.7127
24.3033
24.934
25.6051
26.3156
27.0632
27.8435
28.649
16.212
16.2128
16.215
16.2184
16.2229
16.2287
16.2356
16.2437
16.2531
16.2639
16.2759
16.2894
16.3044
16.3208
16.3389
16.3587
16.3803
16.4037
16.4292
16.4567
16.4865
16.5187
16.5534
16.5908
16.6311
16.6745
16.7212
16.7714
16.8254
16.8834
16.9459
17.013
17.0852
17.1628
17.2463
17.336
17.4326
17.5366
17.6485
17.769
17.8988
18.0385
18.1892
18.3516
18.5267
18.7155
18.9193
19.1392
19.3765
19.6327
19.9094
20.2081
20.5305
20.8787
21.2544
21.6596
22.0965
22.5669
23.0729
23.6163
24.1985
24.8204
25.4825
26.184
26.9227
27.6946
28.4927
16.2105
16.2113
16.2135
16.2168
16.2213
16.227
16.2339
16.242
16.2513
16.2619
16.2739
16.2872
16.302
16.3184
16.3363
16.3559
16.3772
16.4005
16.4257
16.4529
16.4824
16.5143
16.5486
16.5856
16.6254
16.6683
16.7145
16.7641
16.8174
16.8748
16.9365
17.0028
17.074
17.1506
17.233
17.3216
17.4169
17.5194
17.6297
17.7484
17.8762
18.0139
18.1622
18.322
18.4943
18.68
18.8804
19.0965
19.3297
19.5814
19.853
20.1462
20.4627
20.8043
21.1728
21.5703
21.9987
22.46
22.9562
23.4891
24.0603
24.6708
25.3211
26.0108
26.7382
27.4995
28.2887
16.2087
16.2095
16.2116
16.2149
16.2194
16.225
16.2318
16.2398
16.249
16.2595
16.2714
16.2846
16.2992
16.3153
16.333
16.3524
16.3735
16.3965
16.4213
16.4483
16.4774
16.5088
16.5427
16.5792
16.6185
16.6608
16.7062
16.7551
16.8077
16.8642
16.9249
16.9902
17.0603
17.1357
17.2167
17.3038
17.3974
17.4981
17.6064
17.723
17.8484
17.9835
18.1289
18.2856
18.4543
18.6363
18.8324
19.0439
19.272
19.5181
19.7836
20.0701
20.3792
20.7126
21.0723
21.4602
21.8781
22.3282
22.8123
23.3324
23.8899
24.4863
25.1223
25.7977
26.5113
27.2604
28.0397
16.2066
16.2074
16.2095
16.2127
16.2172
16.2227
16.2294
16.2373
16.2464
16.2567
16.2684
16.2814
16.2959
16.3118
16.3292
16.3483
16.3691
16.3917
16.4162
16.4428
16.4714
16.5024
16.5357
16.5716
16.6103
16.6518
16.6965
16.7446
16.7962
16.8517
16.9113
16.9754
17.0441
17.118
17.1974
17.2827
17.3744
17.473
17.579
17.693
17.8156
17.9476
18.0896
18.2425
18.4072
18.5846
18.7758
18.9818
19.2039
19.4434
19.7016
19.9801
20.2805
20.6044
20.9537
21.3301
21.7357
22.1725
22.6423
23.1471
23.6886
24.2683
24.8873
25.5459
26.2437
26.9787
16.2041
16.2049
16.207
16.2102
16.2146
16.22
16.2266
16.2344
16.2434
16.2536
16.265
16.2779
16.2921
16.3077
16.3249
16.3437
16.3641
16.3863
16.4104
16.4365
16.4646
16.495
16.5277
16.5629
16.6008
16.6416
16.6854
16.7325
16.7831
16.8374
16.8957
16.9583
17.0256
17.0978
17.1753
17.2586
17.3481
17.4443
17.5476
17.6586
17.778
17.9064
18.0446
18.1932
18.3532
18.5254
18.7109
18.9106
19.1259
19.3578
19.6077
19.8771
20.1675
20.4804
20.8177
21.1812
21.5726
21.9941
22.4474
22.9347
23.4577
24.0182
24.6176
25.2568
25.9363
16.2014
16.2022
16.2042
16.2074
16.2117
16.2171
16.2235
16.2312
16.24
16.25
16.2613
16.2739
16.2878
16.3032
16.32
16.3384
16.3585
16.3803
16.4039
16.4294
16.457
16.4867
16.5187
16.5532
16.5903
16.6301
16.673
16.7189
16.7683
16.8213
16.8782
16.9393
17.0048
17.0751
17.1506
17.2316
17.3186
17.412
17.5123
17.6201
17.7359
17.8603
17.9941
18.138
18.2927
18.4591
18.6382
18.831
19.0385
19.262
19.5027
19.7618
20.041
20.3418
20.6657
21.0145
21.3901
21.7943
22.2292
22.6967
23.1987
23.7374
24.3144
24.9314
25.5896
16.1985
16.1992
16.2012
16.2043
16.2085
16.2138
16.2201
16.2276
16.2363
16.2461
16.2571
16.2695
16.2831
16.2982
16.3147
16.3327
16.3523
16.3736
16.3967
16.4216
16.4486
16.4776
16.5089
16.5425
16.5787
16.6175
16.6592
16.704
16.7521
16.8036
16.8589
16.9183
16.9819
17.0501
17.1233
17.2019
17.2861
17.3765
17.4736
17.5777
17.6896
17.8096
17.9386
18.0772
18.2262
18.3863
18.5584
18.7435
18.9426
19.1568
19.3873
19.6353
19.9022
20.1895
20.4986
20.8314
21.1895
21.5747
21.989
22.4345
22.9132
23.4273
23.979
24.5705
25.2039
16.1952
16.196
16.1979
16.201
16.2051
16.2102
16.2165