/*--------------------------------*- C++ -*----------------------------------*\
  =========                 |
  \\      /  F ield         | OpenFOAM: The Open Source CFD Toolbox
   \\    /   O peration     | Website:  https://openfoam.org
    \\  /    A nd           | Version:  13
     \\/     M anipulation  |
\*---------------------------------------------------------------------------*/
FoamFile
{
    format      ascii;
    class       volScalarField;
    location    "300";
    object      k;
}
// * * * * * * * * * * * * * * * * * * * * * * * * * * * * * * * * * * * * * //

dimensions      [0 2 -2 0 0 0 0];

internalField   nonuniform List<scalar> 
169896
(
0.623748
0.617447
0.611261
0.605187
0.599222
0.593364
0.58761
0.581957
0.576403
0.570945
0.565581
0.560308
0.555124
0.550027
0.545016
0.540087
0.535239
0.530471
0.525779
0.521164
0.516621
0.512151
0.507751
0.503421
0.499157
0.494959
0.490826
0.486755
0.482747
0.478798
0.474909
0.471077
0.467303
0.463583
0.459918
0.456306
0.452747
0.449238
0.44578
0.442371
0.43901
0.435696
0.432429
0.429208
0.426031
0.422898
0.419809
0.416762
0.413757
0.410793
0.40787
0.404986
0.402142
0.399336
0.396569
0.393839
0.391146
0.38849
0.38587
0.383286
0.380737
0.378223
0.375744
0.373299
0.370888
0.36851
0.366166
0.363854
0.361576
0.35933
0.357116
0.354934
0.352783
0.350665
0.623748
0.617446
0.61126
0.605186
0.599222
0.593364
0.58761
0.581957
0.576403
0.570944
0.56558
0.560307
0.555123
0.550027
0.545015
0.540086
0.535239
0.53047
0.525779
0.521163
0.516621
0.51215
0.507751
0.50342
0.499156
0.494958
0.490825
0.486755
0.482746
0.478798
0.474908
0.471077
0.467302
0.463583
0.459918
0.456306
0.452746
0.449238
0.44578
0.442371
0.43901
0.435696
0.432429
0.429208
0.426031
0.422899
0.41981
0.416763
0.413758
0.410794
0.407871
0.404987
0.402143
0.399338
0.39657
0.393841
0.391148
0.388492
0.385873
0.383289
0.38074
0.378226
0.375747
0.373303
0.370892
0.368514
0.366171
0.36386
0.361582
0.359336
0.357122
0.354941
0.352791
0.350673
0.623748
0.617446
0.61126
0.605186
0.599222
0.593364
0.58761
0.581957
0.576403
0.570944
0.56558
0.560307
0.555123
0.550027
0.545015
0.540086
0.535239
0.53047
0.525779
0.521163
0.516621
0.512151
0.507751
0.503421
0.499157
0.49496
0.490826
0.486756
0.482748
0.478799
0.47491
0.471079
0.467305
0.463585
0.459921
0.456309
0.45275
0.449242
0.445784
0.442375
0.439015
0.435701
0.432435
0.429214
0.426038
0.422906
0.419817
0.416771
0.413766
0.410803
0.40788
0.404998
0.402154
0.399349
0.396582
0.393853
0.391162
0.388506
0.385887
0.383304
0.380757
0.378244
0.375766
0.373322
0.370912
0.368536
0.366193
0.363884
0.361607
0.359363
0.357151
0.354971
0.352823
0.350706
0.623748
0.617446
0.61126
0.605187
0.599222
0.593364
0.58761
0.581957
0.576403
0.570945
0.565581
0.560308
0.555125
0.550028
0.545017
0.540089
0.535242
0.530473
0.525783
0.521167
0.516626
0.512156
0.507757
0.503427
0.499164
0.494968
0.490835
0.486766
0.482758
0.478811
0.474923
0.471093
0.467319
0.463601
0.459938
0.456327
0.452769
0.449262
0.445806
0.442398
0.439039
0.435727
0.432462
0.429243
0.426068
0.422937
0.41985
0.416806
0.413803
0.410841
0.40792
0.405039
0.402198
0.399395
0.39663
0.393903
0.391213
0.38856
0.385943
0.383362
0.380817
0.378306
0.375831
0.37339
0.370982
0.368609
0.366269
0.363962
0.361689
0.359447
0.357239
0.355062
0.352918
0.350806
0.623748
0.617447
0.611261
0.605188
0.599224
0.593367
0.587613
0.581961
0.576408
0.570951
0.565588
0.560317
0.555135
0.55004
0.545031
0.540104
0.535259
0.530493
0.525804
0.521191
0.516652
0.512185
0.507789
0.503462
0.499202
0.495008
0.490878
0.486812
0.482807
0.478863
0.474978
0.471151
0.467381
0.463666
0.460006
0.456399
0.452845
0.449341
0.445888
0.442484
0.439129
0.435821
0.432559
0.429344
0.426173
0.423046
0.419963
0.416922
0.413923
0.410965
0.408048
0.405171
0.402334
0.399535
0.396774
0.394051
0.391366
0.388717
0.386104
0.383528
0.380987
0.378481
0.376011
0.373574
0.371172
0.368803
0.366469
0.364167
0.361899
0.359664
0.357461
0.355291
0.353153
0.351046
0.623753
0.617453
0.611269
0.605198
0.599237
0.593384
0.587634
0.581986
0.576438
0.570986
0.565628
0.560362
0.555186
0.550097
0.545094
0.540174
0.535335
0.530575
0.525893
0.521287
0.516755
0.512295
0.507905
0.503585
0.499332
0.495145
0.491022
0.486963
0.482965
0.479028
0.475151
0.471331
0.467567
0.46386
0.460206
0.456606
0.453059
0.449562
0.446116
0.442719
0.43937
0.436069
0.432814
0.429605
0.426441
0.42332
0.420243
0.417209
0.414217
0.411266
0.408355
0.405484
0.402653
0.399861
0.397106
0.39439
0.391711
0.389068
0.386462
0.383893
0.381358
0.378859
0.376395
0.373965
0.37157
0.369209
0.366881
0.364587
0.362326
0.360098
0.357903
0.355741
0.353611
0.351513
0.623762
0.617465
0.611285
0.605219
0.599264
0.593417
0.587675
0.582035
0.576495
0.571053
0.565705
0.560449
0.555284
0.550206
0.545213
0.540304
0.535477
0.530729
0.526059
0.521464
0.516944
0.512496
0.508118
0.50381
0.499568
0.495393
0.491283
0.487235
0.483249
0.479323
0.475457
0.471648
0.467896
0.464199
0.460557
0.456968
0.45343
0.449944
0.446508
0.443121
0.439783
0.436491
0.433246
0.430046
0.426891
0.42378
0.420712
0.417687
0.414704
0.411761
0.408859
0.405997
0.403174
0.400389
0.397643
0.394935
0.392264
0.389629
0.387031
0.384469
0.381942
0.379451
0.376995
0.374573
0.372185
0.369831
0.367512
0.365226
0.362973
0.360753
0.358567
0.356413
0.354291
0.352203
0.623769
0.617474
0.611297
0.605236
0.599286
0.593445
0.58771
0.582078
0.576546
0.571112
0.565774
0.560528
0.555372
0.550305
0.545324
0.540426
0.53561
0.530874
0.526216
0.521634
0.517125
0.51269
0.508325
0.504029
0.4998
0.495638
0.49154
0.487505
0.483532
0.479619
0.475765
0.471969
0.46823
0.464545
0.460915
0.457338
0.453814
0.45034
0.446915
0.44354
0.440213
0.436933
0.433699
0.430511
0.427367
0.424267
0.42121
0.418196
0.415222
0.41229
0.409398
0.406546
0.403733
0.400959
0.398222
0.395523
0.392861
0.390236
0.387647
0.385094
0.382576
0.380094
0.377646
0.375233
0.372854
0.370509
0.368198
0.36592
0.363676
0.361466
0.359288
0.357143
0.355031
0.352951
0.623773
0.61748
0.611305
0.605246
0.5993
0.593463
0.587732
0.582105
0.576579
0.571151
0.565819
0.56058
0.555432
0.550372
0.545399
0.54051
0.535702
0.530975
0.526326
0.521753
0.517254
0.512828
0.508473
0.504187
0.499969
0.495816
0.491729
0.487704
0.483742
0.479839
0.475996
0.472211
0.468482
0.464808
0.461189
0.457622
0.454108
0.450645
0.447231
0.443866
0.44055
0.43728
0.434057
0.430879
0.427745
0.424655
0.421608
0.418603
0.41564
0.412718
0.409835
0.406993
0.404189
0.401424
0.398696
0.396007
0.393354
0.390738
0.388157
0.385613
0.383104
0.38063
0.378191
0.375786
0.373416
0.37108
0.368777
0.366508
0.364273
0.362071
0.359902
0.357766
0.355662
0.353592
0.623776
0.617483
0.61131
0.605253
0.599308
0.593474
0.587746
0.582122
0.576599
0.571175
0.565847
0.560612
0.555469
0.550414
0.545445
0.540561
0.53576
0.531038
0.526395
0.521828
0.517336
0.512916
0.508568
0.504288
0.500077
0.495932
0.491851
0.487834
0.483878
0.479984
0.476148
0.47237
0.468648
0.464983
0.461371
0.457812
0.454306
0.45085
0.447444
0.444087
0.440779
0.437517
0.434301
0.431131
0.428005
0.424923
0.421883
0.418886
0.415931
0.413016
0.410141
0.407306
0.40451
0.401752
0.399032
0.39635
0.393704
0.391095
0.388522
0.385985
0.383484
0.381017
0.378585
0.376188
0.373824
0.371495
0.3692
0.366939
0.364711
0.362517
0.360356
0.358227
0.356132
0.35407
0.623777
0.617485
0.611313
0.605256
0.599313
0.59348
0.587754
0.582132
0.576611
0.57119
0.565864
0.560632
0.555491
0.550439
0.545474
0.540593
0.535795
0.531077
0.526437
0.521874
0.517386
0.51297
0.508626
0.504351
0.500144
0.496003
0.491927
0.487914
0.483964
0.480074
0.476243
0.47247
0.468753
0.465092
0.461486
0.457932
0.454431
0.45098
0.44758
0.444228
0.440925
0.437668
0.434458
0.431293
0.428172
0.425095
0.422061
0.419069
0.416119
0.41321
0.41034
0.40751
0.404719
0.401967
0.399252
0.396575
0.393935
0.391331
0.388764
0.386232
0.383736
0.381275
0.378848
0.376457
0.374099
0.371776
0.369487
0.367231
0.36501
0.362822
0.360667
0.358546
0.356458
0.354403
0.623778
0.617486
0.611314
0.605259
0.599316
0.593484
0.587759
0.582138
0.576619
0.571198
0.565874
0.560644
0.555505
0.550455
0.545491
0.540613
0.535817
0.531101
0.526464
0.521903
0.517417
0.513004
0.508662
0.50439
0.500185
0.496047
0.491974
0.487965
0.484017
0.48013
0.476302
0.472532
0.468819
0.465161
0.461557
0.458007
0.454509
0.451062
0.447665
0.444316
0.441016
0.437763
0.434556
0.431394
0.428277
0.425204
0.422173
0.419185
0.416238
0.413332
0.410466
0.407639
0.404852
0.402103
0.399392
0.396718
0.394082
0.391482
0.388918
0.38639
0.383897
0.38144
0.379018
0.37663
0.374277
0.371958
0.369673
0.367423
0.365207
0.363024
0.360875
0.35876
0.356678
0.354629
0.623779
0.617487
0.611316
0.60526
0.599318
0.593487
0.587762
0.582142
0.576624
0.571204
0.565881
0.560652
0.555514
0.550465
0.545503
0.540625
0.53583
0.531116
0.52648
0.521921
0.517437
0.513025
0.508685
0.504414
0.500212
0.496075
0.492004
0.487996
0.48405
0.480165
0.476339
0.472571
0.46886
0.465204
0.461602
0.458054
0.454558
0.451113
0.447718
0.444371
0.441073
0.437822
0.434617
0.431458
0.428342
0.425271
0.422243
0.419256
0.416311
0.413407
0.410544
0.407719
0.404934
0.402187
0.399479
0.396807
0.394173
0.391575
0.389014
0.386488
0.383999
0.381544
0.379125
0.37674
0.37439
0.372075
0.369794
0.367547
0.365335
0.363157
0.361013
0.358903
0.356827
0.354784
0.623779
0.617488
0.611316
0.605261
0.59932
0.593488
0.587764
0.582145
0.576627
0.571208
0.565885
0.560657
0.555519
0.550471
0.54551
0.540633
0.535839
0.531126
0.526491
0.521933
0.517449
0.513039
0.5087
0.50443
0.500229
0.496094
0.492023
0.488017
0.484072
0.480188
0.476363
0.472596
0.468886
0.465231
0.461631
0.458084
0.454589
0.451145
0.447751
0.444406
0.441109
0.437859
0.434655
0.431497
0.428383
0.425313
0.422286
0.419301
0.416357
0.413454
0.410592
0.407769
0.404985
0.402239
0.399532
0.396862
0.394229
0.391633
0.389073
0.38655
0.384062
0.381609
0.379192
0.37681
0.374462
0.37215
0.369872
0.367629
0.36542
0.363247
0.361107
0.359002
0.356931
0.354895
0.62378
0.617488
0.611317
0.605262
0.599321
0.59349
0.587766
0.582147
0.576629
0.571211
0.565888
0.56066
0.555523
0.550476
0.545515
0.540639
0.535846
0.531133
0.526498
0.521941
0.517458
0.513048
0.50871
0.504441
0.50024
0.496105
0.492036
0.48803
0.484086
0.480202
0.476378
0.472612
0.468903
0.465249
0.461649
0.458103
0.454609
0.451165
0.447772
0.444428
0.441132
0.437882
0.434679
0.431522
0.428408
0.425339
0.422312
0.419328
0.416385
0.413483
0.410621
0.407799
0.405016
0.402271
0.399564
0.396895
0.394263
0.391668
0.38911
0.386587
0.3841
0.38165
0.379234
0.376854
0.374508
0.372198
0.369923
0.367683
0.365479
0.363309
0.361174
0.359074
0.357009
0.354978
0.62378
0.617488
0.611317
0.605262
0.599321
0.59349
0.587767
0.582148
0.576631
0.571212
0.56589
0.560662
0.555526
0.550479
0.545518
0.540643
0.53585
0.531137
0.526503
0.521946
0.517464
0.513054
0.508716
0.504448
0.500247
0.496113
0.492044
0.488039
0.484095
0.480212
0.476388
0.472623
0.468914
0.46526
0.461661
0.458115
0.454621
0.451178
0.447785
0.444441
0.441145
0.437897
0.434694
0.431536
0.428424
0.425354
0.422328
0.419344
0.416401
0.4135
0.410638
0.407816
0.405033
0.402289
0.399583
0.396914
0.394283
0.391689
0.389131
0.386609
0.384124
0.381674
0.37926
0.376881
0.374538
0.37223
0.369958
0.367721
0.36552
0.363354
0.361224
0.359129
0.35707
0.355046
0.62378
0.617489
0.611317
0.605263
0.599322
0.593491
0.587768
0.582149
0.576632
0.571214
0.565892
0.560664
0.555528
0.550481
0.545521
0.540645
0.535853
0.53114
0.526507
0.52195
0.517468
0.513059
0.508721
0.504453
0.500252
0.496119
0.49205
0.488044
0.484101
0.480218
0.476395
0.472629
0.46892
0.465267
0.461668
0.458122
0.454629
0.451186
0.447793
0.444449
0.441154
0.437905
0.434702
0.431545
0.428432
0.425363
0.422337
0.419353
0.41641
0.413509
0.410647
0.407825
0.405043
0.402299
0.399593
0.396924
0.394293
0.391699
0.389142
0.386621
0.384137
0.381688
0.379275
0.376898
0.374557
0.372251
0.369982
0.367748
0.365551
0.363389
0.361264
0.359175
0.357122
0.355105
0.62378
0.617489
0.611318
0.605263
0.599322
0.593491
0.587768
0.582149
0.576632
0.571214
0.565893
0.560665
0.555529
0.550482
0.545522
0.540647
0.535855
0.531142
0.526509
0.521952
0.51747
0.513061
0.508724
0.504456
0.500256
0.496122
0.492053
0.488048
0.484105
0.480222
0.476399
0.472633
0.468925
0.465271
0.461672
0.458127
0.454633
0.45119
0.447798
0.444454
0.441158
0.437909
0.434706
0.431549
0.428436
0.425367
0.422341
0.419357
0.416414
0.413512
0.410651
0.407829
0.405046
0.402302
0.399596
0.396928
0.394297
0.391704
0.389147
0.386626
0.384143
0.381695
0.379284
0.376908
0.374569
0.372266
0.369999
0.367769
0.365575
0.363418
0.361298
0.359215
0.357169
0.35516
0.62378
0.617489
0.611318
0.605263
0.599322
0.593492
0.587769
0.58215
0.576633
0.571215
0.565894
0.560666
0.55553
0.550483
0.545524
0.540648
0.535856
0.531144
0.526511
0.521954
0.517472
0.513063
0.508726
0.504458
0.500258
0.496124
0.492055
0.48805
0.484107
0.480224
0.476401
0.472636
0.468927
0.465274
0.461675
0.458129
0.454635
0.451192
0.447799
0.444456
0.44116
0.437911
0.434708
0.43155
0.428437
0.425368
0.422341
0.419357
0.416414
0.413512
0.41065
0.407828
0.405045
0.402301
0.399595
0.396927
0.394297
0.391703
0.389147
0.386627
0.384144
0.381698
0.379288
0.376914
0.374577
0.372276
0.370012
0.367786
0.365596
0.363444
0.36133
0.359253
0.357215
0.355214
0.62378
0.617489
0.611318
0.605263
0.599322
0.593492
0.587769
0.58215
0.576633
0.571216
0.565894
0.560667
0.555531
0.550484
0.545524
0.540649
0.535857
0.531145
0.526512
0.521955
0.517473
0.513064
0.508727
0.504459
0.500259
0.496125
0.492057
0.488051
0.484108
0.480225
0.476402
0.472637
0.468928
0.465274
0.461675
0.45813
0.454636
0.451193
0.4478
0.444455
0.441159
0.43791
0.434707
0.431549
0.428436
0.425366
0.422339
0.419355
0.416412
0.413509
0.410647
0.407825
0.405042
0.402298
0.399592
0.396924
0.394293
0.3917
0.389144
0.386625
0.384143
0.381697
0.379288
0.376916
0.374581
0.372283
0.370023
0.3678
0.365615
0.363469
0.361361
0.359291
0.357261
0.35527
0.62378
0.617489
0.611318
0.605264
0.599323
0.593492
0.587769
0.58215
0.576634
0.571216
0.565895
0.560667
0.555531
0.550485
0.545525
0.54065
0.535857
0.531146
0.526512
0.521956
0.517474
0.513065
0.508727
0.504459
0.500259
0.496126
0.492057
0.488052
0.484109
0.480226
0.476402
0.472637
0.468928
0.465274
0.461675
0.458129
0.454635
0.451192
0.447799
0.444454
0.441158
0.437908
0.434705
0.431547
0.428433
0.425363
0.422336
0.419351
0.416408
0.413505
0.410643
0.40782
0.405037
0.402292
0.399586
0.396918
0.394288
0.391695
0.389139
0.38662
0.384139
0.381695
0.379287
0.376917
0.374585
0.372289
0.370033
0.367814
0.365634
0.363493
0.361392
0.359331
0.357309
0.355328
0.62378
0.617489
0.611318
0.605264
0.599323
0.593492
0.587769
0.582151
0.576634
0.571216
0.565895
0.560667
0.555532
0.550485
0.545525
0.54065
0.535858
0.531146
0.526513
0.521956
0.517474
0.513065
0.508728
0.50446
0.50026
0.496126
0.492057
0.488052
0.484108
0.480225
0.476402
0.472636
0.468927
0.465273
0.461674
0.458128
0.454633
0.45119
0.447796
0.444452
0.441155
0.437905
0.434702
0.431543
0.428429
0.425359
0.422331
0.419346
0.416402
0.413499
0.410637
0.407814
0.40503
0.402285
0.399579
0.396911
0.39428
0.391688
0.389132
0.386615
0.384134
0.381691
0.379285
0.376917
0.374587
0.372295
0.370042
0.367828
0.365653
0.363519
0.361425
0.359372
0.357361
0.355391
0.62378
0.617489
0.611318
0.605264
0.599323
0.593492
0.587769
0.582151
0.576634
0.571216
0.565895
0.560668
0.555532
0.550485
0.545525
0.54065
0.535858
0.531146
0.526513
0.521956
0.517474
0.513065
0.508728
0.50446
0.500259
0.496126
0.492057
0.488051
0.484108
0.480225
0.476401
0.472635
0.468926
0.465272
0.461672
0.458126
0.454631
0.451188
0.447794
0.444449
0.441152
0.437902
0.434698
0.431539
0.428425
0.425354
0.422326
0.41934
0.416396
0.413493
0.41063
0.407806
0.405022
0.402278
0.399571
0.396903
0.394272
0.39168
0.389125
0.386608
0.384128
0.381686
0.379282
0.376916
0.374589
0.3723
0.370051
0.367842
0.365673
0.363546
0.36146
0.359417
0.357416
0.355458
0.62378
0.617489
0.611318
0.605264
0.599323
0.593492
0.587769
0.582151
0.576634
0.571216
0.565895
0.560668
0.555532
0.550485
0.545526
0.54065
0.535858
0.531146
0.526513
0.521956
0.517474
0.513065
0.508727
0.504459
0.500259
0.496125
0.492056
0.488051
0.484107
0.480224
0.4764
0.472634
0.468924
0.46527
0.46167
0.458124
0.454629
0.451185
0.447791
0.444446
0.441148
0.437898
0.434693
0.431534
0.428419
0.425348
0.42232
0.419334
0.416389
0.413485
0.410622
0.407798
0.405014
0.402269
0.399562
0.396894
0.394264
0.391672
0.389117
0.386601
0.384122
0.381681
0.379279
0.376915
0.374591
0.372306
0.370061
0.367857
0.365695
0.363575
0.361498
0.359464
0.357475
0.355531
0.62378
0.617489
0.611318
0.605264
0.599323
0.593492
0.587769
0.582151
0.576634
0.571217
0.565895
0.560668
0.555532
0.550485
0.545526
0.540651
0.535858
0.531146
0.526513
0.521956
0.517474
0.513065
0.508727
0.504459
0.500259
0.496125
0.492056
0.48805
0.484106
0.480223
0.476399
0.472632
0.468923
0.465268
0.461668
0.458121
0.454626
0.451182
0.447787
0.444442
0.441144
0.437893
0.434689
0.431529
0.428414
0.425342
0.422314
0.419327
0.416382
0.413478
0.410614
0.40779
0.405006
0.40226
0.399554
0.396885
0.394255
0.391663
0.389109
0.386593
0.384116
0.381677
0.379276
0.376915
0.374593
0.372312
0.370072
0.367874
0.365718
0.363606
0.361538
0.359516
0.357539
0.355609
0.62378
0.617489
0.611318
0.605264
0.599323
0.593492
0.587769
0.582151
0.576634
0.571217
0.565895
0.560668
0.555532
0.550485
0.545526
0.54065
0.535858
0.531146
0.526512
0.521956
0.517474
0.513065
0.508727
0.504458
0.500258
0.496124
0.492055
0.488049
0.484105
0.480221
0.476397
0.472631
0.468921
0.465266
0.461666
0.458119
0.454623
0.451179
0.447784
0.444438
0.44114
0.437889
0.434684
0.431524
0.428408
0.425336
0.422307
0.41932
0.416375
0.41347
0.410606
0.407782
0.404997
0.402251
0.399544
0.396876
0.394246
0.391654
0.389101
0.386586
0.384109
0.381672
0.379273
0.376915
0.374596
0.372319
0.370084
0.367892
0.365743
0.36364
0.361582
0.359571
0.357608
0.355693
0.62378
0.617489
0.611318
0.605264
0.599323
0.593493
0.58777
0.582151
0.576634
0.571217
0.565895
0.560668
0.555532
0.550485
0.545526
0.54065
0.535858
0.531146
0.526512
0.521955
0.517473
0.513064
0.508726
0.504458
0.500257
0.496123
0.492054
0.488048
0.484104
0.48022
0.476395
0.472629
0.468919
0.465264
0.461663
0.458116
0.45462
0.451175
0.44778
0.444434
0.441136
0.437884
0.434679
0.431518
0.428402
0.42533
0.4223
0.419313
0.416367
0.413462
0.410598
0.407773
0.404988
0.402242
0.399535
0.396867
0.394237
0.391646
0.389093
0.386579
0.384103
0.381667
0.379271
0.376915
0.3746
0.372327
0.370097
0.367911
0.36577
0.363676
0.361629
0.35963
0.357681
0.355783
0.62378
0.617489
0.611318
0.605264
0.599323
0.593493
0.58777
0.582151
0.576634
0.571217
0.565895
0.560668
0.555532
0.550485
0.545525
0.54065
0.535858
0.531146
0.526512
0.521955
0.517473
0.513064
0.508726
0.504457
0.500256
0.496122
0.492053
0.488046
0.484102
0.480218
0.476394
0.472627
0.468917
0.465262
0.461661
0.458113
0.454617
0.451172
0.447777
0.44443
0.441131
0.437879
0.434674
0.431513
0.428397
0.425324
0.422294
0.419306
0.41636
0.413455
0.41059
0.407765
0.40498
0.402234
0.399526
0.396858
0.394228
0.391637
0.389085
0.386572
0.384098
0.381663
0.379269
0.376916
0.374604
0.372336
0.370111
0.367932
0.365799
0.363714
0.361679
0.359693
0.35776
0.355879
0.62378
0.617489
0.611318
0.605264
0.599323
0.593493
0.58777
0.582151
0.576634
0.571217
0.565895
0.560668
0.555532
0.550485
0.545525
0.54065
0.535857
0.531145
0.526512
0.521955
0.517472
0.513063
0.508725
0.504456
0.500256
0.496121
0.492052
0.488045
0.484101
0.480217
0.476392
0.472625
0.468915
0.465259
0.461658
0.45811
0.454614
0.451169
0.447773
0.444426
0.441127
0.437875
0.434669
0.431508
0.428391
0.425318
0.422287
0.419299
0.416353
0.413447
0.410582
0.407757
0.404971
0.402225
0.399518
0.396849
0.39422
0.391629
0.389078
0.386565
0.384092
0.38166
0.379268
0.376917
0.37461
0.372346
0.370127
0.367954
0.36583
0.363755
0.361731
0.35976
0.357842
0.35598
0.62378
0.617489
0.611318
0.605264
0.599323
0.593493
0.58777
0.582151
0.576634
0.571217
0.565895
0.560668
0.555532
0.550485
0.545525
0.54065
0.535857
0.531145
0.526511
0.521954
0.517472
0.513063
0.508724
0.504456
0.500255
0.49612
0.49205
0.488044
0.484099
0.480215
0.47639
0.472623
0.468912
0.465257
0.461656
0.458108
0.454611
0.451165
0.447769
0.444422
0.441123
0.43787
0.434664
0.431502
0.428385
0.425312
0.422281
0.419293
0.416346
0.41344
0.410574
0.407749
0.404963
0.402217
0.399509
0.396841
0.394212
0.391621
0.38907
0.386559
0.384087
0.381656
0.379267
0.376919
0.374615
0.372356
0.370143
0.367978
0.365862
0.363797
0.361786
0.359829
0.357928
0.356086
0.62378
0.617489
0.611318
0.605264
0.599323
0.593493
0.58777
0.582151
0.576634
0.571216
0.565895
0.560668
0.555532
0.550485
0.545525
0.54065
0.535857
0.531145
0.526511
0.521954
0.517471
0.513062
0.508724
0.504455
0.500254
0.496119
0.492049
0.488043
0.484098
0.480214
0.476389
0.472621
0.46891
0.465255
0.461653
0.458105
0.454608
0.451162
0.447766
0.444418
0.441119
0.437866
0.434659
0.431497
0.42838
0.425306
0.422275
0.419286
0.416339
0.413433
0.410567
0.407741
0.404955
0.402209
0.399501
0.396833
0.394204
0.391614
0.389064
0.386553
0.384083
0.381654
0.379266
0.376922
0.374621
0.372367
0.37016
0.368002
0.365895
0.363841
0.361842
0.359901
0.358018
0.356195
0.62378
0.617489
0.611318
0.605264
0.599323
0.593492
0.587769
0.582151
0.576634
0.571216
0.565895
0.560668
0.555532
0.550485
0.545525
0.540649
0.535857
0.531144
0.52651
0.521953
0.517471
0.513061
0.508723
0.504454
0.500253
0.496118
0.492048
0.488041
0.484097
0.480212
0.476387
0.472619
0.468908
0.465252
0.461651
0.458102
0.454605
0.451159
0.447763
0.444415
0.441115
0.437862
0.434655
0.431493
0.428375
0.425301
0.422269
0.41928
0.416333
0.413426
0.41056
0.407734
0.404948
0.402201
0.399494
0.396826
0.394197
0.391607
0.389057
0.386548
0.384079
0.381651
0.379266
0.376925
0.374628
0.372378
0.370177
0.368026
0.365929
0.363886
0.3619
0.359974
0.358108
0.356308
0.62378
0.617489
0.611318
0.605264
0.599323
0.593492
0.587769
0.582151
0.576634
0.571216
0.565895
0.560667
0.555531
0.550485
0.545525
0.540649
0.535856
0.531144
0.52651
0.521953
0.51747
0.513061
0.508722
0.504453
0.500252
0.496117
0.492047
0.48804
0.484095
0.480211
0.476385
0.472618
0.468906
0.465251
0.461649
0.4581
0.454603
0.451156
0.44776
0.444412
0.441111
0.437858
0.434651
0.431488
0.42837
0.425296
0.422264
0.419275
0.416327
0.41342
0.410554
0.407728
0.404941
0.402195
0.399487
0.396819
0.39419
0.391601
0.389052
0.386543
0.384076
0.38165
0.379267
0.376928
0.374635
0.37239
0.370195
0.368051
0.365962
0.36393
0.361957
0.360046
0.3582
0.356419
0.62378
0.617489
0.611318
0.605264
0.599323
0.593492
0.587769
0.582151
0.576634
0.571216
0.565895
0.560667
0.555531
0.550484
0.545524
0.540649
0.535856
0.531144
0.52651
0.521952
0.51747
0.51306
0.508722
0.504453
0.500251
0.496116
0.492046
0.488039
0.484094
0.48021
0.476384
0.472616
0.468905
0.465249
0.461647
0.458098
0.4546
0.451154
0.447757
0.444409
0.441108
0.437855
0.434647
0.431484
0.428366
0.425291
0.422259
0.41927
0.416322
0.413415
0.410548
0.407722
0.404935
0.402189
0.399481
0.396813
0.394185
0.391596
0.389047
0.386539
0.384073
0.381649
0.379268
0.376932
0.374642
0.372402
0.370212
0.368075
0.365995
0.363973
0.362013
0.360117
0.358288
0.356528
0.62378
0.617489
0.611318
0.605264
0.599323
0.593492
0.587769
0.582151
0.576634
0.571216
0.565895
0.560667
0.555531
0.550484
0.545524
0.540649
0.535856
0.531143
0.526509
0.521952
0.517469
0.51306
0.508721
0.504452
0.500251
0.496116
0.492045
0.488038
0.484093
0.480208
0.476383
0.472615
0.468903
0.465247
0.461645
0.458096
0.454598
0.451151
0.447754
0.444406
0.441105
0.437852
0.434644
0.431481
0.428362
0.425288
0.422255
0.419266
0.416317
0.41341
0.410543
0.407717
0.40493
0.402183
0.399476
0.396808
0.39418
0.391591
0.389043
0.386536
0.384071
0.381648
0.379269
0.376936
0.37465
0.372413
0.370228
0.368098
0.366026
0.364014
0.362065
0.360184
0.358372
0.356632
0.62378
0.617489
0.611318
0.605264
0.599323
0.593492
0.587769
0.582151
0.576634
0.571216
0.565895
0.560667
0.555531
0.550484
0.545524
0.540649
0.535856
0.531143
0.526509
0.521952
0.517469
0.513059
0.508721
0.504452
0.50025
0.496115
0.492045
0.488038
0.484092
0.480208
0.476382
0.472614
0.468902
0.465246
0.461643
0.458094
0.454596
0.45115
0.447752
0.444404
0.441103
0.437849
0.434641
0.431478
0.428359
0.425284
0.422252
0.419262
0.416313
0.413406
0.410539
0.407713
0.404926
0.402179
0.399472
0.396804
0.394176
0.391588
0.38904
0.386534
0.384069
0.381648
0.37927
0.376939
0.374656
0.372423
0.370243
0.368119
0.366054
0.36405
0.362113
0.360245
0.358448
0.356727
0.62378
0.617489
0.611318
0.605264
0.599323
0.593492
0.587769
0.582151
0.576634
0.571216
0.565895
0.560667
0.555531
0.550484
0.545524
0.540648
0.535856
0.531143
0.526509
0.521952
0.517469
0.513059
0.50872
0.504451
0.50025
0.496115
0.492044
0.488037
0.484092
0.480207
0.476381
0.472613
0.468901
0.465245
0.461642
0.458093
0.454595
0.451148
0.447751
0.444402
0.441101
0.437847
0.434639
0.431476
0.428357
0.425282
0.422249
0.419259
0.416311
0.413403
0.410536
0.407709
0.404923
0.402176
0.399468
0.396801
0.394173
0.391585
0.389038
0.386532
0.384068
0.381648
0.379272
0.376943
0.374662
0.372432
0.370256
0.368137
0.366078
0.364082
0.362154
0.360297
0.358514
0.356808
0.62378
0.617489
0.611318
0.605264
0.599323
0.593492
0.587769
0.582151
0.576634
0.571216
0.565895
0.560667
0.555531
0.550484
0.545524
0.540648
0.535855
0.531143
0.526509
0.521951
0.517469
0.513059
0.50872
0.504451
0.500249
0.496114
0.492044
0.488037
0.484091
0.480206
0.47638
0.472612
0.4689
0.465244
0.461642
0.458092
0.454594
0.451147
0.44775
0.444401
0.4411
0.437846
0.434637
0.431474
0.428355
0.42528
0.422247
0.419257
0.416308
0.413401
0.410534
0.407707
0.40492
0.402173
0.399466
0.396798
0.39417
0.391583
0.389036
0.386531
0.384067
0.381648
0.379273
0.376946
0.374667
0.372439
0.370266
0.368151
0.366097
0.364107
0.362187
0.360338
0.358567
0.356874
0.62378
0.617489
0.611318
0.605264
0.599323
0.593492
0.587769
0.582151
0.576634
0.571216
0.565895
0.560667
0.555531
0.550484
0.545524
0.540648
0.535855
0.531143
0.526509
0.521951
0.517469
0.513059
0.50872
0.504451
0.500249
0.496114
0.492044
0.488036
0.484091
0.480206
0.47638
0.472612
0.4689
0.465243
0.461641
0.458091
0.454594
0.451146
0.447749
0.4444
0.441099
0.437845
0.434636
0.431473
0.428354
0.425279
0.422246
0.419256
0.416307
0.413399
0.410532
0.407705
0.404919
0.402172
0.399464
0.396797
0.394169
0.391582
0.389035
0.38653
0.384067
0.381648
0.379274
0.376947
0.37467
0.372444
0.370273
0.368161
0.36611
0.364124
0.362209
0.360367
0.358602
0.356917
0.599323
0.593492
0.587769
0.582151
0.576634
0.571216
0.565894
0.560667
0.555531
0.550484
0.545524
0.540648
0.535855
0.531143
0.526509
0.521951
0.517468
0.513058
0.50872
0.50445
0.500249
0.496114
0.492043
0.488036
0.484091
0.480206
0.47638
0.472611
0.4689
0.465243
0.461641
0.458091
0.454593
0.451146
0.447748
0.444399
0.441098
0.437844
0.434636
0.431472
0.428353
0.425278
0.422245
0.419255
0.416306
0.413398
0.410531
0.407704
0.404918
0.402171
0.399463
0.396796
0.394168
0.391581
0.389034
0.386529
0.384067
0.381648
0.379275
0.376949
0.374672
0.372447
0.370277
0.368166
0.366117
0.364134
0.362221
0.360382
0.358621
0.356942
0.368165
0.366116
0.364134
0.362221
0.360382
0.368161
0.36611
0.364125
0.362209
0.360367
0.623748
0.617447
0.611261
0.605187
0.599223
0.593365
0.587611
0.581958
0.576404
0.570945
0.565581
0.560308
0.555125
0.550028
0.545017
0.540088
0.535241
0.530472
0.525781
0.521165
0.516623
0.512153
0.507753
0.503423
0.499159
0.494962
0.490829
0.486759
0.48275
0.478802
0.474913
0.471082
0.467307
0.463588
0.459923
0.456312
0.452753
0.449245
0.445787
0.442378
0.439018
0.435704
0.432438
0.429217
0.426041
0.422909
0.41982
0.416773
0.413769
0.410805
0.407883
0.404999
0.402156
0.39935
0.396583
0.393854
0.391161
0.388505
0.385885
0.383301
0.380752
0.378238
0.375758
0.373313
0.370901
0.368522
0.366177
0.363864
0.361584
0.359336
0.35712
0.354936
0.352783
0.350662
0.623748
0.617447
0.61126
0.605187
0.599222
0.593364
0.58761
0.581957
0.576403
0.570945
0.565581
0.560308
0.555124
0.550028
0.545016
0.540087
0.53524
0.530471
0.52578
0.521164
0.516622
0.512152
0.507753
0.503422
0.499159
0.494961
0.490828
0.486758
0.48275
0.478802
0.474913
0.471081
0.467307
0.463588
0.459923
0.456312
0.452753
0.449245
0.445787
0.442378
0.439018
0.435705
0.432438
0.429217
0.426041
0.422909
0.41982
0.416774
0.41377
0.410807
0.407884
0.405001
0.402157
0.399352
0.396585
0.393855
0.391163
0.388507
0.385888
0.383304
0.380755
0.378241
0.375762
0.373317
0.370905
0.368527
0.366182
0.36387
0.36159
0.359343
0.357127
0.354944
0.352791
0.35067
0.623748
0.617447
0.61126
0.605187
0.599222
0.593364
0.58761
0.581957
0.576403
0.570945
0.565581
0.560308
0.555124
0.550028
0.545016
0.540088
0.53524
0.530472
0.52578
0.521165
0.516623
0.512153
0.507754
0.503423
0.49916
0.494962
0.490829
0.486759
0.482751
0.478803
0.474915
0.471084
0.467309
0.463591
0.459926
0.456315
0.452756
0.449249
0.445791
0.442383
0.439023
0.43571
0.432444
0.429223
0.426048
0.422916
0.419828
0.416782
0.413778
0.410815
0.407893
0.405011
0.402168
0.399363
0.396597
0.393868
0.391176
0.388521
0.385903
0.38332
0.380772
0.378259
0.37578
0.373336
0.370925
0.368548
0.366205
0.363894
0.361615
0.359369
0.357155
0.354973
0.352822
0.350703
0.623748
0.617447
0.611261
0.605187
0.599222
0.593365
0.58761
0.581958
0.576404
0.570946
0.565581
0.560309
0.555125
0.550029
0.545018
0.54009
0.535243
0.530475
0.525784
0.521169
0.516628
0.512158
0.507759
0.50343
0.499167
0.49497
0.490838
0.486769
0.482762
0.478815
0.474927
0.471097
0.467324
0.463606
0.459943
0.456333
0.452775
0.449269
0.445813
0.442406
0.439047
0.435736
0.432471
0.429252
0.426078
0.422948
0.419861
0.416817
0.413815
0.410854
0.407933
0.405053
0.402211
0.399409
0.396644
0.393917
0.391228
0.388575
0.385958
0.383377
0.380832
0.378321
0.375845
0.373403
0.370995
0.368621
0.36628
0.363972
0.361696
0.359453
0.357242
0.355064
0.352916
0.350801
0.623748
0.617447
0.611261
0.605188
0.599224
0.593367
0.587614
0.581962
0.576409
0.570952
0.565589
0.560318
0.555136
0.550041
0.545032
0.540105
0.53526
0.530494
0.525806
0.521193
0.516654
0.512187
0.507791
0.503464
0.499204
0.49501
0.490881
0.486815
0.482811
0.478867
0.474982
0.471156
0.467386
0.463672
0.460012