/*--------------------------------*- C++ -*----------------------------------*\
  =========                 |
  \\      /  F ield         | OpenFOAM: The Open Source CFD Toolbox
   \\    /   O peration     | Website:  https://openfoam.org
    \\  /    A nd           | Version:  13
     \\/     M anipulation  |
\*---------------------------------------------------------------------------*/
FoamFile
{
    format      ascii;
    class       volScalarField;
    location    "800";
    object      nut;
}
// * * * * * * * * * * * * * * * * * * * * * * * * * * * * * * * * * * * * * //

dimensions      [0 2 -1 0 0 0 0];

internalField   nonuniform List<scalar> 
171745
(
0.018725
0.0187116
0.0186983
0.0186852
0.0186722
0.0186593
0.0186465
0.0186337
0.0186209
0.0186082
0.0185954
0.0185826
0.0185696
0.0185566
0.0185435
0.0185304
0.0185171
0.0185037
0.0184904
0.018477
0.0184636
0.0184503
0.0184371
0.0184241
0.018726
0.0187127
0.0186994
0.0186863
0.0186733
0.0186604
0.0186476
0.0186349
0.0186221
0.0186094
0.0185967
0.0185839
0.018571
0.0185581
0.0185451
0.0185319
0.0185187
0.0185054
0.0184921
0.0184788
0.0184655
0.0184522
0.0184391
0.0184261
0.0187282
0.0187148
0.0187016
0.0186885
0.0186755
0.0186627
0.0186499
0.0186372
0.0186246
0.018612
0.0185993
0.0185866
0.0185739
0.018561
0.0185481
0.0185351
0.018522
0.0185089
0.0184957
0.0184825
0.0184693
0.0184562
0.0184432
0.0184303
0.0187316
0.0187182
0.018705
0.0186919
0.018679
0.0186662
0.0186535
0.018641
0.0186285
0.018616
0.0186035
0.0185909
0.0185784
0.0185657
0.018553
0.0185402
0.0185273
0.0185143
0.0185014
0.0184884
0.0184754
0.0184625
0.0184497
0.0184371
0.0187366
0.0187232
0.01871
0.018697
0.0186841
0.0186714
0.0186589
0.0186465
0.0186341
0.0186218
0.0186095
0.0185972
0.0185849
0.0185725
0.01856
0.0185475
0.0185349
0.0185222
0.0185095
0.0184968
0.0184842
0.0184716
0.0184591
0.0184467
0.0187436
0.0187302
0.018717
0.0187041
0.0186914
0.0186788
0.0186665
0.0186542
0.0186421
0.0186301
0.0186181
0.0186061
0.0185941
0.018582
0.0185699
0.0185577
0.0185455
0.0185332
0.0185209
0.0185086
0.0184963
0.0184841
0.018472
0.01846
0.0187533
0.01874
0.0187269
0.0187141
0.0187015
0.0186891
0.018677
0.018665
0.0186532
0.0186415
0.0186299
0.0186183
0.0186067
0.0185951
0.0185834
0.0185717
0.01856
0.0185482
0.0185363
0.0185245
0.0185127
0.018501
0.0184894
0.0184779
0.0187669
0.0187536
0.0187406
0.018728
0.0187156
0.0187035
0.0186917
0.0186801
0.0186686
0.0186574
0.0186462
0.0186351
0.0186241
0.0186131
0.018602
0.0185909
0.0185798
0.0185686
0.0185574
0.0185462
0.018535
0.0185239
0.0185129
0.018502
0.0187858
0.0187727
0.01876
0.0187476
0.0187355
0.0187238
0.0187123
0.0187012
0.0186903
0.0186796
0.0186691
0.0186587
0.0186483
0.0186381
0.0186278
0.0186175
0.0186071
0.0185967
0.0185863
0.0185758
0.0185654
0.0185551
0.0185448
0.0185347
0.0188126
0.0187998
0.0187874
0.0187753
0.0187637
0.0187525
0.0187416
0.0187311
0.0187209
0.018711
0.0187013
0.0186918
0.0186824
0.0186731
0.0186638
0.0186545
0.0186451
0.0186357
0.0186263
0.0186168
0.0186073
0.0185978
0.0185884
0.0185791
0.0188508
0.0188384
0.0188265
0.018815
0.018804
0.0187935
0.0187834
0.0187737
0.0187645
0.0187556
0.018747
0.0187387
0.0187305
0.0187225
0.0187145
0.0187064
0.0186984
0.0186902
0.0186819
0.0186736
0.0186652
0.0186568
0.0186484
0.0186401
0.0189054
0.0188936
0.0188823
0.0188716
0.0188615
0.0188518
0.0188428
0.0188342
0.0188262
0.0188186
0.0188115
0.0188047
0.0187981
0.0187917
0.0187854
0.0187791
0.0187726
0.018766
0.0187592
0.0187522
0.0187452
0.018738
0.0187307
0.0187233
0.0189824
0.0189714
0.018961
0.0189511
0.018942
0.0189334
0.0189256
0.0189184
0.0189118
0.0189059
0.0189005
0.0188956
0.0188911
0.0188867
0.0188825
0.0188783
0.0188738
0.0188692
0.0188642
0.0188588
0.0188533
0.0188474
0.0188413
0.0188349
0.0190871
0.0190767
0.019067
0.0190579
0.0190496
0.019042
0.0190353
0.0190293
0.0190242
0.01902
0.0190165
0.0190137
0.0190114
0.0190095
0.0190078
0.019006
0.0190041
0.0190018
0.018999
0.0189956
0.0189918
0.0189874
0.0189825
0.018977
0.0192165
0.0192059
0.0191961
0.0191869
0.0191786
0.0191712
0.0191647
0.0191593
0.019155
0.0191518
0.0191498
0.0191488
0.0191487
0.0191492
0.0191501
0.0191511
0.019152
0.0191525
0.0191525
0.0191517
0.0191501
0.0191476
0.0191441
0.0191396
0.0193445
0.0193321
0.0193204
0.0193094
0.0192992
0.0192899
0.0192818
0.019275
0.0192697
0.0192659
0.0192638
0.0192632
0.0192639
0.0192656
0.0192677
0.01927
0.0192724
0.0192748
0.0192772
0.0192794
0.0192806
0.0192805
0.0192788
0.0192755
0.0194046
0.0193881
0.0193721
0.0193567
0.0193418
0.0193278
0.0193148
0.0193031
0.0192926
0.0192835
0.0192756
0.0192686
0.0192617
0.0192543
0.0192462
0.0192374
0.0192287
0.0192212
0.0192161
0.0192145
0.0192168
0.0192177
0.0192169
0.0192142
0.0192886
0.0192654
0.0192418
0.0192175
0.0191926
0.0191667
0.0191396
0.0191107
0.0190791
0.0190435
0.0190016
0.0189513
0.0188903
0.0188185
0.0187377
0.0186521
0.0185671
0.0184889
0.018424
0.0183777
0.0183544
0.0183523
0.0183515
0.018352
0.0188473
0.0188083
0.0187646
0.0187149
0.0186574
0.0185896
0.0185082
0.0184086
0.0182851
0.0181308
0.0179381
0.016758
0.0158982
0.0154649
0.0153687
0.0154822
0.0157018
0.0158796
0.015658
0.0154888
0.0153792
0.0153386
0.0153583
0.0153889
0.0154299
0.0177951
0.0176922
0.0175662
0.0174124
0.0172252
0.0169977
0.0167222
0.0163899
0.0155778
0.0139865
0.0127519
0.0118745
0.0113342
0.0110851
0.0110527
0.0111153
0.0111906
0.011158
0.010852
0.0106116
0.010438
0.0103325
0.0103023
0.0103613
0.0104425
0.0153144
0.0149688
0.0145771
0.0141421
0.0136656
0.0131493
0.0123073
0.0111212
0.0100624
0.00917807
0.00849314
0.00801337
0.00772806
0.00760979
0.00759447
0.00745027
0.00715094
0.00690286
0.00669766
0.00653016
0.00639736
0.00630065
0.00624031
0.00621469
0.00624424
0.0100364
0.00951747
0.00902178
0.00855162
0.0081063
0.00768324
0.00727897
0.00689042
0.0064892
0.00607457
0.00574445
0.00551186
0.00525256
0.00503597
0.00486694
0.00473842
0.00463856
0.00455425
0.00447501
0.00439637
0.00431449
0.00424674
0.00420051
0.00417588
0.00417061
0.00485786
0.00464601
0.00446007
0.0042969
0.00415356
0.00402757
0.00391707
0.00382084
0.00373898
0.00367367
0.00363075
0.0036179
0.00363451
0.00366344
0.00371241
0.00377011
0.00381126
0.00380611
0.00374351
0.00364183
0.00350074
0.00344754
0.00345537
0.00350321
0.00357709
0.00274579
0.00273592
0.00273756
0.00275082
0.00277504
0.0028107
0.00285825
0.00291707
0.00299052
0.00308562
0.00321616
0.0033903
0.00357858
0.00360872
0.00375425
0.00392952
0.00404049
0.00393142
0.00361868
0.00330086
0.00290631
0.00311536
0.00299843
0.00303731
0.00309859
0.00314429
0.00266315
0.00276639
0.00287407
0.00298517
0.00309917
0.00321629
0.0033386
0.0034735
0.00363481
0.0038548
0.00411298
0.00415956
0.00437199
0.00456465
0.00440613
0.00387862
0.00284777
0.00243328
0.00240418
0.00266532
0.00292037
0.00362768
0.00419745
0.00500219
0.0062621
0.0035127
0.00366084
0.00381023
0.00396087
0.00411297
0.00426896
0.00443923
0.0046459
0.00492073
0.00495852
0.00401757
0.00443302
0.00461798
0.00405205
0.00185281
0.00165733
0.00134164
0.00257176
0.00504719
0.00780404
0.00966567
0.00986572
0.010159
0.0110056
0.00458776
0.00478076
0.00496905
0.00515316
0.00533233
0.00550801
0.00568547
0.00588052
0.00480729
0.0053198
0.00286984
0.00319889
0.00189227
0.00174599
0.000647749
0.000956722
0.00181979
0.00624744
0.00793364
0.00921046
0.00891938
0.00886208
0.00909207
0.00937219
0.0062395
0.00641617
0.00658646
0.00664069
0.00632983
0.00580452
0.00501907
0.00406355
0.00619457
0.00292636
0.00363889
0.00133502
0.000319568
0.00254138
0.00805548
0.00739002
0.00703151
0.00694135
0.00734245
0.00771667
0.00579193
0.00711547
0.0066697
0.00651575
0.00667262
0.00694301
0.00706425
0.00207465
0.00277796
0.00341753
0.00412907
0.00527179
0.00350777
0.00331261
0.00335278
0.0034316
0.00596723
0.00564956
0.00536276
0.005117
0.00491531
0.00476016
0.0046446
0.00455756
0.0044879
0.00442692
0.00437003
0.00431024
0.00425973
0.0042252
0.0042074
0.00420536
0.00422759
0.00908839
0.0084285
0.00797466
0.00772419
0.00765928
0.0076264
0.00728902
0.00701383
0.00679022
0.00661006
0.00646804
0.00636054
0.00628761
0.00624858
0.00625339
0.00630971
0.00639318
0.0064942
0.0138681
0.012677
0.0118421
0.0113549
0.0111833
0.0112683
0.0114853
0.0113518
0.0110151
0.0107461
0.0105439
0.0104085
0.0103399
0.0103582
0.0104283
0.0105174
0.0106235
0.0107445
0.0179985
0.0177885
0.0166636
0.0158697
0.0155274
0.0155664
0.015871
0.015989
0.0157463
0.0155523
0.0154144
0.015338
0.0153383
0.015361
0.0153948
0.0154384
0.0154904
0.0155497
0.0189986
0.0189507
0.0188937
0.018826
0.0187481
0.0186628
0.018575
0.018491
0.0184172
0.0183595
0.0183228
0.0183125
0.0183097
0.0183087
0.0183093
0.0183114
0.0183147
0.0183195
0.0192692
0.0192601
0.0192517
0.0192433
0.0192345
0.019225
0.0192151
0.0192057
0.019198
0.0191932
0.0191924
0.0191933
0.0191928
0.0191908
0.0191871
0.0191819
0.0191756
0.0191682
0.0192623
0.0192602
0.0192596
0.0192603
0.0192619
0.019264
0.0192662
0.0192685
0.0192706
0.0192727
0.0192745
0.019275
0.0192741
0.0192716
0.0192675
0.019262
0.0192553
0.0192474
0.0191524
0.0191506
0.0191498
0.01915
0.0191507
0.0191518
0.0191529
0.0191538
0.0191543
0.0191543
0.0191533
0.0191515
0.0191487
0.0191449
0.0191401
0.0191342
0.0191274
0.0191199
0.019022
0.0190188
0.0190162
0.0190142
0.0190125
0.019011
0.0190094
0.0190076
0.0190054
0.0190026
0.0189993
0.0189955
0.0189911
0.018986
0.0189805
0.0189743
0.0189677
0.0189606
0.0189084
0.0189032
0.0188985
0.0188941
0.01889
0.018886
0.0188819
0.0188776
0.018873
0.0188681
0.0188629
0.0188574
0.0188516
0.0188455
0.0188391
0.0188325
0.0188256
0.0188185
0.0188212
0.0188142
0.0188075
0.0188012
0.0187949
0.0187887
0.0187825
0.0187762
0.0187697
0.018763
0.0187562
0.0187492
0.0187421
0.0187349
0.0187276
0.0187202
0.0187128
0.0187053
0.0187581
0.0187497
0.0187415
0.0187334
0.0187255
0.0187176
0.0187097
0.0187018
0.0186937
0.0186855
0.0186773
0.018669
0.0186607
0.0186524
0.0186441
0.0186358
0.0186276
0.0186195
0.0187135
0.0187039
0.0186945
0.0186852
0.018676
0.0186668
0.0186576
0.0186483
0.018639
0.0186296
0.0186201
0.0186107
0.0186014
0.0185921
0.0185828
0.0185737
0.0185647
0.0185559
0.018682
0.0186716
0.0186613
0.018651
0.0186408
0.0186306
0.0186203
0.01861
0.0185997
0.0185893
0.0185789
0.0185686
0.0185583
0.0185481
0.018538
0.0185281
0.0185183
0.0185088
0.0186597
0.0186486
0.0186376
0.0186266
0.0186156
0.0186046
0.0185936
0.0185825
0.0185714
0.0185602
0.018549
0.0185379
0.0185269
0.0185159
0.0185051
0.0184945
0.018484
0.0184738
0.0186437
0.0186322
0.0186206
0.0186091
0.0185975
0.0185859
0.0185742
0.0185625
0.0185507
0.0185389
0.0185271
0.0185154
0.0185037
0.0184922
0.0184807
0.0184695
0.0184585
0.0184477
0.0186322
0.0186202
0.0186083
0.0185963
0.0185843
0.0185722
0.0185601
0.0185479
0.0185356
0.0185233
0.018511
0.0184988
0.0184866
0.0184745
0.0184626
0.0184509
0.0184394
0.0184281
0.0186239
0.0186116
0.0185994
0.018587
0.0185747
0.0185622
0.0185497
0.0185371
0.0185245
0.0185118
0.0184991
0.0184865
0.0184739
0.0184615
0.0184492
0.018437
0.0184251
0.0184135
0.0186179
0.0186054
0.018593
0.0185804
0.0185678
0.0185551
0.0185423
0.0185294
0.0185165
0.0185035
0.0184905
0.0184776
0.0184647
0.0184519
0.0184393
0.0184269
0.0184147
0.0184028
0.0186138
0.0186012
0.0185885
0.0185758
0.018563
0.0185501
0.0185371
0.018524
0.0185109
0.0184977
0.0184845
0.0184713
0.0184583
0.0184453
0.0184325
0.0184198
0.0184074
0.0183953
0.0186113
0.0185985
0.0185858
0.0185729
0.01856
0.0185469
0.0185338
0.0185206
0.0185073
0.018494
0.0184807
0.0184674
0.0184542
0.0184411
0.0184281
0.0184154
0.0184028
0.0183905
0.01861
0.0185972
0.0185844
0.0185715
0.0185585
0.0185454
0.0185322
0.0185189
0.0185056
0.0184922
0.0184789
0.0184655
0.0184522
0.0184391
0.018426
0.0184132
0.0184006
0.0183882
0.0187251
0.0187117
0.0186985
0.0186854
0.0186724
0.0186595
0.0186467
0.0186339
0.0186212
0.0186084
0.0185957
0.0185828
0.0185699
0.0185569
0.0185438
0.0185306
0.0185173
0.018504
0.0184906
0.0184772
0.0184638
0.0184505
0.0184373
0.0184242
0.0187262
0.0187128
0.0186996
0.0186865
0.0186736
0.0186607
0.0186479
0.0186352
0.0186225
0.0186098
0.018597
0.0185842
0.0185714
0.0185584
0.0185454
0.0185323
0.018519
0.0185057
0.0184924
0.0184791
0.0184657
0.0184525
0.0184393
0.0184263
0.0187284
0.0187151
0.0187019
0.0186888
0.0186759
0.018663
0.0186503
0.0186376
0.018625
0.0186124
0.0185998
0.0185871
0.0185744
0.0185615
0.0185486
0.0185356
0.0185225
0.0185094
0.0184962
0.0184829
0.0184698
0.0184566
0.0184436
0.0184307
0.018732
0.0187186
0.0187055
0.0186924
0.0186796
0.0186668
0.0186542
0.0186416
0.0186291
0.0186166
0.0186042
0.0185917
0.0185791
0.0185665
0.0185538
0.018541
0.0185281
0.0185151
0.0185021
0.0184891
0.0184762
0.0184633
0.0184505
0.0184378
0.0187372
0.0187239
0.0187107
0.0186978
0.018685
0.0186723
0.0186598
0.0186475
0.0186351
0.0186229
0.0186106
0.0185983
0.018586
0.0185737
0.0185612
0.0185487
0.0185361
0.0185235
0.0185108
0.0184981
0.0184854
0.0184728
0.0184604
0.018448
0.0187445
0.0187312
0.0187181
0.0187053
0.0186926
0.0186801
0.0186678
0.0186556
0.0186435
0.0186315
0.0186196
0.0186076
0.0185956
0.0185836
0.0185716
0.0185594
0.0185472
0.018535
0.0185227
0.0185104
0.0184981
0.0184859
0.0184738
0.0184619
0.0187545
0.0187412
0.0187282
0.0187155
0.018703
0.0186907
0.0186786
0.0186667
0.0186549
0.0186433
0.0186317
0.0186202
0.0186086
0.0185971
0.0185855
0.0185739
0.0185621
0.0185504
0.0185386
0.0185268
0.0185151
0.0185034
0.0184918
0.0184804
0.0187681
0.018755
0.0187421
0.0187295
0.0187172
0.0187052
0.0186935
0.0186819
0.0186706
0.0186594
0.0186483
0.0186373
0.0186263
0.0186154
0.0186044
0.0185934
0.0185823
0.0185712
0.01856
0.0185489
0.0185378
0.0185267
0.0185158
0.018505
0.0187871
0.0187741
0.0187614
0.0187491
0.0187371
0.0187255
0.0187142
0.0187031
0.0186923
0.0186817
0.0186713
0.018661
0.0186507
0.0186405
0.0186303
0.0186201
0.0186098
0.0185995
0.0185891
0.0185788
0.0185685
0.0185582
0.018548
0.018538
0.0188137
0.018801
0.0187887
0.0187768
0.0187653
0.0187542
0.0187434
0.018733
0.0187229
0.0187131
0.0187035
0.0186941
0.0186848
0.0186756
0.0186664
0.0186572
0.018648
0.0186387
0.0186293
0.0186199
0.0186106
0.0186012
0.018592
0.0185828
0.0188517
0.0188394
0.0188276
0.0188163
0.0188054
0.018795
0.0187851
0.0187756
0.0187664
0.0187577
0.0187492
0.018741
0.0187329
0.018725
0.0187171
0.0187092
0.0187013
0.0186933
0.0186852
0.018677
0.0186688
0.0186606
0.0186525
0.0186443
0.018906
0.0188944
0.0188833
0.0188728
0.0188628
0.0188533
0.0188444
0.0188361
0.0188282
0.0188208
0.0188138
0.0188071
0.0188007
0.0187945
0.0187883
0.0187821
0.0187758
0.0187694
0.0187629
0.0187561
0.0187494
0.0187425
0.0187355
0.0187285
0.0189829
0.0189721
0.018962
0.0189524
0.0189435
0.0189352
0.0189276
0.0189206
0.0189142
0.0189085
0.0189033
0.0188986
0.0188942
0.0188901
0.0188861
0.018882
0.0188778
0.0188734
0.0188687
0.0188638
0.0188586
0.0188533
0.0188477
0.0188418
0.0190881
0.0190781
0.0190688
0.0190601
0.0190522
0.019045
0.0190386
0.019033
0.0190282
0.0190242
0.019021
0.0190184
0.0190164
0.0190147
0.0190132
0.0190117
0.0190101
0.0190081
0.0190058
0.019003
0.0189999
0.0189963
0.0189922
0.0189876
0.0192197
0.0192099
0.0192007
0.0191923
0.0191846
0.0191778
0.019172
0.0191671
0.0191633
0.0191606
0.019159
0.0191584
0.0191586
0.0191595
0.0191607
0.0191621
0.0191634
0.0191644
0.0191651
0.0191652
0.0191646
0.0191633
0.0191612
0.0191582
0.0193544
0.0193433
0.0193328
0.0193231
0.0193141
0.0193061
0.0192991
0.0192933
0.0192889
0.019286
0.0192847
0.0192849
0.0192864
0.019289
0.0192923
0.019296
0.0193001
0.0193042
0.0193085
0.0193126
0.0193158
0.019318
0.0193188
0.0193183
0.0194295
0.0194155
0.0194018
0.0193887
0.0193762
0.0193644
0.0193536
0.0193439
0.0193357
0.0193291
0.0193242
0.019321
0.019319
0.019318
0.0193176
0.0193178
0.0193189
0.0193214
0.0193259
0.0193328
0.0193399
0.0193458
0.01935
0.0193524
0.0193389
0.0193202
0.019301
0.0192815
0.0192617
0.0192414
0.0192208
0.0191999
0.0191784
0.0191559
0.0191319
0.0191055
0.0190755
0.0190417
0.0190048
0.018967
0.0189311
0.0189008
0.0188795
0.0188705
0.0188742
0.0188783
0.0188824
0.0188861
0.0189266
0.0188986
0.0188677
0.0188335
0.0187951
0.0187515
0.0187014
0.0186426
0.0185721
0.0184861
0.0183801
0.0181475
0.0171937
0.0166522
0.0164544
0.016485
0.0166248
0.0167981
0.0169941
0.0170021
0.016968
0.0169604
0.0169613
0.0169701
0.0169863
0.0179197
0.0178662
0.0178009
0.0177214
0.0176244
0.0175054
0.0173585
0.017176
0.0169483
0.015792
0.0145137
0.0135449
0.0129151
0.0126163
0.0125912
0.0127322
0.0129255
0.0131076
0.0131346
0.012955
0.0128476
0.0128286
0.0128309
0.0128554
0.0129004
0.0158053
0.0156533
0.0154687
0.0152486
0.014989
0.0146845
0.0141063
0.0130031
0.0119285
0.0109589
0.0101571
0.00956106
0.009213
0.00905456
0.0090383
0.00909816
0.00908737
0.00880291
0.00857356
0.00839904
0.00827953
0.00821481
0.00821821
0.00824601
0.0082978
0.0114989
0.0111788
0.0108411
0.0104895
0.0101249
0.00959197
0.00892847
0.00824901
0.0076005
0.00702873
0.00657213
0.00640465
0.00637472
0.00637734
0.00618971
0.00598585
0.00581425
0.0056661
0.00553838
0.00543271
0.00535099
0.00529422
0.00526955
0.00528766
0.00532537
0.00583764
0.00567918
0.00552968
0.00538957
0.00525837
0.00513502
0.00501679
0.00490257
0.00472849
0.00444547
0.00425597
0.00427617
0.00407793
0.00439692
0.00451685
0.00447183
0.00440078
0.00430883
0.00420467
0.00410193
0.00400903
0.00392423
0.00389418
0.00390511
0.00395184
0.00310829
0.00312031
0.00314042
0.00316904
0.00320685
0.00325531
0.00331718
0.00339685
0.00350281
0.00365043
0.00377716
0.00360714
0.00410272
0.00410804
0.00429778
0.00415815
0.00392828
0.00367343
0.00341259
0.00317382
0.00299939
0.00277771
0.00302028
0.00329381
0.00346017
0.00336204
0.0028713
0.00300479
0.00314405
0.00328855
0.00343982
0.0036019
0.0037797
0.00398942
0.00425966
0.00439878
0.00463006
0.0035455
0.00467001
0.0038927
0.00287426
0.00268778
0.00234001
0.00190225
0.00192653
0.00223468
0.00296081
0.00454643
0.0052667
0.00569921
0.00609601
0.00405817
0.00426857
0.00446675
0.0046555
0.00483977
0.00502908
0.0052476
0.00516811
0.00550848
0.00396499
0.00344306
0.00400909
0.00163767
0.00139938
0.000635508
0.000461848
0.000916096
0.00099482
0.00222422
0.00526147
0.00593428
0.01086
0.00772186
0.00873104
0.00504317
0.00518274
0.00528879
0.00534612
0.00532899
0.00520588
0.00483662
0.00400286
0.00586282
0.00294476
0.00366
0.00116806
0.001609
0.00810458
0.00870209
0.00932013
0.00914215
0.00980928
0.00576559
0.00586455
0.00588434
0.00579315
0.00555777
0.00508338
0.00424315
0.00488726
0.0029963
0.00292842
0.000413117
0.000263126
0.00587257
0.00471739
0.00542771
0.00599196
0.0064934
0.000174918
0.00226888
0.00517271
0.00480586
0.00543049
0.00606278
0.00625199
0.00261202
0.00329509
0.00462959
0.00547933
0.00631205
0.0044631
0.00456572
0.00423777
0.00421846
0.00684715
0.00645717
0.00628477
0.00623366
0.00622457
0.0060038
0.00582632
0.00568016
0.00555773
0.00545621
0.00537766
0.00532254
0.00528978
0.00529658
0.00532638
0.00537316
0.00543634
0.0107765
0.00999297
0.00942412
0.00912393
0.00903997
0.00912527
0.00915716
0.00885072
0.00860431
0.00841376
0.008278
0.00819646
0.00818255
0.00820264
0.00824646
0.00831287
0.00839963
0.0085048
0.0155914
0.0143451
0.0134145
0.0128381
0.0126214
0.012716
0.013015
0.0133778
0.0131599
0.0129525
0.0128156
0.0127561
0.0127519
0.0127701
0.0128095
0.0128676
0.0129419
0.0130299
0.0183763
0.0182555
0.0179482
0.017048
0.0165838
0.0164967
0.0166769
0.0169956
0.0170548
0.0169522
0.0168928
0.0168801
0.0168769
0.0168829
0.0168969
0.0169179
0.0169448
0.0169768
0.0191158
0.0190877
0.0190566
0.0190218
0.0189833
0.0189426
0.0189022
0.0188656
0.0188365
0.0188185
0.0188146
0.0188174
0.0188211
0.0188252
0.0188293
0.018833
0.0188365
0.0188397
0.0193144
0.0193088
0.0193048
0.019302
0.0193002
0.019299
0.0192986
0.0192992
0.0193015
0.0193061
0.019313
0.019319
0.0193237
0.0193269
0.0193284
0.019328
0.0193261
0.0193229
0.0192816
0.0192803
0.0192806
0.0192822
0.0192849
0.0192883
0.0192922
0.0192962
0.0193004
0.0193046
0.0193083
0.019311
0.0193127
0.019313
0.0193119
0.0193094
0.0193056
0.0193006
0.0191605
0.0191591
0.0191587
0.0191592
0.0191603
0.0191618
0.0191634
0.0191648
0.019166
0.0191666
0.0191667
0.0191661
0.0191647
0.0191624
0.0191592
0.0191551
0.0191501
0.0191445
0.0190258
0.0190228
0.0190204
0.0190186
0.0190172
0.019016
0.0190147
0.0190132
0.0190114
0.0190091
0.0190064
0.0190034
0.0189998
0.0189957
0.0189911
0.018986
0.0189804
0.0189744
0.0189107
0.0189056
0.0189011
0.0188969
0.018893
0.0188892
0.0188853
0.0188813
0.018877
0.0188724
0.0188676
0.0188626
0.0188573
0.0188518
0.018846
0.01884
0.0188338
0.0188274
0.0188231
0.0188163
0.0188097
0.0188035
0.0187974
0.0187914
0.0187854
0.0187792
0.0187729
0.0187665
0.0187599
0.0187532
0.0187465
0.0187396
0.0187327
0.0187257
0.0187187
0.0187116
0.01876
0.0187517
0.0187436
0.0187357
0.0187279
0.0187201
0.0187124
0.0187045
0.0186966
0.0186886
0.0186805
0.0186725
0.0186644
0.0186563
0.0186482
0.0186402
0.0186323
0.0186244
0.0187155
0.018706
0.0186967
0.0186875
0.0186784
0.0186693
0.0186602
0.018651
0.0186418
0.0186325
0.0186232
0.0186139
0.0186047
0.0185955
0.0185865
0.0185775
0.0185687
0.01856
0.018684
0.0186737
0.0186635
0.0186533
0.0186432
0.018633
0.0186229
0.0186127
0.0186024
0.0185921
0.0185818
0.0185716
0.0185614
0.0185513
0.0185413
0.0185315
0.0185218
0.0185123
0.0186617
0.0186506
0.0186397
0.0186288
0.0186179
0.018607
0.018596
0.018585
0.0185739
0.0185628
0.0185517
0.0185406
0.0185296
0.0185188
0.018508
0.0184974
0.0184871
0.0184769
0.0186455
0.018634
0.0186225
0.018611
0.0185995
0.0185879
0.0185763
0.0185647
0.0185529
0.0185412
0.0185294
0.0185177
0.0185061
0.0184946
0.0184832
0.018472
0.018461
0.0184502
0.0186336
0.0186217
0.0186098
0.0185979
0.0185859
0.0185739
0.0185617
0.0185496
0.0185373
0.0185251
0.0185128
0.0185006
0.0184884
0.0184764
0.0184645
0.0184528
0.0184413
0.01843
0.0186249
0.0186127
0.0186004
0.0185882
0.0185758
0.0185634
0.0185509
0.0185383
0.0185257
0.018513
0.0185004
0.0184877
0.0184752
0.0184627
0.0184504
0.0184383
0.0184264
0.0184147
0.0186186
0.0186061
0.0185936
0.0185811
0.0185685
0.0185558
0.018543
0.0185302
0.0185172
0.0185043
0.0184913
0.0184783
0.0184655
0.0184527
0.0184401
0.0184277
0.0184154
0.0184035
0.0186142
0.0186016
0.018589
0.0185763
0.0185635
0.0185506
0.0185376
0.0185245
0.0185113
0.0184981
0.018485
0.0184718
0.0184587
0.0184457
0.0184329
0.0184202
0.0184078
0.0183956
0.0186115
0.0185988
0.0185861
0.0185732
0.0185603
0.0185472
0.0185341
0.0185209
0.0185076
0.0184943
0.018481
0.0184677
0.0184544
0.0184413
0.0184283
0.0184155
0.0184029
0.0183906
0.0186102
0.0185975
0.0185846
0.0185717
0.0185587
0.0185456
0.0185325
0.0185192
0.0185058
0.0184924
0.0184791
0.0184657
0.0184524
0.0184392
0.0184262
0.0184133
0.0184006
0.0183882
0.0187253
0.0187119
0.0186987
0.0186857
0.0186727
0.0186599
0.0186471
0.0186343
0.0186216
0.0186089
0.0185961
0.0185833
0.0185704
0.0185574
0.0185443
0.0185311
0.0185178
0.0185045
0.0184911
0.0184776
0.0184642
0.0184509
0.0184376
0.0184245
0.0187265
0.0187132
0.0187
0.0186869
0.018674
0.0186612
0.0186484
0.0186357
0.018623
0.0186103
0.0185976
0.0185849
0.018572
0.0185591
0.0185461
0.0185329
0.0185197
0.0185064
0.0184931
0.0184797
0.0184664
0.0184531
0.0184399
0.0184269
0.018729
0.0187157
0.0187025
0.0186895
0.0186766
0.0186638
0.0186512
0.0186385
0.018626
0.0186134
0.0186008
0.0185881
0.0185754
0.0185626
0.0185497
0.0185367
0.0185237
0.0185105
0.0184973
0.0184841
0.0184709
0.0184578
0.0184448
0.0184319
0.0187331
0.0187198
0.0187067
0.0186938
0.018681
0.0186683
0.0186557
0.0186432
0.0186308
0.0186184
0.018606
0.0185935
0.018581
0.0185684
0.0185557
0.018543
0.0185301
0.0185172
0.0185042
0.0184913
0.0184783
0.0184654
0.0184526
0.01844
0.0187393
0.018726
0.018713
0.0187001
0.0186874
0.0186749
0.0186625
0.0186502
0.0186379
0.0186258
0.0186136
0.0186014
0.0185892
0.0185769
0.0185645
0.0185521
0.0185395
0.0185269
0.0185143
0.0185017
0.0184891
0.0184765
0.018464
0.0184517
0.0187477
0.0187345
0.0187215
0.0187088
0.0186962
0.0186839
0.0186717
0.0186596
0.0186477
0.0186358
0.0186239
0.0186121
0.0186002
0.0185883
0.0185764
0.0185643
0.0185522
0.0185401
0.0185279
0.0185157
0.0185035
0.0184914
0.0184794
0.0184675
0.0187585
0.0187454
0.0187326
0.01872
0.0187076
0.0186955
0.0186836
0.0186719
0.0186603
0.0186488
0.0186374
0.018626
0.0186146
0.0186032
0.0185917
0.0185802
0.0185687
0.0185571
0.0185454
0.0185337
0.0185221
0.0185106
0.0184991
0.0184878
0.0187727
0.0187597
0.018747
0.0187347
0.0187226
0.0187108
0.0186992
0.0186879
0.0186767
0.0186657
0.0186548
0.018644
0.0186332
0.0186225
0.0186117
0.0186008
0.0185899
0.018579
0.018568
0.0185571
0.0185461
0.0185353
0.0185245
0.0185139
0.0187918
0.018779
0.0187666
0.0187545
0.0187428
0.0187314
0.0187203
0.0187095
0.0186989
0.0186885
0.0186783
0.0186682
0.0186582
0.0186482
0.0186382
0.0186282
0.0186182
0.0186081
0.018598
0.0185879
0.0185778
0.0185677
0.0185578
0.018548
0.0188183
0.0188059
0.0187938
0.0187822
0.0187709
0.0187601
0.0187496
0.0187395
0.0187297
0.0187201
0.0187108
0.0187017
0.0186926
0.0186837
0.0186747
0.0186658
0.0186568
0.0186478
0.0186387
0.0186297
0.0186206
0.0186116
0.0186027
0.0185939
0.0188559
0.018844
0.0188325
0.0188215
0.018811
0.0188009
0.0187913
0.0187821
0.0187733
0.0187648
0.0187566
0.0187487
0.018741
0.0187334
0.0187258
0.0187183
0.0187107
0.018703
0.0186952
0.0186875
0.0186797
0.0186719
0.0186642
0.0186566
0.0189098
0.0188986
0.0188879
0.0188778
0.0188682
0.0188592
0.0188507
0.0188427
0.0188352
0.0188282
0.0188216
0.0188153
0.0188092
0.0188034
0.0187976
0.0187918
0.0187859
0.01878
0.0187739
0.0187677
0.0187615
0.0187552
0.0187489
0.0187426
0.0189864
0.0189762
0.0189666
0.0189576
0.0189492
0.0189414
0.0189343
0.0189279
0.0189221
0.0189168
0.0189121
0.0189079
0.018904
0.0189003
0.0188967
0.0188932
0.0188896
0.0188857
0.0188817
0.0188775
0.0188732
0.0188687
0.0188641
0.0188593
0.0190922
0.019083
0.0190745
0.0190667
0.0190596
0.0190532
0.0190475
0.0190427
0.0190386
0.0190354
0.0190328
0.0190309
0.0190295
0.0190285
0.0190276
0.0190268
0.0190259
0.0190247
0.0190233
0.0190216
0.0190196
0.0190174
0.0190148
0.0190118
0.0192273
0.0192188
0.019211
0.0192039
0.0191976
0.0191921
0.0191875
0.0191839
0.0191813
0.0191797
0.0191791
0.0191794
0.0191806
0.0191824
0.0191845
0.0191868
0.0191891
0.0191913
0.0191932
0.0191948
0.0191961
0.0191969
0.019197
0.0191964
0.0193731
0.0193643
0.0193562
0.0193487
0.0193421
0.0193363
0.0193315
0.0193278
0.0193253
0.0193242
0.0193246
0.0193263
0.0193294
0.0193335
0.0193384
0.0193439
0.0193498
0.0193561
0.0193626
0.0193691
0.0193751
0.0193805
0.0193849
0.0193882
0.0194745
0.0194645
0.0194549
0.0194458
0.0194372
0.0194293
0.0194222
0.0194161
0.0194113
0.019408
0.0194065
0.0194068
0.0194089
0.0194127
0.0194179
0.0194244
0.0194323
0.0194419
0.0194534
0.0194661
0.0194787
0.0194906
0.0195014
0.0195106
0.0194317
0.0194198
0.0194075
0.0193948
0.0193817
0.0193683
0.0193548
0.0193413
0.0193279
0.019315
0.0193027
0.0192912
0.0192807
0.0192713
0.0192636
0.0192582
0.0192562
0.0192594
0.0192694
0.0192853
0.0193025
0.0193199
0.0193367
0.019352
0.0190703
0.0190561
0.0190395
0.0190205
0.0189989
0.0189741
0.0189458
0.0189132
0.0188754
0.0188316
0.0187808
0.0187226
0.0186578
0.0183325
0.0179172
0.0177311
0.0176274
0.0174809
0.0172607
0.0170177
0.0168525
0.0168775
0.0171785
0.0177588
0.0183549
0.0180997
0.0180851
0.0180633
0.0180338
0.0179953
0.0179458
0.0178825
0.0178017
0.0176981
0.0175659
0.0168014
0.0157875
0.0149683
0.0144422
0.0142421
0.014293
0.0144238
0.0144767
0.0143855
0.014163
0.0139185
0.0138333
0.0140258
0.0144983
0.0151551
0.0160423
0.0160347
0.016009
0.0159621
0.0158913
0.0157912
0.0155172
0.0148216
0.014069
0.013307
0.0125903
0.0119669
0.0114385
0.0110834
0.011003
0.0111773
0.0114353
0.0116233
0.0115667
0.0114447
0.0110854
0.0108552
0.0109301
0.0112527
0.0113135
0.0116037
0.0116695
0.0116621
0.0115748
0.0114081
0.0111573
0.0108098
0.0103578
0.0098473
0.0093469
0.00892588
0.0085863
0.00836937
0.00820119
0.00816328
0.00812816
0.00790951
0.00772581
0.00757949
0.00747998
0.00742238
0.00739481
0.00739419
0.00742039
0.00747174
0.00701308
0.00699796
0.00696936
0.0069286
0.00688384
0.00683916
0.00674766
0.00643746
0.00608609
0.00578895
0.00555161
0.00510814
0.005365
0.00563173
0.00558767
0.00550308
0.00542338
0.00534262
0.00526746
0.00521319
0.00519722
0.0052034
0.00522079
0.00525272
0.00530355
0.00383152
0.00386561
0.00389917
0.00393312
0.00396754
0.00400151
0.00404015
0.00409682
0.00416606
0.00425972
0.00389104
0.00439335
0.00380703
0.00371988
0.00406844
0.00435929
0.00423162
0.00407924
0.00392235
0.00379572
0.00371753
0.00363708
0.00356456
0.0036692
0.00381186
0.00399062
0.00296214
0.00305343
0.00314847
0.00324766
0.00335201
0.00346374
0.00358759
0.00375072
0.00400153
0.00408154
0.00288196
0.00289583
0.00319336
0.00315597
0.00272666
0.00243275
0.00222302
0.00207341
0.00199196
0.00194282
0.00204092
0.00256908
0.00342482
0.00418815
0.00506812
0.00364624
0.00378325
0.00391911
0.00406093
0.00421522
0.00439427
0.00461384
0.00465366
0.00331621
0.00258147
0.00251507
0.00114565
0.000112529
0.000742982
0.00182723
0.00429677
0.00792353
0.0105684
0.010344
0.00571805
0.00581494
0.00589199
0.00594838
0.00599791
0.00606083
0.00614454
0.00512508
0.00350313
0.00278885
0.00108449
0.000750802
0.00429672
0.00581127
0.00718082
0.0099183
0.00669484
0.00682886
0.00697392
0.0071394
0.00733831
0.00668144
0.00572293
0.00326707
0.00233157
0.000350418
0.00140108
0.00333629
0.00468541
0.00539892
0.00119692
0.0027409
0.00325053
0.00471617
0.00511276
0.00291426
0.0041637
0.00462261
0.00532953
0.00373716
0.00411561
0.0043272
0.00461673
0.0063578
0.00615841
0.00605342
0.00601978
0.0091519
0.00870493
0.00837135
0.00821406
0.00814543
0.00811296
0.00788029
0.0076926
0.00754224
0.00743123
0.00736611
0.00733442
0.00733343
0.00735906
0.00740821
0.0074787
0.00756881
0.0131292
0.0123998
0.0117827
0.0112981
0.0110246
0.0110527
0.0113598
0.0117345
0.0115262
0.0113798
0.0112854
0.0111425
0.0107449
0.0106703
0.0108865
0.0112719
0.0113493
0.0114474
0.017393
0.016598
0.0155889
0.0148043
0.0143456
0.0142446
0.0144236
0.0146929
0.0148483
0.0147803
0.0144997
0.0141444
0.013929
0.0140102
0.0143987
0.0149948
0.0155919
0.0156547
0.018756
0.0186981
0.0186323
0.0185602
0.0181315
0.0177953
0.0177164
0.0177334
0.0176983