/*--------------------------------*- C++ -*----------------------------------*\
  =========                 |
  \\      /  F ield         | OpenFOAM: The Open Source CFD Toolbox
   \\    /   O peration     | Website:  https://openfoam.org
    \\  /    A nd           | Version:  13
     \\/     M anipulation  |
\*---------------------------------------------------------------------------*/
FoamFile
{
    format      ascii;
    class       volScalarField;
    location    "800";
    object      omega;
}
// * * * * * * * * * * * * * * * * * * * * * * * * * * * * * * * * * * * * * //

dimensions      [0 0 -1 0 0 0 0];

internalField   nonuniform List<scalar> 
171745
(
16.4028
16.3357
16.2694
16.2037
16.1388
16.0746
16.0109
15.9479
15.8855
15.8236
15.7622
15.7012
15.6407
15.5806
15.5209
15.4615
15.4025
15.3439
15.2857
15.2279
15.1705
15.1136
15.0572
15.0014
16.4036
16.3365
16.2701
16.2045
16.1396
16.0753
16.0117
15.9488
15.8864
15.8245
15.7631
15.7022
15.6418
15.5817
15.522
15.4627
15.4038
15.3452
15.2871
15.2293
15.172
15.1152
15.0589
15.0031
16.4053
16.3381
16.2718
16.2061
16.1412
16.077
16.0135
15.9506
15.8882
15.8264
15.7652
15.7043
15.644
15.584
15.5245
15.4653
15.4065
15.348
15.29
15.2324
15.1752
15.1185
15.0623
15.0067
16.4078
16.3407
16.2743
16.2087
16.1438
16.0796
16.0161
15.9533
15.8911
15.8294
15.7683
15.7076
15.6474
15.5876
15.5282
15.4692
15.4106
15.3524
15.2946
15.2372
15.1802
15.1237
15.0677
15.0122
16.4118
16.3445
16.2781
16.2125
16.1477
16.0836
16.0202
15.9575
15.8954
15.8339
15.7729
15.7125
15.6525
15.593
15.5338
15.4751
15.4167
15.3588
15.3012
15.2441
15.1874
15.1312
15.0754
15.0202
16.4174
16.3502
16.2838
16.2182
16.1534
16.0894
16.0261
15.9635
15.9016
15.8403
15.7796
15.7194
15.6597
15.6005
15.5417
15.4833
15.4253
15.3677
15.3105
15.2537
15.1974
15.1415
15.0861
15.0313
16.4256
16.3583
16.2919
16.2263
16.1616
16.0977
16.0346
15.9722
15.9105
15.8495
15.7891
15.7293
15.67
15.6111
15.5527
15.4948
15.4372
15.38
15.3233
15.2669
15.211
15.1556
15.1007
15.0463
16.4373
16.37
16.3036
16.238
16.1734
16.1097
16.0467
15.9846
15.9232
15.8626
15.8026
15.7432
15.6843
15.626
15.5681
15.5107
15.4537
15.397
15.3408
15.285
15.2297
15.1748
15.1204
15.0665
16.4541
16.3868
16.3204
16.2549
16.1905
16.1269
16.0642
16.0024
15.9414
15.8812
15.8217
15.7628
15.7046
15.6468
15.5896
15.5328
15.4765
15.4206
15.365
15.3099
15.2552
15.201
15.1472
15.0939
16.4783
16.411
16.3447
16.2794
16.2151
16.1518
16.0894
16.028
15.9675
15.9079
15.849
15.7908
15.7333
15.6763
15.6199
15.564
15.5084
15.4533
15.3986
15.3442
15.2903
15.2368
15.1837
15.1311
16.5133
16.4461
16.3799
16.3148
16.2508
16.1879
16.126
16.0651
16.0052
15.9462
15.8881
15.8308
15.7742
15.7183
15.6629
15.608
15.5535
15.4993
15.4455
15.3921
15.339
15.2863
15.234
15.182
16.5642
16.4971
16.4312
16.3664
16.3028
16.2403
16.179
16.1188
16.0597
16.0017
15.9446
15.8885
15.8332
15.7785
15.7244
15.6708
15.6176
15.5647
15.512
15.4596
15.4075
15.3557
15.3041
15.2528
16.6384
16.5716
16.506
16.4416
16.3785
16.3167
16.2562
16.197
16.1391
16.0824
16.0268
15.9723
15.9187
15.8659
15.8137
15.7619
15.7104
15.6591
15.6078
15.5566
15.5055
15.4545
15.4036
15.3527
16.7471
16.6807
16.6156
16.5519
16.4896
16.4288
16.3695
16.3118
16.2556
16.2009
16.1477
16.0958
16.0451
15.9951
15.9458
15.8968
15.8479
15.7989
15.7496
15.6998
15.6498
15.5997
15.5492
15.4985
16.908
16.8421
16.7778
16.7152
16.6542
16.5951
16.5379
16.4828
16.4297
16.3788
16.3298
16.2828
16.2372
16.1928
16.149
16.1053
16.0613
16.0165
15.9706
15.923
15.8747
15.8255
15.7753
15.7241
17.1514
17.0865
17.0237
16.963
16.9046
16.8488
16.7958
16.7459
16.6992
16.6561
16.6165
16.5801
16.5464
16.5146
16.4835
16.4522
16.4196
16.3848
16.3468
16.3049
16.2594
16.2116
16.1612
16.1085
17.5344
17.4718
17.4123
17.356
17.3034
17.2552
17.2121
17.1748
17.144
17.1206
17.1049
17.0967
17.0951
17.0984
17.104
17.1092
17.1111
17.1069
17.0941
17.0701
17.0315
16.987
16.9363
16.8795
18.1703
18.1146
18.0643
18.0203
17.9838
17.9565
17.9405
17.9387
17.954
17.9896
18.048
18.1294
18.2322
18.3522
18.4819
18.6127
18.7355
18.8413
18.9204
18.9643
18.9659
18.9226
18.8628
18.787
19.2963
19.2662
19.2491
19.2481
19.2674
19.3128
19.392
19.5146
19.6914
19.9329
20.2494
20.6446
21.1131
21.6368
22.188
22.737
23.2561
23.72
24.1027
24.3816
24.5368
24.5439
24.4127
24.2367
24.0213
21.5346
21.6222
21.753
21.9369
22.1876
22.523
22.9653
23.5418
24.2835
25.2203
26.373
27.7379
29.2709
30.8909
32.5048
34.0366
35.4348
36.665
37.6977
38.501
39.0411
39.2921
39.2123
38.7387
38.1456
27.1611
27.833
28.6372
29.5898
30.7137
32.04
33.6073
35.46
37.641
40.1739
43.0324
46.124
49.2833
52.3078
55.0393
57.4158
59.4474
61.1692
62.6095
63.776
64.6441
65.1573
65.2924
65.0574
64.2417
46.3318
48.8655
51.4844
54.1705
56.9207
59.746
62.6674
65.703
68.8465
72.0514
75.2168
78.1894
80.7839
82.8595
84.4082
85.5785
86.5784
87.6151
88.8394
90.2925
92.1167
93.7194
94.8478
95.4107
95.3844
101.216
103.733
105.626
106.946
107.759
108.143
108.172
107.9
107.371
106.613
105.666
104.585
103.406
102.45
101.715
101.64
102.733
105.51
110.191
116.508
127.73
136.04
142.267
146.82
149.948
164.049
158.207
152.231
146.323
140.57
135.068
129.843
124.794
119.959
115.428
111.431
108.241
106.174
104.93
103.489
103.882
107.683
119.12
139.642
166.593
244.051
253.677
263.272
271.206
279.106
289.42
163.05
153.641
145.283
137.759
130.901
124.577
118.711
113.383
108.771
105.552
104.473
103.52
103.778
108.697
123.751
156.851
249.184
339.938
413.346
437.622
430.869
404.468
391.452
381.836
368.861
136.227
128.971
122.607
117.009
112.07
107.757
104.258
102.047
102.292
101.589
104.654
117.571
150.447
180.824
366.286
647.097
802.302
392.847
158.68
129.1
119.664
126.426
136.704
138.934
117.043
112.636
108.842
105.616
102.924
100.852
99.6539
100.105
104.169
104.521
118.106
137.61
205.413
572.752
1149.92
448.871
327.138
152.637
104.141
99.5802
103.307
111.402
115.983
118.305
100.037
98.2061
96.8309
95.9279
95.6942
96.5192
99.3622
106.362
106.767
121.58
146.272
350.813
656.421
288.476
110.116
114.667
126.72
140.597
143.47
145.193
121.551
109.673
117.915
137.987
155.712
177.999
168.644
460.564
408.164
383.018
372.26
357.884
250.576
268.481
284.786
301.916
73.2479
76.256
79.0542
81.462
83.3438
84.6883
85.6326
86.3565
87.041
87.8159
88.7332
89.9523
91.0049
91.6802
91.9087
91.6533
90.7224
41.2662
44.1281
47.1902
50.2817
53.1946
55.7657
57.9329
59.7139
61.1544
62.2929
63.1501
63.7199
63.9648
63.8763
63.3482
62.3173
61.0456
59.6459
25.7365
26.9353
28.3362
29.8869
31.4974
33.0654
34.5079
35.776
36.8449
37.6946
38.3047
38.6553
38.7329
38.4428
37.9229
37.311
36.628
35.8936
20.1214
20.4613
20.8792
21.3665
21.9008
22.4498
22.98
23.4603
23.8656
24.1762
24.3748
24.4481
24.3599
24.2086
24.0177
23.7937
23.5432
23.2725
18.0575
18.124
18.2136
18.324
18.4496
18.5815
18.7098
18.824
18.9144
18.9728
18.9927
18.9641
18.9114
18.843
18.7602
18.6646
18.5584
18.4437
17.1475
17.1345
17.1292
17.1303
17.1356
17.1424
17.1473
17.1473
17.1394
17.1212
17.0906
17.0486
17.0005
16.9464
16.8866
16.8215
16.752
16.6789
16.6681
16.6296
16.5944
16.5619
16.531
16.5006
16.4695
16.4365
16.4008
16.3614
16.3172
16.2708
16.2219
16.1706
16.1167
16.0607
16.0027
15.9431
16.3851
16.3368
16.2904
16.2455
16.2016
16.1582
16.1148
16.0708
16.0259
15.9797
15.932
15.8834
15.8339
15.7833
15.7316
15.679
15.6255
15.5713
16.2053
16.1525
16.101
16.0506
16.0011
15.9521
15.9034
15.8546
15.8057
15.7564
15.7067
15.6568
15.6066
15.556
15.5052
15.454
15.4026
15.3511
16.0861
16.0308
15.9766
15.9233
15.8707
15.8188
15.7672
15.7159
15.6647
15.6135
15.5624
15.5114
15.4605
15.4097
15.3588
15.308
15.2573
15.2067
16.0052
15.9484
15.8924
15.8373
15.7828
15.729
15.6755
15.6225
15.5697
15.5172
15.4649
15.4129
15.3611
15.3096
15.2584
15.2074
15.1566
15.1061
15.9497
15.8917
15.8346
15.7782
15.7224
15.6671
15.6123
15.558
15.504
15.4503
15.3969
15.344
15.2914
15.2391
15.1873
15.1357
15.0846
15.0338
15.9113
15.8525
15.7944
15.737
15.6802
15.6239
15.5681
15.5127
15.4576
15.403
15.3487
15.2949
15.2415
15.1885
15.1359
15.0838
15.0321
14.9809
15.8845
15.8251
15.7664
15.7082
15.6506
15.5934
15.5368
15.4805
15.4246
15.3692
15.3141
15.2595
15.2053
15.1516
15.0984
15.0456
14.9933
14.9416
15.8658
15.8059
15.7466
15.6878
15.6296
15.5718
15.5144
15.4574
15.4009
15.3447
15.289
15.2337
15.1789
15.1245
15.0707
15.0173
14.9645
14.9123
15.8527
15.7924
15.7326
15.6733
15.6146
15.5562
15.4983
15.4408
15.3836
15.3269
15.2706
15.2148
15.1594
15.1045
15.0502
14.9963
14.943
14.8903
15.8434
15.7827
15.7226
15.663
15.6038
15.545
15.4867
15.4287
15.3711
15.314
15.2572
15.2009
15.1451
15.0897
15.0349
14.9807
14.9269
14.8738
15.8369
15.776
15.7156
15.6556
15.5961
15.537
15.4783
15.42
15.362
15.3045
15.2474
15.1907
15.1346
15.0789
15.0237
14.9691
14.915
14.8615
15.8323
15.7712
15.7106
15.6504
15.5907
15.5313
15.4723
15.4137
15.3555
15.2977
15.2403
15.1834
15.1269
15.071
15.0155
14.9606
14.9063
14.8526
15.8292
15.768
15.7072
15.6469
15.5869
15.5274
15.4682
15.4095
15.3511
15.293
15.2355
15.1783
15.1216
15.0655
15.0098
14.9548
14.9002
14.8463
15.8272
15.7659
15.705
15.6446
15.5846
15.5249
15.4656
15.4067
15.3482
15.29
15.2323
15.175
15.1182
15.0619
15.0062
14.951
14.8963
14.8423
15.8264
15.765
15.7041
15.6436
15.5835
15.5237
15.4644
15.4054
15.3468
15.2886
15.2308
15.1735
15.1166
15.0603
15.0044
14.9492
14.8945
14.8404
16.4029
16.3358
16.2695
16.2038
16.1389
16.0747
16.0111
15.9481
15.8857
15.8238
15.7624
15.7014
15.6409
15.5808
15.521
15.4617
15.4027
15.344
15.2858
15.228
15.1706
15.1137
15.0573
15.0014
16.4036
16.3365
16.2702
16.2046
16.1397
16.0755
16.0119
15.949
15.8866
15.8247
15.7633
15.7024
15.642
15.5819
15.5222
15.4629
15.404
15.3454
15.2872
15.2295
15.1721
15.1153
15.0589
15.0031
16.4053
16.3382
16.2718
16.2062
16.1413
16.0771
16.0136
15.9507
15.8884
15.8266
15.7653
15.7045
15.6441
15.5842
15.5246
15.4654
15.4066
15.3482
15.2901
15.2325
15.1753
15.1185
15.0623
15.0066
16.4078
16.3406
16.2743
16.2087
16.1438
16.0797
16.0162
15.9534
15.8911
15.8295
15.7683
15.7077
15.6475
15.5877
15.5283
15.4693
15.4107
15.3524
15.2946
15.2371
15.1801
15.1236
15.0676
15.0121
16.4116
16.3444
16.278
16.2124
16.1476
16.0835
16.0201
15.9574
15.8953
15.8339
15.7729
15.7124
15.6525
15.5929
15.5338
15.475
15.4167
15.3587
15.3011
15.2439
15.1872
15.131
15.0752
15.0199
16.4171
16.3499
16.2835
16.2179
16.1531
16.0891
16.0259
15.9633
15.9014
15.8401
15.7794
15.7193
15.6596
15.6003
15.5415
15.4831
15.4251
15.3675
15.3102
15.2534
15.1971
15.1412
15.0857
15.0308
16.4251
16.3579
16.2915
16.2259
16.1612
16.0973
16.0342
15.9719
15.9102
15.8492
15.7888
15.729
15.6697
15.6108
15.5524
15.4944
15.4368
15.3797
15.3229
15.2665
15.2106
15.1552
15.1002
15.0457
16.4367
16.3694
16.303
16.2375
16.1729
16.1092
16.0463
15.9841
15.9228
15.8621
15.8021
15.7427
15.6839
15.6255
15.5677
15.5102
15.4532
15.3966
15.3403
15.2845
15.2292
15.1743
15.1198
15.0659
16.4533
16.386
16.3196
16.2542
16.1898
16.1262
16.0636
16.0018
15.9408
15.8806
15.8211
15.7623
15.704
15.6463
15.5891
15.5323
15.4759
15.42
15.3645
15.3093
15.2546
15.2004
15.1466
15.0933
16.4772
16.41
16.3437
16.2784
16.2142
16.1509
16.0886
16.0273
15.9668
15.9071
15.8482
15.7901
15.7326
15.6756
15.6192
15.5633
15.5078
15.4527
15.3979
15.3436
15.2897
15.2362
15.1832
15.1306
16.5119
16.4448
16.3786
16.3136
16.2497
16.1868
16.1249
16.0641
16.0042
15.9453
15.8872
15.8299
15.7734
15.7174
15.6621
15.6072
15.5527
15.4986
15.4449
15.3915
15.3385
15.2859
15.2337
15.1818
16.5624
16.4955
16.4296
16.3649
16.3014
16.239
16.1778
16.1177
16.0586
16.0007
15.9437
15.8875
15.8322
15.7776
15.7236
15.67
15.6169
15.5641
15.5115
15.4592
15.4073
15.3556
15.3042
15.2531
16.6364
16.5697
16.5043
16.4401
16.3772
16.3155
16.2551
16.196
16.1381
16.0815
16.026
15.9715
15.918
15.8652
15.813
15.7613
15.7099
15.6587
15.6076
15.5566
15.5058
15.4552
15.4046
15.3542
16.7452
16.6791
16.6143
16.5508
16.4888
16.4282
16.3691
16.3115
16.2554
16.2008
16.1476
16.0957
16.0449
15.9949
15.9456
15.8966
15.8478
15.7988
15.7497
15.7003
15.6509
15.6013
15.5515
15.5015
16.9072
16.8418
16.778
16.7157
16.6552
16.5964
16.5394
16.4844
16.4314
16.3803
16.3312
16.2839
16.238
16.1931
16.1488
16.1046
16.0602
16.0151
15.9692
15.9221
15.8744
15.8261
15.7769
15.7269
17.1538
17.0897
17.0275
16.9674
16.9095
16.854
16.8011
16.751
16.704
16.6601
16.6193
16.5814
16.5457
16.5115
16.478
16.4442
16.4092
16.3723
16.3328
16.2898
16.2453
16.1988
16.1503
16.0997
17.5433
17.4817
17.4229
17.3672
17.3148
17.2663
17.2222
17.1831
17.1496
17.1221
17.1008
17.0854
17.0749
17.0675
17.0613
17.054
17.0434
17.0278
17.0054
16.9746
16.9365
16.8938
16.8461
16.7934
18.1911
18.1356
18.0848
18.0395
18.0003
17.9687
17.9459
17.934
17.9346
17.9499
17.981
18.0278
18.0878
18.1573
18.2308
18.3021
18.3655
18.4154
18.4463
18.4531
18.4313
18.3975
18.3511
18.292
19.3435
19.3052
19.2767
19.2596
19.2567
19.2713
19.3083
19.3735
19.4737
19.6151
19.8032
20.0403
20.3211
20.6334
20.9588
21.2785
21.5748
21.8317
22.0327
22.162
22.2032
22.1809
22.123
22.0309
21.9073
21.5593
21.5786
21.623
21.698
21.8116
21.9749
22.202
22.5104
22.9222
23.4594
24.1412
24.9728
25.9314
26.9636
28.0039
28.9968
29.9016
30.6849
31.3153
31.7615
31.9991
31.9656
31.8381
31.6162
31.3096
26.4019
26.6657
27.0021
27.4246
27.953
28.6142
29.443
30.4838
31.7905
33.416
35.3875
37.6721
40.1472
42.6349
44.9734
47.07
48.8937
50.4315
51.6615
52.5554
53.0835
53.2235
52.8603
52.2942
51.5437
39.8609
41.0292
42.324
43.7565
45.3534
47.1557
49.2191
51.6109
54.3935
57.6008
61.2053
65.0201
68.7732
72.177
75.0736
77.4648
79.4451
81.0845
82.3886
83.3454
83.936
84.0846
83.6782
82.5749
81.2273
82.7041
84.5346
86.2577
87.8763
89.4145
90.9164
92.4008
93.9144
95.6191
97.545
99.6759
101.855
103.987
105.748
107.481
109.363
111.374
113.452
115.457
117.283
119.067
121.257
122.16
121.911
120.31
151.774
148.715
145.453
142.084
138.699
135.386
132.234
129.32
126.768
124.796
123.614
123.574
122.542
123.14
127.065
135.022
144.291
153.744
163.185
172.458
182.987
212.71
215.351
217.105
218.261
218.831
179.451
170.169
161.946
154.641
148.177
142.525
137.628
133.694
131.316
130.505
129.901
135.475
154.349
191.115
255.577
263.117
294.389
351.951
357.681
377.619
392.294
415.227
396.482
380.935
368.741
174.887
166.815
159.584
153.165
147.58
142.976
139.887
139.435
136.995
142.297
174.754
228.287
479.994
707.756
1339.53
960.11
870.838
845.573
504.403
337.431
310.912
213.706
259.389
254.325
175.909
168.771
162.727
157.692
153.669
150.778
149.702
153.309
152.295
174.107
216.522
675.151
503.387
147.166
147.633
146.652
151.162
147.505
151.936
147.578
144.065
141.511
140.199
140.949
146.378
148.401
174.103
232.246
1147.79
1591.97
156.539
164.375
174.393
182.975
175.718
1042.92
272.402
143.912
155.827
203.513
232.363
214.899
536.248
415.306
381.889
360.956
335.714
232.126
239.426
246.533
253.22
59.5913
63.1322
66.8478
70.4684
73.672
76.2985
78.346
79.9114
81.0731
81.8619
82.3169
82.4606
82.2247
81.3461
80.1534
78.7579
77.1899
34.5114
36.5594
38.9004
41.3982
43.8575
46.104
48.0399
49.6402
50.9107
51.8478
52.4436
52.6901
52.4759
52.0115
51.3692
50.5661
49.6325
48.5998
23.8807
24.6142
25.4959
26.4958
27.5507
28.586
29.539
30.3653
31.0372
31.5334
31.8344
31.9142
31.8178
31.6341
31.3677
31.0282
30.629
30.183
19.7615
19.969
20.2262
20.5256
20.8518
21.1832
21.4977
21.7759
21.9998
22.156
22.2337
22.2223
22.1781
22.1008
21.9923
21.8563
21.6971
21.5191
18.0041
18.0414
18.0947
18.161
18.2355
18.3117
18.3826
18.4417
18.4829
18.5011
18.4917
18.4621
18.4205
18.3667
18.3011
18.2246
18.1389
18.0453
17.1442
17.1251
17.112
17.1037
17.0982
17.093
17.0858
17.0741
17.0561
17.03
16.9942
16.9539
16.9089
16.8589
16.804
16.7444
16.6807
16.6137
16.6701
16.6303
16.5934
16.5587
16.5254
16.4925
16.459
16.4238
16.3863
16.3458
16.3023
16.257
16.2098
16.1604
16.1089
16.0553
15.9999
15.943
16.3857
16.3372
16.2904
16.2451
16.2007
16.1569
16.113
16.0687
16.0237
15.9775
15.9304
15.8827
15.8342
15.7848
15.7346
15.6834
15.6315
15.579
16.2046
16.1518
16.1002
16.0498
16.0002
15.9512
15.9025
15.8539
15.8051
15.756
15.7068
15.6575
15.608
15.5582
15.5082
15.4579
15.4073
15.3566
16.0848
16.0296
15.9754
15.9221
15.8696
15.8177
15.7662
15.715
15.664
15.613
15.5622
15.5116
15.461
15.4106
15.3602
15.3099
15.2596
15.2095
16.0039
15.9471
15.8912
15.8361
15.7817
15.7279
15.6745
15.6215
15.5688
15.5164
15.4643
15.4125
15.3609
15.3097
15.2587
15.2079
15.1574
15.1072
15.9485
15.8906
15.8335
15.7771
15.7213
15.6661
15.6114
15.557
15.5031
15.4495
15.3962
15.3433
15.2908
15.2387
15.1869
15.1355
15.0845
15.0339
15.9104
15.8516
15.7936
15.7362
15.6794
15.6231
15.5673
15.5119
15.4569
15.4022
15.348
15.2942
15.2408
15.1878
15.1353
15.0832
15.0316
14.9804
15.8838
15.8244
15.7657
15.7075
15.6499
15.5928
15.5361
15.4798
15.424
15.3685
15.3134
15.2588
15.2047
15.1509
15.0977
15.0449
14.9927
14.9409
15.8653
15.8054
15.7461
15.6873
15.629
15.5712
15.5138
15.4569
15.4003
15.3441
15.2884
15.2331
15.1783
15.1239
15.07
15.0167
14.9638
14.9115
15.8523
15.7919
15.7322
15.6729
15.6141
15.5558
15.4979
15.4403
15.3832
15.3265
15.2702
15.2143
15.1589
15.104
15.0496
14.9957
14.9424
14.8896
15.8431
15.7825
15.7223
15.6627
15.6035
15.5447
15.4864
15.4284
15.3708
15.3136
15.2569
15.2005
15.1447
15.0893
15.0345
14.9802
14.9264
14.8732
15.8367
15.7758
15.7154
15.6555
15.596
15.5369
15.4782
15.4198
15.3619
15.3043
15.2472
15.1905
15.1343
15.0786
15.0234
14.9687
14.9146
14.8611
15.8322
15.7712
15.7106
15.6504
15.5906
15.5313
15.4723
15.4137
15.3555
15.2977
15.2403
15.1833
15.1268
15.0708
15.0154
14.9604
14.9061
14.8523
15.8293
15.768
15.7073
15.6469
15.587
15.5275
15.4683
15.4095
15.3511
15.2931
15.2355
15.1783
15.1216
15.0654
15.0097
14.9546
14.9001
14.8461
15.8273
15.766
15.7051
15.6447
15.5847
15.525
15.4657
15.4068
15.3482
15.2901
15.2323
15.175
15.1182
15.0619
15.0061
14.9509
14.8962
14.8421
15.8265
15.7651
15.7042
15.6437
15.5836
15.5238
15.4645
15.4055
15.3469
15.2887
15.2309
15.1735
15.1166
15.0603
15.0044
14.9491
14.8944
14.8402
16.4029
16.3359
16.2696
16.204
16.1391
16.0749
16.0113
15.9483
15.8859
15.824
15.7626
15.7017
15.6412
15.581
15.5213
15.4619
15.4029
15.3442
15.286
15.2281
15.1707
15.1138
15.0573
15.0014
16.4036
16.3366
16.2703
16.2047
16.1398
16.0756
16.0121
15.9491
15.8867
15.8249
15.7635
15.7026
15.6422
15.5821
15.5224
15.4631
15.4041
15.3455
15.2873
15.2296
15.1722
15.1153
15.0589
15.003
16.4052
16.3381
16.2718
16.2062
16.1413
16.0772
16.0136
15.9507
15.8884
15.8267
15.7654
15.7046
15.6442
15.5842
15.5247
15.4655
15.4066
15.3482
15.2901
15.2324
15.1752
15.1184
15.0622
15.0064
16.4074
16.3403
16.274
16.2084
16.1436
16.0794
16.016
15.9532
15.891
15.8293
15.7682
15.7075
15.6473
15.5875
15.5281
15.4691
15.4104
15.3522
15.2943
15.2368
15.1798
15.1232
15.0672
15.0116
16.4108
16.3437
16.2773
16.2117
16.1469
16.0829
16.0195
15.9568
15.8947
15.8332
15.7723
15.7118
15.6518
15.5923
15.5331
15.4743
15.416
15.358
15.3004
15.2432
15.1864
15.1301
15.0743
15.019
16.4158
16.3486
16.2823
16.2167
16.152
16.088
16.0247
15.9622
15.9003
15.839
15.7783
15.7181
15.6584
15.5992
15.5403
15.4819
15.4238
15.3662
15.3089
15.2521
15.1957
15.1397
15.0843
15.0293
16.4234
16.3561
16.2898
16.2242
16.1596
16.0957
16.0326
15.9703
15.9086
15.8476
15.7872
15.7274
15.668
15.6092
15.5507
15.4927
15.4351
15.3779
15.3211
15.2647
15.2087
15.1532
15.0982
15.0437
16.4345
16.3673
16.3009
16.2354
16.1709
16.1072
16.0443
15.9822
15.9208
15.8602
15.8002
15.7408
15.6819
15.6235
15.5656
15.5082
15.4511
15.3944
15.3382
15.2823
15.2269
15.172
15.1175
15.0635
16.4508
16.3835
16.3172
16.2518
16.1874
16.1239
16.0613
15.9995
15.9386
15.8784
15.8189
15.76
15.7017
15.644
15.5868
15.53
15.4736
15.4176
15.3621
15.3069
15.2522
15.1979
15.1441
15.0908
16.4743
16.407
16.3408
16.2756
16.2114
16.1482
16.086
16.0246
15.9642
15.9046
15.8457
15.7875
15.73
15.6731
15.6167
15.5607
15.5052
15.4501
15.3954
15.3411
15.2872
15.2337
15.1807
15.1281
16.5084
16.4413
16.3753
16.3103
16.2465
16.1837
16.1219
16.0611
16.0013
15.9424
15.8844
15.8271
15.7706
15.7146
15.6593
15.6044
15.55
15.4959
15.4422
15.3889
15.336
15.2835
15.2314
15.1796
16.5582
16.4914
16.4257
16.3611
16.2977
16.2355
16.1744
16.1143
16.0554
15.9975
15.9405
15.8845
15.8292
15.7746
15.7206
15.6671
15.614
15.5613
15.5089
15.4568
15.405
15.3536
15.3025
15.2517
16.6315
16.5651
16.4999
16.4359
16.3732
16.3118
16.2515
16.1926
16.1348
16.0783
16.0229
15.9685
15.915
15.8622
15.8101
15.7585
15.7072
15.6561
15.6052
15.5546
15.5042
15.454
15.404
15.3542
16.74
16.6743
16.6099
16.5469
16.4852
16.4249
16.3661
16.3087
16.2528
16.1983
16.1452
16.0933
16.0425
15.9925
15.9431
15.8942
15.8454
15.7967
15.7479
15.6991
15.6504
15.6017
15.5528
15.5039
16.9029
16.8383
16.7751
16.7135
16.6535
16.5952
16.5386
16.4839
16.431
16.38
16.3308
16.2832
16.2369
16.1916
16.1469
16.1023
16.0576
16.0125
15.9667
15.9205
15.874
15.8271
15.7796
15.7313
17.1527
17.0898
17.0288
16.9697
16.9126
16.8578
16.8053
16.7554
16.7081
16.6636
16.6218
16.5824
16.5449
16.5085
16.4727
16.4365
16.3993
16.3606
16.32
16.2779
16.2349
16.1905
16.1445
16.0967
17.5492
17.4895
17.4324
17.3779
17.3265
17.2784
17.2341
17.1939
17.1583
17.1274
17.1012
17.0793
17.0607
17.0439
17.0271
17.0088
16.9876
16.9624
16.9323
16.8978
16.8608
16.8205
16.7764
16.7283
18.2139
18.1602
18.1105
18.0653
18.0251
17.9908
17.9632
17.9435
17.9327
17.9316
17.9407
17.9591
17.9848
18.014
18.0426
18.0669
18.0837
18.0903
18.0843
18.0658
18.0409
18.0085
17.9677
17.918
19.4041
19.3596
19.3225
19.2939
19.2752
19.2684
19.2759
19.3007
19.3462
19.4157
19.5106
19.6298
19.7683
19.9169
20.0647
20.202
20.321
20.4146
20.4756
20.4998
20.5077
20.4964
20.4641
20.4103
20.3353
21.6309
21.603
21.5907
21.5964
21.6239
21.6786
21.7676
21.8997
22.0858
22.3377
22.6635
23.0635
23.5224
24.01
24.4916
24.9406
25.3391
25.6713
25.9184
26.0602
26.16
26.2065
26.1949
26.1238
25.9946
26.2226
26.2172
26.2498
26.3284
26.4624
26.6665
26.9613
27.3733
27.9366
28.6884
29.6576
30.8342
32.1509
33.4952
34.7645
35.9054
36.8983
37.726
38.3578
38.7523
39.0257
39.1711
39.1611
38.9936
38.6771
37.1675
37.3088
37.4806
37.6875
38.0192
38.535
39.2794
40.3141
41.7139
43.5499
45.8524
48.5233
51.3226
53.9421
56.1944
58.0685
59.6278
60.8939
61.8311
62.3924
62.6582
62.6898
62.4396
61.8908
61.0827
68.0511
68.0261
68.1413
68.4002
68.7396
69.1443
69.7398
70.7793
72.3595
74.5575
77.4335
80.7197
83.843
86.5404
88.643
90.2997
91.711
92.8823
93.7109
94.1061
94.0806
93.8581
93.3517
92.4551
91.18
125.057
122.698
120.506
118.491
116.68
115.113
113.784
112.636
112.067
112.333
113.883
113.235
114.33
118.496
123.882
128.975
133.663
137.914
141.249
143.17
144.124
147.357
153.053
152.196
151.079
149.798
172.865
165.205
158.366
152.288
146.962
142.422
138.774
135.989
135.003
133.297
134.721
150.425
193.336
216.691
256.14
272.365
278.948
279.39
275.049
281.145
277.559
284.742
312.035
302.818
293.558
178.638
170.381
163.075
156.579
150.897
146.126
142.543
139.279
140.074
157.054
216.725
723.245
2365.08
633.211
696.08
588.545
441.02
337.658
307.712
145.342
138.95
133.151
127.901
123.189
119.036
115.001
115.873
123.933
152.135
805.173
684.601
209.544
203.605
191.901
198.604
153.454
147.812
142.765
138.334
134.647
131.936
131.14
143.81
182.378
1098.27
240.641
228.93
219.965
200.759
269.49
178.794
264.287
272.001
243.678
511.292
438.166
348.388
323.002
244.247
213.838
213.867
213.629
117.014
120.608
122.926
124.452
44.921
47.3046
50.0372
52.8551
55.4233
57.5387
59.1928
60.4585
61.3775
61.937
62.1376
62.1611
61.9915
61.5779
60.9191
60.043
58.9904
29.3108
30.3478
31.5898
32.9587
34.3259
35.5752
36.6449
37.5179
38.1836
38.6268
38.8878
39.0461
39.0825
38.9838
38.7475
38.3827
37.9016
37.3378
22.5734
22.9287
23.359
23.8455
24.3523
24.8386
25.2736
25.6381
25.915
26.0916
26.1926
26.2496
26.2554
26.207
26.1041
25.9506
25.7524
25.5159
19.5037
19.609
19.739
19.8876
20.0439
20.1952
20.3301
20.4401
20.518
20.5575
20.5698
20.5645
20.5399
20.495
20.4297
20.3449
20.2426
20.1244
17.9656
17.9784
18.0007
18.03
18.062
18.0921
18.1159
18.13
18.1318
18.119
18.097
18.0682
18.0316
17.9867
17.9332
17.8712
17.8013
17.7247
17.142
17.1173
17.097
17.0799
17.0642
17.0482
17.03
17.0081
16.9814
16.9491
16.9136
16.8752
16.8335
16.788
16.7385
16.685
16.6278
16.5676
16.6704
16.6294
16.5908
16.5541
16.5185
16.4831
16.4472
16.4101
16.3711
16.3299
16.2877
16.2444
16.1996
16.1532
16.105
16.055
16.0032
15.9501
16.3839
16.3351
16.288
16.2423
16.1975
16.1532
16.109
16.0645
16.0194
15.9736
15.9276
15.8812
15.8342
15.7867
15.7384
15.6893
15.6396
15.5891
16.2013
16.1485
16.097
16.0465
15.9969
15.9479
15.8992
15.8507
15.8022
15.7535
15.7049
15.6564
15.6078
15.5591
15.5102
15.4611
15.4117
15.3623
16.0812
16.026
15.9718
15.9186
15.8661
15.8143
15.7629
15.7118
15.6609
15.6102
15.5598
15.5096
15.4596
15.4097
15.3599
15.3102
15.2607
15.2112
16.0004
15.9437
15.8878
15.8327
15.7783
15.7246
15.6712
15.6183
15.5658
15.5135
15.4616
15.41
15.3587
15.3077
15.257
15.2066
15.1564
15.1065
15.9454
15.8876
15.8305
15.7741
15.7183
15.6631
15.6084
15.5541
15.5002
15.4466
15.3934
15.3407
15.2883
15.2362
15.1846
15.1333
15.0825
15.032
15.9076
15.8489
15.7909
15.7335
15.6767
15.6204
15.5646
15.5092
15.4542
15.3995
15.3453
15.2915
15.2382
15.1852
15.1327
15.0807
15.0291
14.9779
15.8815
15.8221
15.7633
15.7051
15.6475
15.5903
15.5336
15.4774
15.4215
15.366
15.3109
15.2563
15.2021
15.1484
15.0951
15.0423
14.99
14.9382
15.8632
15.8033
15.744
15.6852
15.6269
15.5691
15.5117
15.4547
15.3981
15.3419
15.2861
15.2308
15.1759
15.1215
15.0676
15.0142
14.9613
14.909
15.8506
15.7903
15.7305
15.6712
15.6124
15.554
15.4961
15.4385
15.3814
15.3246
15.2683
15.2123
15.1569
15.1019
15.0475
14.9936
14.9402
14.8873
15.8419
15.7813
15.7211
15.6615
15.6023
15.5435
15.4851
15.4271
15.3695
15.3123
15.2555
15.1991
15.1432
15.0878
15.0329
14.9786
14.9247
14.8715
15.836
15.7751
15.7147
15.6548
15.5953
15.5362
15.4774
15.4191
15.3611
15.3035
15.2464
15.1897
15.1334
15.0777
15.0224
14.9677
14.9136
14.86
15.832
15.7709
15.7103
15.6501
15.5904
15.531
15.472
15.4134
15.3552
15.2973
15.2399
15.1829
15.1264
15.0704
15.0148
14.9599
14.9055
14.8516
15.8293
15.768
15.7073
15.647
15.587
15.5275
15.4683
15.4095
15.351
15.293
15.2354
15.1782
15.1215
15.0652
15.0095
14.9543
14.8997
14.8457
15.8274
15.7661
15.7053
15.6448
15.5848
15.5251
15.4658
15.4069
15.3483
15.2901
15.2324
15.1751
15.1182
15.0619
15.006
14.9507
14.896
14.8418
15.8266
15.7653
15.7044
15.6439
15.5838
15.524
15.4647
15.4057
15.347
15.2888
15.231
15.1736
15.1167
15.0603
15.0044
14.949
14.8942
14.84
16.403
16.336
16.2697
16.2042
16.1393
16.0751
16.0116
15.9486
15.8863
15.8244
15.763
15.7021
15.6415
15.5814
15.5216
15.4622
15.4032
15.3445
15.2863
15.2284
15.1709
15.114
15.0575
15.0015
16.4036
16.3366
16.2703
16.2048
16.14
16.0758
16.0123
15.9493
15.887
15.8251
15.7638
15.7029
15.6424
15.5824
15.5227
15.4633
15.4043
15.3457
15.2875
15.2297
15.1723
15.1154
15.0589
15.003
16.4049
16.3378
16.2716
16.206
16.1412
16.077
16.0136
15.9507
15.8884
15.8266
15.7653
15.7045
15.6442
15.5842
15.5246
15.4654
15.4065
15.348
15.2899
15.2322
15.175
15.1182
15.0618
15.006
16.4064
16.3394
16.2731
16.2075
16.1427
16.0786
16.0152
15.9524
15.8902
15.8285
15.7674
15.7067
15.6465
15.5867
15.5273
15.4682
15.4095
15.3512
15.2933
15.2358
15.1788
15.1221
15.066
15.0104
16.4086
16.3415
16.2752
16.2096
16.1449
16.0808
16.0175
15.9548
15.8927
15.8312
15.7702
15.7098
15.6497
15.5901
15.531
15.4722
15.4137
15.3557
15.298
15.2408
15.184
15.1276
15.0718
15.0164
16.4121
16.3449
16.2786
16.213
16.1483
16.0843
16.0211
15.9585
15.8966
15.8353
15.7746
15.7144
15.6546
15.5954
15.5365
15.478
15.4199
15.3622
15.3049
15.248
15.1915
15.1355
15.08
15.0249
16.4181
16.3509
16.2846
16.2191
16.1544
16.0905
16.0275
15.9651
15.9034
15.8424
15.782
15.7221
15.6627
15.6038
15.5453
15.4872
15.4296
15.3723
15.3154
15.2589
15.2029
15.1473
15.0922
15.0376
16.4282
16.361
16.2947
16.2292
16.1647
16.101
16.0381
15.976
15.9146
15.8539
15.7939
15.7344
15.6755
15.6171
15.5591
15.5016
15.4444
15.3877
15.3313
15.2754
15.2199
15.1649
15.1103
15.0562
16.4437
16.3765
16.3102
16.2449
16.1805
16.117
16.0544
15.9926
15.9316
15.8714
15.8119
15.753
15.6947
15.6369
15.5796
15.5227
15.4662
15.4102
15.3546
15.2993
15.2445
15.1902
15.1363
15.0829
16.4665
16.3994
16.3332
16.2681
16.2039
16.1408
16.0785
16.0172
15.9567
15.8971
15.8382
15.78
15.7225
15.6655
15.609
15.553
15.4975
15.4423
15.3875
15.3332
15.2792
15.2257
15.1726
15.12
16.4999
16.4329
16.367
16.3021
16.2384
16.1756
16.1139
16.0532
15.9934
15.9345
15.8765
15.8192
15.7627
15.7067
15.6513
15.5964
15.542
15.4879
15.4342
15.3809
15.328
15.2756
15.2235
15.1718
16.5488
16.4822
16.4166
16.3523
16.289
16.2269
16.1659
16.106
16.0471
15.9893
15.9324
15.8763
15.8211
15.7665
15.7125
15.6591
15.606
15.5533
15.501
15.449
15.3974
15.3462
15.2953
15.2447
16.6211
16.5551
16.4902
16.4266
16.3642
16.303
16.243
16.1842
16.1267
16.0702
16.0149
15.9606
15.9072
15.8545
15.8024
15.7508
15.6996
15.6487
15.5981
15.5478
15.4978
15.4481
15.3986
15.3492
16.7293
16.6642
16.6004
16.5378
16.4767
16.4169
16.3584
16.3014
16.2458
16.1915
16.1386
16.0868
16.036
15.9861
15.9368
15.888
15.8393
15.7909
15.7424
15.6942
15.6463
15.5984
15.5506
15.5027
16.893
16.8295
16.7673
16.7067
16.6475
16.59
16.5341
16.4799
16.4274
16.3767
16.3276
16.28
16.2337
16.1882
16.1433
16.0986
16.0539
16.0089
15.9634
15.9182
15.873
15.8276
15.7818
15.7355
17.1465
17.0855
17.0262
16.9686
16.913
16.8593
16.8078
16.7586
16.7117
16.6673
16.6251
16.5851
16.5466
16.5091
16.4719
16.4343
16.3959
16.3564
16.3158
16.275
16.2337
16.1917
16.1484
16.1037
17.5513
17.4946
17.4401
17.3881
17.3388
17.2923
17.249
17.2092
17.1732
17.141
17.1125
17.0872
17.0641
17.042
17.0194
16.9949
16.9678
16.9374
16.9044
16.8704
16.8349
16.7971
16.7565
16.7126
18.239
18.1887
18.1419
18.099
18.0603
18.0265
17.998
17.9757
17.9601
17.9517
17.9502
17.9547
17.9629
17.9716
17.9776
17.978
17.9712
17.9561
17.9352
17.9112
17.8834
17.8507
17.8117
17.7657
19.4688
19.4246
19.3871
19.3567
19.3344
19.3214
19.3191
19.3292
19.3534
19.3929
19.4479
19.5156
19.5898
19.6627
19.7265
19.7761
19.8085
19.822
19.8241
19.8187
19.8048
19.7804
19.7426
19.6895
19.6207
21.8052
21.7741
21.7436
21.7211
21.7158
21.7298
21.7671
21.8325
21.9311
22.0677
22.244
22.4537
22.6794
22.8976
23.0889
23.2443
23.3615
23.4381
23.4989
23.5427
23.5677
23.5693
23.5401
23.4749
23.3736
26.4964
26.4729