/*--------------------------------*- C++ -*----------------------------------*\
  =========                 |
  \\      /  F ield         | OpenFOAM: The Open Source CFD Toolbox
   \\    /   O peration     | Website:  https://openfoam.org
    \\  /    A nd           | Version:  13
     \\/     M anipulation  |
\*---------------------------------------------------------------------------*/
FoamFile
{
    format      ascii;
    class       volScalarField;
    location    "800";
    object      p;
}
// * * * * * * * * * * * * * * * * * * * * * * * * * * * * * * * * * * * * * //

dimensions      [0 2 -2 0 0 0 0];

internalField   nonuniform List<scalar> 
171745
(
-3.29031
-3.7537
-4.22314
-4.69851
-5.17907
-5.66358
-6.15038
-6.63752
-7.12272
-7.60339
-8.07662
-8.53928
-8.98816
-9.42004
-9.83175
-10.2202
-10.5825
-10.9161
-11.2185
-11.488
-11.7231
-11.9227
-12.0864
-12.2142
-3.2955
-3.75833
-4.22763
-4.7033
-5.18462
-5.67035
-6.1588
-6.64799
-7.13559
-7.61895
-8.09511
-8.56088
-9.01292
-9.44793
-9.86262
-10.2538
-10.6186
-10.9543
-11.2585
-11.5294
-11.7653
-11.9654
-12.129
-12.2563
-3.3046
-3.76634
-4.2354
-4.71174
-5.19463
-5.68281
-6.17458
-6.66786
-7.16026
-7.64903
-8.13111
-8.60313
-9.0616
-9.50299
-9.92381
-10.3207
-10.6907
-11.0308
-11.3386
-11.6122
-11.85
-12.0509
-12.2145
-12.3407
-3.3173
-3.77733
-4.246
-4.72331
-5.20856
-5.70045
-6.19722
-6.69673
-7.19643
-7.69348
-8.18458
-8.66618
-9.1345
-9.5857
-10.016
-10.4218
-10.7996
-11.1466
-11.4601
-11.738
-11.9785
-12.1807
-12.3439
-12.4685
-3.33206
-3.78964
-4.25768
-4.73624
-5.22462
-5.7215
-6.22506
-6.73303
-7.24274
-7.75109
-8.2546
-8.74936
-9.23125
-9.69601
-10.1394
-10.5575
-10.9464
-11.303
-11.6243
-11.908
-12.1523
-12.3562
-12.519
-12.6412
-3.34736
-3.80157
-4.26862
-4.74862
-5.24088
-5.74406
-6.25626
-6.7751
-7.29769
-7.82072
-8.34031
-8.85222
-9.3518
-9.83429
-10.2949
-10.7291
-11.1326
-11.5018
-11.8333
-12.1247
-12.3739
-12.5799
-12.7421
-12.8611
-3.36081
-3.81054
-4.27609
-4.75764
-5.2545
-5.76532
-6.28814
-6.8204
-7.35905
-7.9004
-8.44025
-8.97377
-9.49575
-10.0007
-10.4832
-10.938
-11.3601
-11.7452
-12.0898
-12.3909
-12.6463
-12.8548
-13.0161
-13.1308
-3.36963
-3.81353
-4.27688
-4.75995
-5.26207
-5.78188
-6.31734
-6.86581
-7.42394
-7.98777
-8.55253
-9.11281
-9.66262
-10.1956
-10.7054
-11.1859
-11.6312
-12.0364
-12.3973
-12.7104
-12.9734
-13.1849
-13.3448
-13.4541
-3.3702
-3.80663
-4.2669
-4.7513
-5.25924
-5.78936
-6.3396
-6.90719
-7.48864
-8.07951
-8.67455
-9.26753
-9.85153
-10.4191
-10.9627
-11.4749
-11.949
-12.379
-12.7599
-13.0878
-13.36
-13.5751
-13.733
-13.8352
-3.35821
-3.78525
-4.24126
-4.72662
-5.24076
-5.78241
-6.34955
-6.93941
-7.54827
-8.1714
-8.80285
-9.43551
-10.0612
-10.6712
-11.2563
-11.8077
-12.3171
-12.7775
-13.183
-13.529
-13.8123
-14.0315
-14.1867
-14.2799
-3.32844
-3.74383
-4.19416
-4.67979
-5.20027
-5.75447
-6.34055
-6.95584
-7.59662
-8.25778
-8.93274
-9.61328
-10.2898
-10.9516
-11.5876
-12.187
-12.7398
-13.2376
-13.6731
-14.0411
-14.3379
-14.5618
-14.7132
-14.7948
-3.27479
-3.67599
-4.11886
-4.60373
-5.13027
-5.69766
-6.30444
-6.94831
-7.62568
-8.33135
-9.05799
-9.79615
-10.5343
-11.2595
-11.958
-12.6164
-13.2224
-13.7658
-14.2381
-14.633
-14.946
-15.1753
-15.3216
-15.3883
-3.19019
-3.57441
-4.00768
-4.49023
-5.02193
-5.60247
-6.23111
-6.90627
-7.625
-8.38215
-9.16991
-9.97735
-10.7906
-11.5934
-12.3686
-13.0995
-13.7709
-14.3702
-14.8874
-15.3151
-15.648
-15.8837
-16.0231
-16.071
-3.06675
-3.43109
-3.85227
-4.3303
-4.86537
-5.45797
-6.10856
-6.81697
-7.58142
-8.39753
-9.25717
-10.1479
-11.0526
-11.951
-12.821
-13.6411
-14.3926
-15.0603
-15.6326
-16.1008
-16.4582
-16.7015
-16.832
-16.8556
-2.89563
-3.23712
-3.64321
-4.11354
-4.64875
-5.25057
-5.92139
-6.66333
-7.47695
-8.35948
-9.30318
-10.2939
-11.3108
-12.3276
-13.3151
-14.2455
-15.0954
-15.847
-16.4869
-17.005
-17.3932
-17.6462
-17.7651
-17.7578
-2.66868
-2.9849
-3.37274
-3.83123
-4.36159
-4.96732
-5.65364
-6.42644
-7.29031
-8.24595
-9.28706
-10.3981
-11.5534
-12.7179
-13.8523
-14.9197
-15.8907
-16.7448
-17.4679
-18.0482
-18.4757
-18.7419
-18.8463
-18.7993
-2.37429
-2.66318
-3.02903
-3.46992
-3.98776
-4.58843
-5.28122
-6.07769
-6.98922
-8.02262
-9.17565
-10.4326
-11.7609
-13.1128
-14.433
-15.671
-16.7901
-17.769
-18.5944
-19.2531
-19.7312
-20.016
-20.1029
-20.0047
-2.01154
-2.2729
-2.61315
-3.02897
-3.52293
-4.10403
-4.78742
-5.59304
-6.5425
-7.65355
-8.93228
-10.3649
-11.9102
-13.502
-15.0597
-16.5111
-17.8104
-18.9395
-19.8908
-20.6506
-21.1965
-21.5084
-21.5763
-21.4133
-1.5614
-1.79763
-2.10965
-2.49196
-2.94746
-3.48866
-4.13813
-4.92748
-5.89415
-7.07306
-8.4863
-10.1291
-11.9529
-13.8612
-15.7299
-17.4503
-18.9664
-20.2728
-21.3771
-22.2671
-22.9071
-23.2575
-23.2995
-23.052
-22.5696
-1.05573
-1.27108
-1.55141
-1.88807
-2.28349
-2.75356
-3.32922
-4.05636
-4.99519
-6.21227
-7.76235
-9.66163
-11.8547
-14.1952
-16.4786
-18.5349
-20.3018
-21.809
-23.0986
-24.1616
-24.9419
-25.3624
-25.3744
-25.0037
-24.3475
-0.456725
-0.664286
-0.915788
-1.19803
-1.51133
-1.87326
-2.32312
-2.92632
-3.77565
-4.98575
-6.66792
-8.88415
-11.5824
-14.5418
-17.4011
-19.8655
-21.8856
-23.5849
-25.0766
-26.3556
-27.3333
-27.8683
-27.8462
-27.3171
-26.4366
0.122057
-0.089594
-0.313606
-0.530493
-0.736173
-0.9475
-1.21031
-1.6103
-2.2813
-3.40367
-5.17893
-7.76243
-11.1382
-14.9757
-18.695
-21.7119
-23.9925
-25.8509
-27.548
-29.0946
-30.3823
-31.0633
-30.9391
-30.1384
-28.941
0.626824
0.372768
0.148083
-0.0210121
-0.123115
-0.170063
-0.207887
-0.331542
-0.709598
-1.60346
-3.35566
-6.3053
-10.5207
-15.4023
-20.1434
-23.8061
-26.3198
-28.2718
-30.1488
-31.9595
-34.0465
-35.1143
-34.7627
-33.536
-31.8895
0.557127
0.244446
0.0146065
-0.098897
-0.0751862
0.0872908
0.357845
0.65079
0.786619
0.439073
-0.926399
-3.9786
-9.15833
-14.3568
-20.476
-25.0326
-27.9441
-29.9208
-31.8661
-33.8513
-37.8915
-39.9589
-39.0762
-37.2689
-35.0583
-32.6781
-0.385098
-0.559703
-0.566342
-0.368294
0.0603244
0.724672
1.58435
2.50434
3.17765
2.94138
0.734954
-4.7632
-12.7458
-22.2015
-29.3025
-32.4213
-34.3601
-35.8226
-37.846
-39.617
-43.6039
-41.4887
-39.0417
-35.9265
-32.7035
-1.38392
-1.2818
-0.914734
-0.228607
0.825703
2.28183
4.11202
6.15792
8.00766
6.09432
2.5308
-6.7226
-19.2545
-30.9518
-41.1838
-40.2137
-37.9474
-39.1885
-41.1325
-42.7365
-41.8743
-40.4146
-37.8932
-34.5367
-2.01637
-1.86499
-1.42414
-0.616584
0.638224
2.41849
4.78952
7.73326
10.962
11.8777
12.0759
6.94898
-0.948374
-19.9466
-90.4875
-50.7048
-39.0169
-39.0272
-40.3549
-41.768
-41.528
-40.0058
-37.5813
-34.7055
-2.20212
-1.85449
-1.15522
-0.0370855
1.55052
3.62257
6.08262
8.6066
10.8513
11.6685
11.1262
10.9234
-38.9653
-39.7628
-40.7586
-42.8189
-42.9749
-40.7918
-37.8493
-34.4938
-40.9225
-42.5456
-44.2584
-45.363
-43.0529
-39.0529
-35.0114
-42.1312
-46.3077
-45.0155
-41.9117
-38.1948
-43.2087
-42.6126
-40.4375
-37.8832
-3.9249
-5.7924
-8.48698
-12.0042
-16.0099
-19.8921
-23.0088
-25.2721
-26.9687
-28.3897
-29.5998
-30.5138
-30.8577
-30.4427
-29.412
-28.0759
-26.6155
-5.45668
-7.21657
-9.52255
-12.3241
-15.3941
-18.3517
-20.8707
-22.8733
-24.4688
-25.7797
-26.8264
-27.5419
-27.8144
-27.5599
-26.8399
-25.8178
-24.6455
-23.4125
-6.63182
-8.2437
-10.2113
-12.4774
-14.8904
-17.2334
-19.3186
-21.0673
-22.5014
-23.6661
-24.5651
-25.1569
-25.3845
-25.2147
-24.6891
-23.9131
-22.9909
-21.9973
-7.44463
-8.90535
-10.5982
-12.4726
-14.4275
-16.3308
-18.0638
-19.561
-20.8115
-21.825
-22.5964
-23.0998
-23.3077
-23.2123
-22.8404
-22.2565
-21.5349
-20.7355
-7.98088
-9.29571
-10.7645
-12.3443
-13.9652
-15.5417
-16.9954
-18.2754
-19.3605
-20.2439
-20.9159
-21.3617
-21.5671
-21.5283
-21.2676
-20.8302
-20.2682
-19.6273
-8.31044
-9.49062
-10.7736
-12.125
-13.4945
-14.8237
-16.0583
-17.1586
-18.1018
-18.8749
-19.4676
-19.8698
-20.0724
-20.0772
-19.9028
-19.5805
-19.1467
-18.6357
-8.49845
-9.5598
-10.6893
-11.8599
-13.0347
-14.1723
-15.2334
-16.1869
-17.0115
-17.6931
-18.2223
-18.5907
-18.7934
-18.8343
-18.7275
-18.495
-18.163
-17.7573
-8.58124
-9.53984
-10.5434
-11.5701
-12.5923
-13.5795
-14.5023
-15.3363
-16.0631
-16.6696
-17.1472
-17.4889
-17.6922
-17.7613
-17.7066
-17.5441
-17.2927
-16.9721
-8.59253
-9.46302
-10.3624
-11.2732
-12.1738
-13.0413
-13.8534
-14.5905
-15.2373
-15.7825
-16.2179
-16.5384
-16.7423
-16.8331
-16.8187
-16.7109
-16.5238
-16.2725
-8.55416
-9.34966
-10.1628
-10.9793
-11.7823
-12.5539
-13.2767
-13.9353
-14.5168
-15.0116
-15.4128
-15.7158
-15.9198
-16.0273
-16.0442
-15.9795
-15.8438
-15.6485
-8.48365
-9.21566
-9.95733
-10.6969
-11.4208
-12.115
-12.7657
-13.3604
-13.8886
-14.3422
-14.7152
-15.0038
-15.2073
-15.3276
-15.3691
-15.3385
-15.244
-15.0944
-8.39332
-9.07184
-9.75423
-10.4308
-11.0904
-11.7219
-12.3141
-12.8569
-13.3416
-13.7613
-14.1111
-14.3877
-14.5903
-14.7203
-14.781
-14.7775
-14.716
-14.6035
-8.29272
-8.92635
-9.55966
-10.1845
-10.7918
-11.3723
-11.917
-12.4175
-12.8666
-13.2586
-13.5892
-13.8557
-14.0571
-14.1944
-14.2701
-14.2881
-14.2533
-14.171
-8.18886
-8.78502
-9.37778
-9.96023
-10.5248
-11.0639
-11.5699
-12.036
-12.4561
-12.8254
-13.1402
-13.3981
-13.5982
-13.741
-13.8285
-13.8636
-13.8501
-13.7923
-8.08711
-8.65219
-9.21159
-9.75941
-10.2892
-10.7946
-11.2693
-11.7075
-12.104
-12.4548
-12.7566
-13.0072
-13.2059
-13.3529
-13.4496
-13.4983
-13.5019
-13.464
-7.99146
-8.53101
-9.06318
-9.58287
-10.0846
-10.5628
-11.0122
-11.4278
-11.8053
-12.1409
-12.4321
-12.6767
-12.8741
-13.0241
-13.128
-13.1874
-13.2047
-13.1828
-7.905
-8.42386
-8.93407
-9.43116
-9.91036
-10.3669
-10.7961
-11.1936
-11.5558
-11.8794
-12.1619
-12.4016
-12.5977
-12.75
-12.8594
-12.9273
-12.9554
-12.9464
-7.82996
-8.33239
-8.82523
-9.30452
-9.76601
-10.2055
-10.6188
-11.0022
-11.3524
-11.6664
-11.9421
-12.1778
-12.3728
-12.5268
-12.6404
-12.7147
-12.7514
-12.7523
-7.76814
-8.25794
-8.73748
-9.20316
-9.65114
-10.0776
-10.4789
-10.8515
-11.1925
-11.4992
-11.7696
-12.0023
-12.1963
-12.3515
-12.4683
-12.5475
-12.5905
-12.5992
-7.72062
-8.20125
-8.67116
-9.127
-9.56523
-9.98232
-10.3749
-10.7397
-11.0741
-11.3755
-11.6421
-11.8725
-12.0658
-12.2218
-12.3408
-12.4235
-12.4712
-12.4853
-7.68853
-8.16319
-8.62685
-9.07631
-9.50822
-9.91923
-10.3061
-10.6659
-10.9959
-11.2939
-11.558
-11.7869
-11.9797
-12.1362
-12.2567
-12.3416
-12.3923
-12.41
-7.67194
-8.14367
-8.60427
-9.05063
-9.47945
-9.8875
-10.2717
-10.629
-10.9569
-11.2532
-11.5161
-11.7442
-11.9368
-12.0936
-12.2148
-12.3009
-12.3531
-12.3726
-3.28185
-3.74562
-4.21541
-4.69111
-5.17196
-5.65674
-6.14378
-6.63113
-7.11649
-7.59729
-8.07058
-8.53327
-8.98214
-9.41398
-9.82561
-10.214
-10.5762
-10.9096
-11.212
-11.4815
-11.7165
-11.9162
-12.08
-12.2079
-3.28707
-3.75031
-4.21997
-4.69597
-5.17759
-5.66357
-6.15227
-6.64164
-7.12941
-7.61289
-8.08914
-8.55494
-9.00698
-9.44196
-9.85658
-10.2477
-10.6124
-10.9479
-11.252
-11.5228
-11.7587
-11.9588
-12.1225
-12.2499
-3.29615
-3.75834
-4.22781
-4.7045
-5.1877
-5.67617
-6.16817
-6.66167
-7.15423
-7.64314
-8.12529
-8.59735
-9.05583
-9.49718
-9.91794
-10.3147
-10.6845
-11.0245
-11.3322
-11.6057
-11.8434
-12.0443
-12.2079
-12.3342
-3.30882
-3.76937
-4.2385
-4.71622
-5.20182
-5.69402
-6.19107
-6.69079
-7.1907
-7.68787
-8.17906
-8.66069
-9.129
-9.58016
-10.0103
-10.416
-10.7937
-11.1405
-11.4538
-11.7315
-11.9719
-12.174
-12.3373
-12.4619
-3.32356
-3.78174
-4.25033
-4.72936
-5.21815
-5.7154
-6.21927
-6.72752
-7.23742
-7.74594
-8.24952
-8.74431
-9.22616
-9.69083
-10.1341
-10.5519
-10.9407
-11.297
-11.618
-11.9015
-12.1457
-12.3494
-12.5122
-12.6344
-3.33885
-3.79378
-4.26147
-4.74204
-5.2348
-5.73841
-6.25101
-6.77014
-7.293
-7.81617
-8.33586
-8.84777
-9.34728
-9.82963
-10.29
-10.724
-11.1272
-11.496
-11.8272
-12.1183
-12.3673
-12.573
-12.7351
-12.8541
-3.35231
-3.80291
-4.26924
-4.75147
-5.24894
-5.76031
-6.28357
-6.81624
-7.35516
-7.89673
-8.43665
-8.97016
-9.49203
-9.9968
-10.479
-10.9334
-11.3551
-11.7398
-12.0839
-12.3846
-12.6396
-12.8478
-13.0089
-13.1236
-3.36119
-3.80613
-4.27044
-4.75435
-5.25723
-5.77769
-6.31375
-6.86266
-7.42119
-7.98523
-8.5501
-9.11034
-9.65999
-10.1927
-10.7021
-11.1821
-11.6268
-12.0314
-12.3917
-12.7042
-12.9667
-13.1778
-13.3374
-13.4465
-3.36189
-3.79959
-4.26101
-4.74646
-5.25533
-5.78628
-6.33723
-6.90545
-7.48733
-8.07853
-8.67369
-9.26663
-9.85041
-10.4176
-10.9607
-11.4722
-11.9456
-12.3747
-12.7548
-13.0819
-13.3534
-13.5678
-13.7253
-13.8271
-3.35012
-3.77868
-4.23612
-4.72276
-5.23808
-5.78077
-6.34885
-6.93946
-7.54895
-8.17247
-8.80411
-9.43673
-10.0622
-10.6716
-11.256
-11.8065
-12.3149
-12.7742
-13.1786
-13.5235
-13.8058
-14.0241
-14.1786
-14.2711
-3.32067
-3.73792
-4.18998
-4.67722
-5.19917
-5.75471
-6.34197
-6.95831
-7.59988
-8.26163
-8.93687
-9.61739
-10.2936
-10.9547
-11.5898
-12.188
-12.7395
-13.2357
-13.6697
-14.0363
-14.3316
-14.5541
-14.7045
-14.7851
-3.26745
-3.67091
-4.11591
-4.60277
-5.13118
-5.70028
-6.30864
-6.95385
-7.63237
-8.33884
-9.06597
-9.80422
-10.5421
-11.2664
-11.9637
-12.6205
-13.2247
-13.766
-14.2362
-14.629
-14.9401
-15.1675
-15.3121
-15.3775
-3.1834
-3.57035
-4.00623
-4.49127
-5.02533
-5.6081
-6.23878
-6.91583
-7.63612
-8.39453
-9.1831
-9.99083
-10.8037
-11.6056
-12.3793
-13.108
-13.7768
-14.3733
-14.8877
-15.3126
-15.6427
-15.8756
-16.0126
-16.0583
-3.06058
-3.42822
-3.85261
-4.33375
-4.87183
-5.46732
-6.12068
-6.83162
-7.59838
-8.41639
-9.27744
-10.1688
-11.0735
-11.9708
-12.8387
-13.6559
-14.4039
-15.0678
-15.6363
-16.1005
-16.454
-16.6934
-16.8202
-16.8406
-2.89006
-3.23551
-3.64554
-4.11977
-4.65882
-5.26444
-5.93893
-6.68443
-7.50136
-8.38689
-9.33302
-10.3253
-11.3426
-12.3583
-13.3431
-14.2696
-15.1146
-15.861
-16.4957
-17.0087
-17.3914
-17.6388
-17.7521
-17.7396
-2.66362
-2.98459
-3.37723
-3.84056
-4.37581
-4.98647
-5.67782
-6.45565
-7.32451
-8.28484
-9.3302
-10.4446
-11.6015
-12.7652
-13.8961
-14.9576
-15.9214
-16.7682
-17.4843
-18.0581
-18.4782
-18.7359
-18.8317
-18.7765
-2.36925
-2.66382
-3.03553
-3.48244
-4.00647
-4.61358
-5.31319
-6.11695
-7.03593
-8.07689
-9.23729
-10.5005
-11.8327
-13.1846
-14.5
-15.729
-16.8373
-17.8057
-18.6219
-19.2725
-19.7413
-20.0136
-20.0865
-19.9748
-2.00723
-2.27529
-2.62254
-3.04568
-3.54734
-4.13664
-4.82894
-5.64435
-6.60461
-7.72762
-9.01917
-10.4642
-12.0192
-13.6136
-15.1643
-16.6007
-17.8823
-18.9958
-19.9353
-20.6848
-21.2193
-21.5132
-21.5575
-21.3719
-1.55607
-1.80025
-2.12072
-2.51194
-2.97691
-3.5284
-4.18933
-4.99184
-5.97419
-7.17297
-8.60985
-10.277
-12.1206
-14.0359
-15.893
-17.5868
-19.073
-20.3566
-21.4474
-22.3272
-22.9518
-23.2757
-23.2799
-22.9929
-22.4811
-1.05414
-1.27893
-1.56927
-1.91651
-2.32318
-2.80544
-3.39504
-4.13922
-5.09959
-6.34461
-7.93101
-9.87341
-12.1068
-14.4647
-16.7289
-18.7379
-20.4553
-21.9321
-23.2118
-24.2702
-25.0281
-25.3979
-25.3438
-24.9127
-24.2113
-0.452811
-0.673396
-0.937806
-1.23285
-1.55902
-1.93432
-2.39848
-3.0182
-3.88921
-5.13152
-6.86559
-9.16015
-11.951
-14.9589
-17.7805
-20.151
-22.0804
-23.7352
-25.23
-26.5235
-27.4697
-27.9109
-27.7768
-27.1495
-26.2024
0.107865
-0.119238
-0.357001
-0.584747
-0.798101
-1.01366
-1.27607
-1.67238
-2.34375
-3.48631
-5.32916
-8.06394
-11.6523
-15.6497
-19.3002
-22.1189
-24.2095
-25.9886
-27.7186
-29.3195
-30.5195
-31.0492
-30.7584
-29.8342
-28.5545
0.624415
0.347253
0.107396
-0.0676961
-0.164454
-0.189942
-0.184698
-0.245797
-0.556777
-1.41611
-3.24042
-6.49296
-11.188
-16.4512
-21.1362
-24.4314
-26.5626
-28.3907
-30.4165
-32.4488
-34.0201
-34.8838
-34.4048
-33.0264
-31.2685
0.635177
0.294744
0.0463732
-0.072935
-0.0378972
0.159157
0.496611
0.900858
1.18562
0.96151
-0.451982
-3.93
-9.10903
-16.0321
-22.0244
-26.1509
-28.2207
-29.7496
-31.7468
-33.9968
-36.0129
-38.7224
-38.5279
-36.674
-34.4368
-32.1495
-0.473074
-0.67283
-0.679526
-0.454329
0.0347249
0.802405
1.81995
2.96964
3.87883
3.78329
0.437881
-5.03434
-16.1506
-26.4977
-33.6226
-32.2703
-32.4541
-35.2303
-37.7788
-39.7687
-41.1313
-41.6521
-39.1116
-36.3202
-33.2839
-1.89798
-1.77452
-1.35499
-0.575459
0.625356
2.28683
4.40388
6.78716
7.43818
8.35291
2.48479
-10.6827
-26.1027
-59.8417
-44.3935
-28.4305
-36.3143
-38.8551
-40.5698
-42.3763
-42.2699
-40.2603
-38.3291
-35.197
-2.49186
-2.33193
-1.86028
-0.981452
0.408987
2.43396
5.24179
8.90718
11.4472
15.6028
12.9875
0.558796
-39.972
-41.7802
-42.0676
-40.5029
-37.7768
-35.3014
-2.71292
-2.30663
-1.51152
-0.238064
1.59014
4.03991
7.11705
10.204
14.4031
15.0367
19.14
-40.833
-42.9983
-44.138
-41.7942
-38.418
-35.1964
-40.4473
-42.6882
-44.9947
-46.3105
-44.2631
-39.9821
-35.7398
-41.9192
-45.1765
-46.3841
-42.7665
-38.7396
-41.6628
-42.1402
-39.9118
-37.1024
-3.98946
-5.92561
-8.77256
-12.5046
-16.671
-20.4739
-23.3809
-25.458
-27.113
-28.6204
-29.9327
-30.8019
-30.9916
-30.3736
-29.1776
-27.7277
-26.2147
-5.58848
-7.39887
-9.78163
-12.6741
-15.7902
-18.7055
-21.1266
-23.0406
-24.6065
-25.9454
-27.0344
-27.7439
-27.9311
-27.5521
-26.7176
-25.6184
-24.4075
-23.1655
-6.75361
-8.40012
-10.4087
-12.7127
-15.1404
-17.4616
-19.4981
-21.1992
-22.6094
-23.7756
-24.6844
-25.2671
-25.4512
-25.2161
-24.6249
-23.7972
-22.8452
-21.8412
-7.53708
-9.01995
-10.7354
-12.6275
-14.5872
-16.477
-18.1822
-19.6503
-20.8818
-21.8883
-22.6575
-23.1536
-23.3398
-23.2076
-22.7967
-22.1825
-21.4428
-20.6363
-8.04919
-9.3759
-10.856
-12.4441
-14.0661
-15.6344
-17.0724
-18.3351
-19.4067
-20.2817
-20.9486
-21.387
-21.5768
-21.5172
-21.2354
-20.7805
-20.2071
-19.5606
-8.36019
-9.54707
-10.8355
-12.19
-13.5587
-14.8824
-16.1078
-17.1975
-18.1313
-18.8972
-19.4842
-19.8791
-20.0716
-20.0647
-19.8782
-19.5454
-19.1043
-18.5897
-8.53384
-9.59895
-10.7312
-11.9029
-13.0764
-14.21
-15.2652
-16.2117
-17.0296
-17.7056
-18.2295
-18.5919
-18.788
-18.8217
-18.7076
-18.4688
-18.1324
-17.7242
-8.60589
-9.56657
-10.5713
-11.5981
-12.6189
-13.6031
-14.5219
-15.3512
-16.0733
-16.6755
-17.1488
-17.486
-17.6849
-17.7494
-17.6902
-17.5237
-17.2696
-16.9478
-8.60922
-9.48084
-10.3807
-11.291
-12.1904
-13.0557
-13.8649
-14.5987
-15.242
-15.7839
-16.2161
-16.5333
-16.7342
-16.8219
-16.8048
-16.6947
-16.5061
-16.2538
-8.56481
-9.36092
-10.1741
-10.9901
-11.792
-12.562
-13.2827
-13.9388
-14.5179
-15.0102
-15.409
-15.7097
-15.9115
-16.0171
-16.0323
-15.9663
-15.8297
-15.6341
-8.48977
-9.22211
-9.9637
-10.7028
-11.4258
-12.1187
-12.7679
-13.3608
-13.8872
-14.339
-14.7102
-14.9973
-15.1993
-15.3182
-15.3586
-15.3273
-15.2323
-15.0825
-8.39605
-9.07473
-9.757
-10.4331
-11.0921
-11.7226
-12.3136
-12.8551
-13.3384
-13.7569
-14.1054
-14.3809
-14.5825
-14.7116
-14.7716
-14.7676
-14.706
-14.5936
-8.29291
-8.92662
-9.55979
-10.1843
-10.791
-11.3708
-11.9146
-12.4141
-12.8623
-13.2534
-13.5831
-13.8488
-14.0495
-14.1863
-14.2616
-14.2794
-14.2445
-14.1623
-8.18715
-8.78336
-9.37598
-9.95814
-10.5223
-11.0608
-11.5662
-12.0316
-12.451
-12.8196
-13.1338
-13.3911
-13.5908
-13.7333
-13.8206
-13.8556
-13.8421
-13.7846
-8.08399
-8.6491
-9.2084
-9.75598
-10.2855
-10.7905
-11.2647
-11.7023
-12.0983
-12.4486
-12.75
-13.0003
-13.1987
-13.3455
-13.4421
-13.4908
-13.4945
-13.4568
-7.9873
-8.52688
-9.05897
-9.57848
-10.0799
-10.5578
-11.0069
-11.4221
-11.7992
-12.1346
-12.4254
-12.6698
-12.867
-13.017
-13.1208
-13.1803
-13.1978
-13.1762
-7.90007
-8.41896
-8.92911
-9.42607
-9.90508
-10.3613
-10.7903
-11.1876
-11.5495
-11.8728
-12.1552
-12.3948
-12.5907
-12.7431
-12.8525
-12.9204
-12.9488
-12.94
-7.82448
-8.32694
-8.81974
-9.29893
-9.76028
-10.1996
-10.6127
-10.9959
-11.3459
-11.6597
-11.9353
-12.171
-12.3659
-12.52
-12.6337
-12.7081
-12.745
-12.7462
-7.76226
-8.25209
-8.73161
-9.19722
-9.6451
-10.0714
-10.4725
-10.845
-11.1859
-11.4925
-11.7628
-11.9955
-12.1895
-12.3448
-12.4617
-12.541
-12.5843
-12.5932
-7.71447
-8.19514
-8.66504
-9.12083
-9.55898
-9.97596
-10.3684
-10.7331
-11.0674
-11.3688
-11.6353
-11.8657
-12.0591
-12.2152
-12.3343
-12.4172
-12.4651
-12.4795
-7.68221
-8.15691
-8.62057
-9.06999
-9.50183
-9.91276
-10.2996
-10.6593
-10.9892
-11.2872
-11.5513
-11.7801
-11.973
-12.1297
-12.2502
-12.3354
-12.3862
-12.4042
-7.66553
-8.1373
-8.5979
-9.04422
-9.47299
-9.88097
-10.2651
-10.6223
-10.9502
-11.2464
-11.5093
-11.7375
-11.9302
-12.087
-12.2083
-12.2947
-12.347
-12.3668
-3.26503
-3.72962
-4.20016
-4.67655
-5.15804
-5.64336
-6.13086
-6.61857
-7.1042
-7.58517
-8.05856
-8.52126
-8.97008
-9.40182
-9.8133
-10.2015
-10.5635
-10.8967
-11.199
-11.4683
-11.7034
-11.9031
-12.067
-12.1951
-3.27024
-3.73433
-4.20478
-4.68151
-5.16377
-5.65031
-6.13947
-6.62923
-7.11727
-7.60094
-8.07728
-8.54309
-8.99509
-9.42996
-9.84442
-10.2353
-10.5998
-10.9351
-11.239
-11.5097
-11.7455
-11.9456
-12.1094
-12.237
-3.27927
-3.74239
-4.21272
-4.69019
-5.17409
-5.66315
-6.15565
-6.64954
-7.14241
-7.63152
-8.11377
-8.58584
-9.04426
-9.48548
-9.90603
-10.3026
-10.6721
-11.0118
-11.3193
-11.5926
-11.8302
-12.031
-12.1946
-12.3211
-3.29188
-3.75347
-4.22358
-4.70217
-5.18855
-5.68141
-6.17902
-6.67919
-7.17943
-7.67681
-8.1681
-8.64973
-9.11795
-9.56892
-9.99886
-10.4042
-10.7815
-11.1279
-11.4409
-11.7183
-11.9586
-12.1605
-12.3238
-12.4485
-3.30654
-3.76594
-4.23565
-4.7157
-5.20539
-5.7034
-6.20791
-6.71666
-7.22696
-7.7357
-8.23938
-8.73414
-9.21585
-9.68026
-10.1232
-10.5406
-10.9289
-11.2847
-11.6053
-11.8884
-12.1322
-12.3357
-12.4985
-12.6207
-3.32177
-3.77814
-4.24716
-4.72893
-5.22274
-5.72727
-6.24061
-6.76035
-7.28364
-7.80709
-8.32687
-8.83872
-9.33802
-9.82002
-10.28
-10.7133
-11.1159
-11.4841
-11.8147
-12.1052
-12.3537
-12.5591
-12.721
-12.8399
-3.33522
-3.78754
-4.25545
-4.73912
-5.23785
-5.75031
-6.27449
-6.80787
-7.34733
-7.88921
-8.42924
-8.96265
-9.48422
-9.98852
-10.4701
-10.9237
-11.3446
-11.7284
-12.0717
-12.3716
-12.626
-12.8336
-12.9943
-13.1088
-3.34415
-3.79116
-4.25738
-4.74302
-5.24743
-5.76924
-6.3064
-6.85623
-7.41539
-7.97984
-8.54483
-9.10493
-9.65418
-10.1863
-10.6948
-11.1738
-11.6174
-12.0209
-12.3799
-12.6914
-12.9529
-13.1632
-13.3222
-13.4309
-3.34498
-3.78519
-4.24893
-4.73649
-5.24725
-5.77985
-6.33221
-6.90155
-7.48427
-8.07597
-8.67131
-9.26407
-9.84734
-10.4137
-10.9556
-11.4659
-11.9377
-12.3653
-12.7438
-13.0694
-13.3395
-13.5528
-13.7093
-13.8104
-3.33348
-3.76508
-4.22534
-4.71457
-5.23223
-5.77699
-6.34684
-6.93892
-7.54949
-8.17371
-8.80561
-9.43805
-10.0629
-10.6713
-11.2542
-11.8029
-12.3093
-12.7665
-13.1687
-13.5115
-13.7919
-14.0084
-14.1615
-14.2529
-3.30445
-3.72537
-4.18088
-4.67131
-5.19618
-5.75433
-6.34389
-6.96212
-7.60518
-8.2679
-8.9436
-9.62398
-10.2994
-10.9592
-11.5924
-12.1882
-12.737
-13.2304
-13.6614
-14.0251
-14.3177
-14.5378
-14.686
-14.7649
-3.25182
-3.65972
-4.10893
-4.59974
-5.13181
-5.70425
-6.31557
-6.96335
-7.6439
-8.35183
-9.07973
-9.818
-10.555
-11.2777
-11.9725
-12.6261
-13.2267
-13.7641
-14.2304
-14.6192
-14.9264
-15.1503
-15.2918
-15.3545
-3.16851
-3.56082
-4.00184
-4.49176
-5.03044
-5.6175
-6.25211
-6.9326
-7.6558
-8.4164
-9.20633
-10.0144
-10.8265
-11.6264
-12.3969
-13.1214
-13.7853
-14.3764
-14.8854
-15.3049
-15.6297
-15.8575
-15.9899
-16.0316
-3.04656
-3.42065
-3.85132
-4.33853
-4.88244
-5.48348
-6.14203
-6.85774
-7.62866
-8.45006
-9.31347
-10.2059
-11.11
-12.005
-12.8688
-13.6803
-14.4215
-15.0781
-15.6393
-16.0962
-16.4422
-16.6744
-16.7944
-16.8087
-2.87682
-3.23001
-3.64768
-4.12944
-4.67588
-5.2887
-5.97016
-6.72226
-7.54527
-8.43608
-9.38635
-10.3811
-11.3987
-12.4118
-13.3911
-14.3096
-15.1451
-15.8814
-16.5062
-17.0094
-17.3819
-17.619
-17.7222
-17.7005
-2.6513
-2.98149
-3.38338
-3.85598
-4.40051
-5.02048
-5.72113
-6.50818
-7.38594
-8.35459
-9.40711
-10.5266
-11.6854
-12.8466
-13.97
-15.0199
-15.9698
-16.8024
-17.5053
-18.0663
-18.4726
-18.7158
-18.7966
-18.727
-2.35675
-2.66233
-3.04526
-3.50362
-4.03935
-4.65845
-5.37044
-6.18694
-7.11899
-8.17306
-9.34585
-10.6191
-11.9567
-13.3066
-14.6115
-15.8228
-16.9101
-17.8585
-18.6575
-19.2926
-19.7437
-19.995
-20.0449
-19.9103
-1.99612
-2.27661
-2.63689
-3.07364
-3.58958
-4.19395
-4.90229
-5.73498
-6.71402
-7.85734
-9.17018
-10.635
-12.2037
-13.7991
-15.3344
-16.7419
-17.9902
-19.0748
-19.9929
-20.7255
-21.2401
-21.5051
-21.5128
-21.2891
-1.54547
-1.80378
-2.13904
-2.54582
-3.0274
-3.59689
-4.27784
-5.10329
-6.11245
-7.34357
-8.81944
-10.5281
-12.4042
-14.3274
-16.1585
-17.7997
-19.2286
-20.4693
-21.5363
-22.4026
-23.0085
-23.2936
-23.2388
-22.8878
-22.3245
-1.04688
-1.28825
-1.59545
-1.96017
-2.38553
-2.88843
-3.50206
-4.27638
-5.2761
-6.57334
-8.22757
-10.2494
-12.5504
-14.9283
-17.1439
-19.0533
-20.6706
-22.0871
-23.3506
-24.4129
-25.1595
-25.475
-25.3223
-24.784
-24.0023
-0.464894
-0.703149
-0.985894
-1.29982
-1.64581
-2.04291
-2.53299
-3.18602
-4.10479
-5.41955
-7.26361
-9.71076
-12.6456
-15.6984
-18.4145
-20.5798
-22.3277
-23.9061
-25.423
-26.7804
-27.7477
-28.0979
-27.7825
-26.9745
-25.9104
0.0425451
-0.203939
-0.462874
-0.713046
-0.947954
-1.18279
-1.46239
-1.87775
-2.58238
-3.80067
-5.81099
-8.84223
-12.7503
-16.8946
-20.3244
-22.6783
-24.3987
-26.0739
-27.9302
-29.7631
-31.0836
-31.4321
-30.7996
-29.5584
-28.109
0.50855
0.220921
-0.0315417
-0.220424
-0.331224
-0.36592
-0.352747
-0.383317
-0.660691
-1.54173
-3.58986
-7.46466
-12.7572
-18.5442
-22.8652
-25.1504
-26.5613
-28.2586
-30.6498
-33.3181
-35.2009
-35.4477
-34.4078
-32.6026
-30.6505
0.416833
0.0972052
-0.131129
-0.228528
-0.165654
0.070812
0.467277
0.987262
1.46296
1.42388
-0.0188214
-4.54253
-11.1694
-18.9671
-24.9141
-27.3142
-28.047
-29.3034
-31.9478
-35.3204
-37.6951
-38.1432
-37.8059
-35.7605
-33.485
-31.2625
-0.678978
-0.88044
-0.870557
-0.601482
-0.0267584
0.890834
2.15165
3.71235
5.30341
3.46586
1.19258
-8.57322
-24.0269
-31.4114
-32.6768
-30.6712
-30.5278
-33.8453
-38.5065
-43.8946
-42.4745
-40.2326
-38.0728
-35.756
-33.205
-1.89527
-1.7582
-1.30501
-0.448726
0.913407
2.88107
5.50943
6.74634
10.5161
10.925
0.669028
-32.4287
-53.1393
-52.116
-42.2788
-41.3743
-40.184
-38.8043
-35.7294
-3.08134
-2.81667
-2.22381
-1.18501
0.427996
2.76364
5.94782
9.17687
15.3964
18.6934
6.3823
-42.018
-42.2467
-40.0874
-38.7192
-36.476
-3.43445
-2.9724
-2.06166
-0.592092
1.53573
4.38249
8.57793
14.4858
18.953
18.3186
-45.5693
-41.921
-38.8025
-35.705
-45.4452
-48.2996
-45.2752
-38.8328
-34.8674
-44.6496
-46.8885
-41.5799
-37.0773
-42.2607
-40.2401
-38.4046
-35.2267
-38.2465
-37.2058
-35.2143
-32.6307
-4.28284
-6.38522
-9.52241
-13.5605
-17.8554
-21.4212
-23.8471
-25.5543
-27.1363
-28.8287
-30.4485
-31.5145
-31.5591
-30.591
-29.0399
-27.3722
-25.7754
-5.85957
-7.77655
-10.3058
-13.3318
-16.4807
-19.2792
-21.4872
-23.2214
-24.7268
-26.116
-27.3055
-28.0752
-28.2018
-27.6488
-26.6211
-25.3866
-24.1126
-22.8579
-6.96908
-8.68007
-10.7631
-13.1281
-15.5683
-17.8335
-19.766
-21.3681
-22.7272
-23.8926
-24.8253
-25.4193
-25.5656
-25.2395
-24.5403
-23.6266
-22.6261
-21.6057
-7.69615
-9.21575
-10.9694
-12.8898
-14.8528
-16.7123
-18.3623
-19.7734
-20.9672
-21.959
-22.7262
-23.2153
-23.3727
-23.1887
-22.7169
-22.0509
-21.2793
-20.4603
-8.16929
-9.51559
-11.0134
-12.6127
-14.2331
-15.7835
-17.1913
-18.4211
-19.4667
-20.3257
-20.9822
-21.4068
-21.5744
-21.4837
-21.1672
-20.6819
-20.0883
-19.4333
-8.44846
-9.64646
-10.9435
-12.3017
-13.667
-14.979
-16.1861
-17.2555
-18.171
-18.9229
-19.498
-19.8794
-20.0555
-20.0294
-19.8227
-19.4722
-19.0189
-18.4983
-8.59719
-9.66854
-10.8049
-11.9774
-13.1475
-14.2731
-15.3164
-16.2495
-17.0546
-17.7193
-18.2328
-18.5843
-18.7688
-18.7901
-18.6637
-18.4142
-18.0702
-17.6585
-8.6499
-9.61405
-10.6206
-11.6469
-12.6645
-13.643
-14.5538
-15.3739
-16.0868
-16.6805
-17.1454
-17.4744
-17.6651
-17.7213
-17.6543
-17.4813
-17.2227
-16.8985
-8.63871
-9.5122
-10.4126
-11.322
-12.2187
-13.0797
-13.8831
-14.6105
-15.2473
-15.7827
-16.2086
-16.5197
-16.7147
-16.797
-16.7749
-16.6608
-16.4694
-16.2162
-8.58329
-9.38039
-10.1936
-11.0085
-11.8082
-12.5748
-13.2914
-13.9429
-14.5171
-15.0047
-15.3988
-15.6952
-15.8929
-15.9948
-16.0069
-15.9384
-15.8003
-15.6041
-8.5
-9.23284
-9.97416
-10.7122
-11.4334
-12.1239
-12.77
-13.3595
-13.8824
-14.3306
-14.6985
-14.9824
-15.1816
-15.298
-15.3365
-15.3037
-15.2079
-15.0581
-8.40007
-9.07899
-9.76091
-10.4361
-11.0936
-11.7222
-12.311
-12.85
-13.3308
-13.7466
-14.0927
-14.366
-14.5656
-14.6931
-14.7519
-14.7471
-14.6851
-14.5728
-8.29228
-8.92609
-9.55893
-10.1826
-10.7883
-11.3666
-11.9087
-12.4064
-12.8526
-13.2419
-13.5699
-13.834
-14.0334
-14.1691
-14.2437
-14.261
-14.2261
-14.1443
-8.18305
-8.77929
-9.37162
-9.95318
-10.5165
-11.0538
-11.5579
-12.022
-12.44
-12.8073
-13.1203
-13.3765
-13.5753
-13.7171
-13.804
-13.8389
-13.8256
-13.7683
-8.07729
-8.64243
-9.20148
-9.74859
-10.2774
-10.7816
-11.2548
-11.6915
-12.0865
-12.4358
-12.7363
-12.9859
-13.1837
-13.3301
-13.4266
-13.4753
-13.4792
-13.4421
-7.97868
-8.51828
-9.05018
-9.56933
-10.0703
-10.5476
-10.9959
-11.4104
-11.7867
-12.1214
-12.4117
-12.6556
-12.8524
-13.0023
-13.1061
-13.1657
-13.1835
-13.1623
-7.89004
-8.40895
-8.91897
-9.41566
-9.89429
-10.3501
-10.7785
-11.1753
-11.5366
-11.8595
-12.1414
-12.3807
-12.5765
-12.7288
-12.8383
-12.9065
-12.9352
-12.9269
-7.81342
-8.31591
-8.80862
-9.28762
-9.74867
-10.1876
-10.6004
-10.9832
-11.3328
-11.6463
-11.9216
-12.1571
-12.352
-12.5061
-12.6199
-12.6947
-12.7319
-12.7336
-7.75046
-8.24034
-8.7198
-9.18527
-9.63293
-10.059
-10.4598
-10.832
-11.1726
-11.479
-11.7492
-11.9818
-12.1758
-12.3312
-12.4482
-12.5279
-12.5715
-12.5809
-7.70217
-8.18289
-8.65276
-9.10844
-9.54643
-9.96322
-10.3554
-10.72
-11.054
-11.3552
-11.6217
-11.8521
-12.0455
-12.2017
-12.3211
-12.4043
-12.4526
-12.4674
-7.6696
-8.14436
-8.608
-9.05734
-9.48906
-9.89983
-10.2865
-10.646
-10.9758
-11.2737
-11.5377
-11.7666
-11.9596
-12.1164
-12.2371
-12.3226
-12.3739
-12.3923
-7.65275
-8.12459
-8.58518
-9.03143
-9.46009
-9.86794
-10.2519
-10.609
-10.9368
-11.2329
-11.4958
-11.724
-11.9167
-12.0738
-12.1953
-12.282
-12.3347
-12.355
-3.23995
-3.70575
-4.17742
-4.65485
-5.13726
-5.62336
-6.1115
-6.5997
-7.0857
-7.56689
-8.04038
-8.50309
-8.95184
-9.38344
-9.79471
-10.1826
-10.5443
-10.8773
-11.1794
-11.4486
-11.6836
-11.8834
-12.0474
-12.1757
-3.24512
-3.71048
-4.18212
-4.65993
-5.14315
-5.63051
-6.12033
-6.61061
-7.09903
-7.58293
-8.05936
-8.52517
-8.97708
-9.41178
-9.826
-10.2166
-10.5807
-10.9158
-11.2195
-11.4899
-11.7257
-11.9258
-12.0897
-12.2175
-3.25407
-3.71857
-4.19019
-4.66884
-5.15377
-5.6437
-6.13694
-6.63139
-7.12466
-7.61401
-8.09636
-8.56841
-9.02669
-9.4677